<?xml version="1.0" encoding="ISO-8859-1"?>
<modeling>
 <generator>
  <i name="program" type="string">vasp </i>
  <i name="version" type="string">5.4.4.18Apr17-6-g9f103f2a35  </i>
  <i name="subversion" type="string">(build May 08 2019 13:49:07) complex            parallel </i>
  <i name="platform" type="string">LinuxIFC </i>
  <i name="date" type="string">2019 11 13 </i>
  <i name="time" type="string">15:37:54 </i>
 </generator>
 <incar>
  <i type="string" name="SYSTEM"> CuCO</i>
  <i type="int" name="ISTART">     0</i>
  <i type="string" name="PREC">accurate</i>
  <i type="string" name="ALGO"> Fast</i>
  <i type="int" name="ISPIN">     2</i>
  <i type="int" name="INIWAV">     1</i>
  <i type="int" name="NELM">   300</i>
  <i type="int" name="NELMIN">     3</i>
  <i type="int" name="IBRION">    -1</i>
  <i name="EDIFF">      0.00000010</i>
  <i name="EDIFFG">     -0.00100000</i>
  <i type="int" name="NSW">     0</i>
  <i type="int" name="ISYM">     0</i>
  <i name="ENCUT">    600.00000000</i>
  <i name="NUPDOWN">      1.00000000</i>
  <i type="logical" name="LREAL"> F  </i>
  <i type="int" name="ISMEAR">     1</i>
  <i name="SIGMA">      0.10000000</i>
  <i name="KSPACING">      0.50000000</i>
  <i type="logical" name="KGAMMA"> F  </i>
  <i type="logical" name="LWAVE"> F  </i>
  <i type="logical" name="LCHARG"> F  </i>
  <v type="int" name="KPOINT_BSE">    -1     0     0     0</v>
  <i type="int" name="NELM">   300</i>
  <i type="string" name="GGA"> PE</i>
 </incar>
 <structure name="primitive_cell" >
  <crystal>
   <varray name="basis" >
    <v>      15.00000000       0.00000000       0.00000000 </v>
    <v>       0.00000000      15.00000000       0.00000000 </v>
    <v>       0.00000000       0.00000000      15.00000000 </v>
   </varray>
   <i name="volume">   3375.00000000 </i>
   <varray name="rec_basis" >
    <v>       0.06666667       0.00000000       0.00000000 </v>
    <v>       0.00000000       0.06666667       0.00000000 </v>
    <v>       0.00000000       0.00000000       0.06666667 </v>
   </varray>
  </crystal>
  <varray name="positions" >
   <v>       0.29120933       0.41915067      -0.44477000 </v>
   <v>       0.39462533       0.29347333      -0.43594800 </v>
   <v>       0.22630000      -0.43042600      -0.45382667 </v>
   <v>       0.44572267       0.43611400      -0.38609533 </v>
   <v>       0.33470933      -0.45528133      -0.34359000 </v>
   <v>       0.41739733       0.39777200       0.44743267 </v>
   <v>       0.37668267      -0.45083067       0.48878933 </v>
   <v>      -0.46649600      -0.49330533       0.48009000 </v>
   <v>       0.48673000      -0.40775867      -0.38204133 </v>
   <v>      -0.45085000       0.34468667      -0.47074533 </v>
   <v>       0.35457333      -0.31655333      -0.43096733 </v>
   <v>       0.48860533      -0.33020667       0.47661467 </v>
   <v>      -0.38008067       0.47983667      -0.38835800 </v>
   <v>      -0.26462667       0.49586733      -0.34994533 </v>
   <v>      -0.18840667       0.49199600      -0.35967867 </v>
  </varray>
 </structure>
 <varray name="primitive_index" >
  <v type="int" >        1 </v>
  <v type="int" >        3 </v>
  <v type="int" >        8 </v>
  <v type="int" >        6 </v>
  <v type="int" >        9 </v>
  <v type="int" >        7 </v>
  <v type="int" >        2 </v>
  <v type="int" >        4 </v>
  <v type="int" >       13 </v>
  <v type="int" >        5 </v>
  <v type="int" >       10 </v>
  <v type="int" >       11 </v>
  <v type="int" >       12 </v>
  <v type="int" >       14 </v>
  <v type="int" >       15 </v>
 </varray>
 <kpoints>
  <generation param="Monkhorst-Pack">
   <v type="int" name="divisions">       1        1        1 </v>
   <v name="usershift">      0.00000000       0.00000000       0.00000000 </v>
   <v name="genvec1">      1.00000000       0.00000000       0.00000000 </v>
   <v name="genvec2">      0.00000000       1.00000000       0.00000000 </v>
   <v name="genvec3">      0.00000000       0.00000000       1.00000000 </v>
   <v name="shift">      0.00000000       0.00000000       0.00000000 </v>
  </generation>
  <varray name="kpointlist" >
   <v>       0.00000000       0.00000000       0.00000000 </v>
  </varray>
  <varray name="weights" >
   <v>       1.00000000 </v>
  </varray>
 </kpoints>
 <parameters>
  <separator name="general" >
   <i type="string" name="SYSTEM">CuCO</i>
   <i type="logical" name="LCOMPAT"> F  </i>
  </separator>
  <separator name="electronic" >
   <i type="string" name="PREC">accura</i>
   <i name="ENMAX">    600.00000000</i>
   <i name="ENAUG">    644.87300000</i>
   <i name="EDIFF">      0.00000010</i>
   <i type="int" name="IALGO">    68</i>
   <i type="int" name="IWAVPR">    10</i>
   <i type="int" name="NBANDS">    92</i>
   <i name="NELECT">    153.00000000</i>
   <i type="int" name="TURBO">     0</i>
   <i type="int" name="IRESTART">     0</i>
   <i type="int" name="NREBOOT">     0</i>
   <i type="int" name="NMIN">     0</i>
   <i name="EREF">      0.00000000</i>
   <separator name="electronic smearing" >
    <i type="int" name="ISMEAR">     1</i>
    <i name="SIGMA">      0.10000000</i>
    <i name="KSPACING">      0.50000000</i>
    <i type="logical" name="KGAMMA"> F  </i>
   </separator>
   <separator name="electronic projectors" >
    <i type="logical" name="LREAL"> F  </i>
    <v name="ROPT">      0.00000000      0.00000000      0.00000000</v>
    <i type="int" name="LMAXPAW">  -100</i>
    <i type="int" name="LMAXMIX">     2</i>
    <i type="logical" name="NLSPLINE"> F  </i>
   </separator>
   <separator name="electronic startup" >
    <i type="int" name="ISTART">     0</i>
    <i type="int" name="ICHARG">     2</i>
    <i type="int" name="INIWAV">     1</i>
   </separator>
   <separator name="electronic spin" >
    <i type="int" name="ISPIN">     2</i>
    <i type="logical" name="LNONCOLLINEAR"> F  </i>
    <v name="MAGMOM">      0.06666667      0.06666667      0.06666667      0.06666667      0.06666667      0.06666667      0.06666667      0.06666667      0.06666667      0.06666667      0.06666667      0.06666667      0.06666667      0.06666667      0.06666667</v>
    <i name="NUPDOWN">      1.00000000</i>
    <i type="logical" name="LSORBIT"> F  </i>
    <v name="SAXIS">      0.00000000      0.00000000      1.00000000</v>
    <i type="logical" name="LSPIRAL"> F  </i>
    <v name="QSPIRAL">      0.00000000      0.00000000      0.00000000</v>
    <i type="logical" name="LZEROZ"> F  </i>
   </separator>
   <separator name="electronic exchange-correlation" >
    <i type="logical" name="LASPH"> F  </i>
    <i type="logical" name="LMETAGGA"> F  </i>
   </separator>
   <separator name="electronic convergence" >
    <i type="int" name="NELM">   300</i>
    <i type="int" name="NELMDL">    -5</i>
    <i type="int" name="NELMIN">     3</i>
    <i name="ENINI">    600.00000000</i>
    <separator name="electronic convergence detail" >
     <i type="logical" name="LDIAG"> T  </i>
     <i type="logical" name="LSUBROT"> F  </i>
     <i name="WEIMIN">      0.00000000</i>
     <i name="EBREAK">      0.00000000</i>
     <i name="DEPER">      0.30000000</i>
     <i type="int" name="NRMM">     4</i>
     <i name="TIME">      0.40000000</i>
    </separator>
   </separator>
   <separator name="electronic mixer" >
    <i name="AMIX">      0.40000000</i>
    <i name="BMIX">      1.00000000</i>
    <i name="AMIN">      0.10000000</i>
    <i name="AMIX_MAG">      1.60000000</i>
    <i name="BMIX_MAG">      1.00000000</i>
    <separator name="electronic mixer details" >
     <i type="int" name="IMIX">     4</i>
     <i type="logical" name="MIXFIRST"> F  </i>
     <i type="int" name="MAXMIX">   -45</i>
     <i name="WC">    100.00000000</i>
     <i type="int" name="INIMIX">     1</i>
     <i type="int" name="MIXPRE">     1</i>
     <i type="int" name="MREMOVE">     5</i>
    </separator>
   </separator>
   <separator name="electronic dipolcorrection" >
    <i type="logical" name="LDIPOL"> F  </i>
    <i type="logical" name="LMONO"> F  </i>
    <i type="int" name="IDIPOL">     0</i>
    <i name="EPSILON">      1.00000000</i>
    <v name="DIPOL">   -100.00000000   -100.00000000   -100.00000000</v>
    <i name="EFIELD">      0.00000000</i>
   </separator>
  </separator>
  <separator name="grids" >
   <i type="int" name="NGX">   120</i>
   <i type="int" name="NGY">   120</i>
   <i type="int" name="NGZ">   120</i>
   <i type="int" name="NGXF">   240</i>
   <i type="int" name="NGYF">   240</i>
   <i type="int" name="NGZF">   240</i>
   <i type="logical" name="ADDGRID"> F  </i>
  </separator>
  <separator name="ionic" >
   <i type="int" name="NSW">     0</i>
   <i type="int" name="IBRION">    -1</i>
   <i type="int" name="MDALGO">     0</i>
   <i type="int" name="ISIF">     2</i>
   <i name="PSTRESS">      0.00000000</i>
   <i name="EDIFFG">     -0.00100000</i>
   <i type="int" name="NFREE">     0</i>
   <i name="POTIM">      0.50000000</i>
   <i name="SMASS">     -3.00000000</i>
   <i name="SCALEE">      1.00000000</i>
  </separator>
  <separator name="ionic md" >
   <i name="TEBEG">      0.00010000</i>
   <i name="TEEND">      0.00010000</i>
   <i type="int" name="NBLOCK">     1</i>
   <i type="int" name="KBLOCK">     1</i>
   <i type="int" name="NPACO">   256</i>
   <i name="APACO">     16.00000000</i>
  </separator>
  <separator name="symmetry" >
   <i type="int" name="ISYM">     0</i>
   <i name="SYMPREC">      0.00001000</i>
  </separator>
  <separator name="dos" >
   <i type="int" name="LORBIT">     0</i>
   <v name="RWIGS">     -1.00000000     -1.00000000     -1.00000000</v>
   <i type="int" name="NEDOS">   301</i>
   <i name="EMIN">     10.00000000</i>
   <i name="EMAX">    -10.00000000</i>
   <i name="EFERMI">      0.00000000</i>
  </separator>
  <separator name="writing" >
   <i type="int" name="NWRITE">     2</i>
   <i type="logical" name="LWAVE"> F  </i>
   <i type="logical" name="LDOWNSAMPLE"> F  </i>
   <i type="logical" name="LCHARG"> F  </i>
   <i type="logical" name="LPARD"> F  </i>
   <i type="logical" name="LVTOT"> F  </i>
   <i type="logical" name="LVHAR"> F  </i>
   <i type="logical" name="LELF"> F  </i>
   <i type="logical" name="LOPTICS"> F  </i>
   <v name="STM">      0.00000000      0.00000000      0.00000000      0.00000000      0.00000000      0.00000000      0.00000000</v>
  </separator>
  <separator name="performance" >
   <i type="int" name="NPAR">     4</i>
   <i type="int" name="NSIM">     4</i>
   <i type="int" name="NBLK">    -1</i>
   <i type="logical" name="LPLANE"> T  </i>
   <i type="logical" name="LSCALAPACK"> T  </i>
   <i type="logical" name="LSCAAWARE"> F  </i>
   <i type="logical" name="LSCALU"> F  </i>
   <i type="logical" name="LASYNC"> F  </i>
   <i type="logical" name="LORBITALREAL"> F  </i>
  </separator>
  <separator name="miscellaneous" >
   <i type="int" name="IDIOT">     3</i>
   <i type="int" name="ISPECIAL">     0</i>
   <i type="logical" name="LMUSIC"> F  </i>
   <v name="POMASS">     63.54600000     12.01100000     16.00000000</v>
   <v name="DARWINR">      0.00000000      0.00000000      0.00000000</v>
   <v name="DARWINV">      1.00000000      1.00000000      1.00000000</v>
   <i type="logical" name="LCORR"> T  </i>
  </separator>
  <i type="logical" name="GGA_COMPAT"> T  </i>
  <i type="logical" name="LBERRY"> F  </i>
  <i type="int" name="ICORELEVEL">     0</i>
  <i type="logical" name="LDAU"> F  </i>
  <i type="int" name="I_CONSTRAINED_M">     0</i>
  <separator name="electronic exchange-correlation" >
   <i type="string" name="GGA">PE</i>
   <i type="int" name="VOSKOWN">     0</i>
   <i type="logical" name="LHFCALC"> F  </i>
   <i type="string" name="PRECFOCK"></i>
   <i type="logical" name="LSYMGRAD"> F  </i>
   <i type="logical" name="LHFONE"> F  </i>
   <i type="logical" name="LRHFCALC"> F  </i>
   <i type="logical" name="LTHOMAS"> F  </i>
   <i type="logical" name="LMODELHF"> F  </i>
   <i name="ENCUT4O">     -1.00000000</i>
   <i type="int" name="EXXOEP">     0</i>
   <i type="int" name="FOURORBIT">     0</i>
   <i name="AEXX">      0.00000000</i>
   <i name="HFALPHA">      0.00000000</i>
   <i name="MCALPHA">      0.00000000</i>
   <i name="ALDAX">      1.00000000</i>
   <i name="AGGAX">      1.00000000</i>
   <i name="ALDAC">      1.00000000</i>
   <i name="AGGAC">      1.00000000</i>
   <i type="int" name="NKREDX">     1</i>
   <i type="int" name="NKREDY">     1</i>
   <i type="int" name="NKREDZ">     1</i>
   <i type="logical" name="SHIFTRED"> F  </i>
   <i type="logical" name="ODDONLY"> F  </i>
   <i type="logical" name="EVENONLY"> F  </i>
   <i type="int" name="LMAXFOCK">     0</i>
   <i type="int" name="NMAXFOCKAE">     0</i>
   <i type="logical" name="LFOCKAEDFT"> F  </i>
   <i name="HFSCREEN">      0.00000000</i>
   <i name="HFSCREENC">      0.00000000</i>
   <i type="int" name="NBANDSGWLOW">     0</i>
  </separator>
  <separator name="vdW DFT" >
   <i type="logical" name="LUSE_VDW"> F  </i>
   <i name="Zab_VDW">     -0.84910000</i>
   <i name="PARAM1">      0.12340000</i>
   <i name="PARAM2">      1.00000000</i>
   <i name="PARAM3">      0.00000000</i>
  </separator>
  <separator name="model GW" >
   <i type="int" name="MODEL_GW">     0</i>
   <i name="MODEL_EPS0">    135.00000000</i>
   <i name="MODEL_ALPHA">      1.00000000</i>
  </separator>
  <separator name="linear response parameters" >
   <i type="logical" name="LEPSILON"> F  </i>
   <i type="logical" name="LRPA"> F  </i>
   <i type="logical" name="LNABLA"> F  </i>
   <i type="logical" name="LVEL"> F  </i>
   <i type="int" name="KINTER">     0</i>
   <i name="CSHIFT">      0.10000000</i>
   <i name="OMEGAMAX">     -1.00000000</i>
   <i name="DEG_THRESHOLD">      0.00200000</i>
   <i name="RTIME">     -0.10000000</i>
   <i name="WPLASMAI">      0.00000000</i>
   <v name="DFIELD">      0.00000000      0.00000000      0.00000000</v>
   <v name="WPLASMA">      0.00000000      0.00000000      0.00000000      0.00000000      0.00000000      0.00000000      0.00000000      0.00000000      0.00000000</v>
  </separator>
  <separator name="orbital magnetization" >
   <i type="logical" name="NUCIND"> F  </i>
   <v name="MAGPOS">      0.00000000      0.00000000      0.00000000</v>
   <i type="logical" name="LNICSALL"> T  </i>
   <i type="logical" name="ORBITALMAG"> F  </i>
   <i type="logical" name="LMAGBLOCH"> F  </i>
   <i type="logical" name="LCHIMAG"> F  </i>
   <i type="logical" name="LGAUGE"> T  </i>
   <i type="int" name="MAGATOM">     0</i>
   <v name="MAGDIPOL">      0.00000000      0.00000000      0.00000000</v>
   <v name="AVECCONST">      0.00000000      0.00000000      0.00000000</v>
  </separator>
  <separator name="response functions" >
   <i type="logical" name="LADDER"> F  </i>
   <i type="logical" name="LRPAFORCE"> F  </i>
   <i type="logical" name="LFXC"> F  </i>
   <i type="logical" name="LHARTREE"> T  </i>
   <i type="int" name="IBSE">     0</i>
   <v type="int" name="KPOINT">    -1     0     0     0</v>
   <i type="logical" name="LTCTE"> F  </i>
   <i type="logical" name="LTETE"> F  </i>
   <i type="logical" name="LTRIPLET"> F  </i>
   <i type="logical" name="LFXCEPS"> F  </i>
   <i type="logical" name="LFXHEG"> F  </i>
   <i type="int" name="NATURALO">     2</i>
   <i type="logical" name="L2ORDER"> F  </i>
   <i type="logical" name="LMP2LT"> F  </i>
   <i type="logical" name="LUSEW"> F  </i>
   <i name="ENCUTGW">     -2.00000000</i>
   <i name="ENCUTGWSOFT">     -2.00000000</i>
   <i name="ENCUTLF">     -1.00000000</i>
   <i type="int" name="LMAXMP2">    -1</i>
   <i name="SCISSOR">      0.00000000</i>
   <i type="int" name="NOMEGA">     0</i>
   <i type="int" name="NOMEGAR">     0</i>
   <i type="int" name="NBANDSGW">    -1</i>
   <i type="int" name="NBANDSO">    -1</i>
   <i type="int" name="NBANDSV">    -1</i>
   <i type="int" name="NELM">   300</i>
   <i type="int" name="NELMHF">     1</i>
   <i type="int" name="DIM">     3</i>
   <i type="int" name="ANTIRES">     0</i>
   <i name="OMEGAMAX">    -30.00000000</i>
   <i name="OMEGAMIN">    -30.00000000</i>
   <i name="OMEGATL">   -200.00000000</i>
   <i type="int" name="OMEGAGRID">   140</i>
   <i name="CSHIFT">     -0.10000000</i>
   <i type="logical" name="SELFENERGY"> F  </i>
   <i type="logical" name="LSPECTRAL"> F  </i>
   <i type="logical" name="LSPECTRALGW"> F  </i>
   <i type="logical" name="LSINGLES"> F  </i>
   <i type="logical" name="LFERMIGW"> F  </i>
   <i type="logical" name="ODDONLYGW"> F  </i>
   <i type="logical" name="EVENONLYGW"> F  </i>
   <i type="int" name="NKREDLFX">     1</i>
   <i type="int" name="NKREDLFY">     1</i>
   <i type="int" name="NKREDLFZ">     1</i>
   <i type="int" name="MAXMEM">  2800</i>
   <i type="int" name="TELESCOPE">     0</i>
   <i type="int" name="TAUPAR">     1</i>
   <i type="int" name="OMEGAPAR">    -1</i>
   <i name="LAMBDA">      1.00000000</i>
  </separator>
  <separator name="External order field" >
   <i name="OFIELD_KAPPA">      0.00000000</i>
   <v name="OFIELD_K">      0.00000000      0.00000000      0.00000000</v>
   <i name="OFIELD_Q6_NEAR">      0.00000000</i>
   <i name="OFIELD_Q6_FAR">      0.00000000</i>
   <i name="OFIELD_A">      0.00000000</i>
  </separator>
 </parameters>
 <atominfo>
  <atoms>      15 </atoms>
  <types>       3 </types>
  <array name="atoms" >
   <dimension dim="1">ion</dimension>
   <field type="string">element</field>
   <field type="int">atomtype</field>
   <set>
    <rc><c>Cu</c><c>   1</c></rc>
    <rc><c>Cu</c><c>   1</c></rc>
    <rc><c>Cu</c><c>   1</c></rc>
    <rc><c>Cu</c><c>   1</c></rc>
    <rc><c>Cu</c><c>   1</c></rc>
    <rc><c>Cu</c><c>   1</c></rc>
    <rc><c>Cu</c><c>   1</c></rc>
    <rc><c>Cu</c><c>   1</c></rc>
    <rc><c>Cu</c><c>   1</c></rc>
    <rc><c>Cu</c><c>   1</c></rc>
    <rc><c>Cu</c><c>   1</c></rc>
    <rc><c>Cu</c><c>   1</c></rc>
    <rc><c>Cu</c><c>   1</c></rc>
    <rc><c>C </c><c>   2</c></rc>
    <rc><c>O </c><c>   3</c></rc>
   </set>
  </array>
  <array name="atomtypes" >
   <dimension dim="1">type</dimension>
   <field type="int">atomspertype</field>
   <field type="string">element</field>
   <field>mass</field>
   <field>valence</field>
   <field type="string">pseudopotential</field>
   <set>
    <rc><c>  13</c><c>Cu</c><c>     63.54600000</c><c>     11.00000000</c><c>  PAW_PBE Cu 22Jun2005                  </c></rc>
    <rc><c>   1</c><c>C </c><c>     12.01100000</c><c>      4.00000000</c><c>  PAW_PBE C 08Apr2002                   </c></rc>
    <rc><c>   1</c><c>O </c><c>     16.00000000</c><c>      6.00000000</c><c>  PAW_PBE O 08Apr2002                   </c></rc>
   </set>
  </array>
 </atominfo>
 <structure name="initialpos" >
  <crystal>
   <varray name="basis" >
    <v>      15.00000000       0.00000000       0.00000000 </v>
    <v>       0.00000000      15.00000000       0.00000000 </v>
    <v>       0.00000000       0.00000000      15.00000000 </v>
   </varray>
   <i name="volume">   3375.00000000 </i>
   <varray name="rec_basis" >
    <v>       0.06666667       0.00000000       0.00000000 </v>
    <v>       0.00000000       0.06666667       0.00000000 </v>
    <v>       0.00000000       0.00000000       0.06666667 </v>
   </varray>
  </crystal>
  <varray name="positions" >
   <v>       0.29120933       0.41915067       0.55523000 </v>
   <v>       0.37668267       0.54916933       0.48878933 </v>
   <v>       0.39462533       0.29347333       0.56405200 </v>
   <v>       0.53350400       0.50669467       0.48009000 </v>
   <v>       0.54915000       0.34468667       0.52925467 </v>
   <v>       0.44572267       0.43611400       0.61390467 </v>
   <v>       0.41739733       0.39777200       0.44743267 </v>
   <v>       0.22630000       0.56957400       0.54617333 </v>
   <v>       0.33470933       0.54471867       0.65641000 </v>
   <v>       0.35457333       0.68344667       0.56903267 </v>
   <v>       0.48860533       0.66979333       0.47661467 </v>
   <v>       0.61991933       0.47983667       0.61164200 </v>
   <v>       0.48673000       0.59224133       0.61795867 </v>
   <v>       0.73537333       0.49586733       0.65005467 </v>
   <v>       0.81159333       0.49199600       0.64032133 </v>
  </varray>
 </structure>
 <calculation>
  <scstep>
   <time name="dav">    7.45    7.47</time>
   <time name="total">    8.63    8.64</time>
   <energy>
    <i name="alphaZ">     41.16232785 </i>
    <i name="ewald">  16330.60275435 </i>
    <i name="hartreedc"> -33355.19887212 </i>
    <i name="XCdc">    623.31991477 </i>
    <i name="pawpsdc">  16421.75059358 </i>
    <i name="pawaedc"> -17800.06104309 </i>
    <i name="eentropy">     -0.00784433 </i>
    <i name="bandstr">    194.32272924 </i>
    <i name="atom">  18662.21924712 </i>
    <i name="e_fr_energy">   1118.10980736 </i>
    <i name="e_wo_entrp">   1118.11765169 </i>
    <i name="e_0_energy">   1118.11242213 </i>
   </energy>
  </scstep>
  <scstep>
   <time name="dav">    7.36    7.38</time>
   <time name="total">    7.36    7.38</time>
   <energy>
    <i name="e_fr_energy">     88.53885105 </i>
    <i name="e_wo_entrp">     88.53028418 </i>
    <i name="e_0_energy">     88.53599543 </i>
   </energy>
  </scstep>
  <scstep>
   <time name="dav">   11.38   11.39</time>
   <time name="total">   11.38   11.39</time>
   <energy>
    <i name="e_fr_energy">    -33.01058622 </i>
    <i name="e_wo_entrp">    -33.02677885 </i>
    <i name="e_0_energy">    -33.01598376 </i>
   </energy>
  </scstep>
  <scstep>
   <time name="dav">   10.19   10.21</time>
   <time name="total">   10.19   10.21</time>
   <energy>
    <i name="e_fr_energy">    -55.77691779 </i>
    <i name="e_wo_entrp">    -55.78622916 </i>
    <i name="e_0_energy">    -55.78002158 </i>
   </energy>
  </scstep>
  <scstep>
   <time name="dav">   11.97   11.99</time>
   <time name="total">   12.66   12.68</time>
   <energy>
    <i name="e_fr_energy">    -57.48203529 </i>
    <i name="e_wo_entrp">    -57.49154258 </i>
    <i name="e_0_energy">    -57.48520439 </i>
   </energy>
  </scstep>
  <scstep>
   <time name="diag">    1.10    1.10</time>
   <time name="diis">    6.81    6.82</time>
   <time name="orth">    0.06    0.06</time>
   <time name="total">    9.78    9.81</time>
   <energy>
    <i name="e_fr_energy">    -56.56183310 </i>
    <i name="e_wo_entrp">    -56.57109346 </i>
    <i name="e_0_energy">    -56.56491989 </i>
   </energy>
  </scstep>
  <scstep>
   <time name="diag">    1.10    1.10</time>
   <time name="diis">    6.17    6.18</time>
   <time name="orth">    0.06    0.06</time>
   <time name="total">    9.16    9.16</time>
   <energy>
    <i name="e_fr_energy">    -49.39214644 </i>
    <i name="e_wo_entrp">    -49.40147661 </i>
    <i name="e_0_energy">    -49.39525650 </i>
   </energy>
  </scstep>
  <scstep>
   <time name="diag">    1.10    1.10</time>
   <time name="diis">    6.93    6.94</time>
   <time name="orth">    0.06    0.06</time>
   <time name="total">    9.92    9.93</time>
   <energy>
    <i name="e_fr_energy">    -49.12064191 </i>
    <i name="e_wo_entrp">    -49.12998974 </i>
    <i name="e_0_energy">    -49.12375785 </i>
   </energy>
  </scstep>
  <scstep>
   <time name="diag">    1.10    1.10</time>
   <time name="diis">    6.95    6.95</time>
   <time name="orth">    0.06    0.06</time>
   <time name="total">    9.94    9.94</time>
   <energy>
    <i name="e_fr_energy">    -49.08653129 </i>
    <i name="e_wo_entrp">    -49.09580883 </i>
    <i name="e_0_energy">    -49.08962380 </i>
   </energy>
  </scstep>
  <scstep>
   <time name="diag">    1.09    1.09</time>
   <time name="diis">    7.22    7.22</time>
   <time name="orth">    0.05    0.05</time>
   <time name="total">   10.19   10.20</time>
   <energy>
    <i name="e_fr_energy">    -49.02707934 </i>
    <i name="e_wo_entrp">    -49.03642957 </i>
    <i name="e_0_energy">    -49.03019608 </i>
   </energy>
  </scstep>
  <scstep>
   <time name="diag">    1.09    1.09</time>
   <time name="diis">    7.08    7.09</time>
   <time name="orth">    0.05    0.05</time>
   <time name="total">   10.06   10.07</time>
   <energy>
    <i name="e_fr_energy">    -49.01933093 </i>
    <i name="e_wo_entrp">    -49.02865047 </i>
    <i name="e_0_energy">    -49.02243744 </i>
   </energy>
  </scstep>
  <scstep>
   <time name="diag">    1.09    1.09</time>
   <time name="diis">    7.00    7.01</time>
   <time name="orth">    0.05    0.05</time>
   <time name="total">    9.98    9.99</time>
   <energy>
    <i name="e_fr_energy">    -49.01643710 </i>
    <i name="e_wo_entrp">    -49.02578563 </i>
    <i name="e_0_energy">    -49.01955328 </i>
   </energy>
  </scstep>
  <scstep>
   <time name="diag">    1.09    1.09</time>
   <time name="diis">    7.08    7.09</time>
   <time name="orth">    0.05    0.05</time>
   <time name="total">   10.06   10.07</time>
   <energy>
    <i name="e_fr_energy">    -49.01557868 </i>
    <i name="e_wo_entrp">    -49.02492194 </i>
    <i name="e_0_energy">    -49.01869310 </i>
   </energy>
  </scstep>
  <scstep>
   <time name="diag">    1.09    1.09</time>
   <time name="diis">    7.24    7.24</time>
   <time name="orth">    0.05    0.05</time>
   <time name="total">   10.22   10.22</time>
   <energy>
    <i name="e_fr_energy">    -49.01663115 </i>
    <i name="e_wo_entrp">    -49.02597826 </i>
    <i name="e_0_energy">    -49.01974686 </i>
   </energy>
  </scstep>
  <scstep>
   <time name="diag">    1.09    1.09</time>
   <time name="diis">    6.59    6.60</time>
   <time name="orth">    0.05    0.05</time>
   <time name="total">    9.58    9.58</time>
   <energy>
    <i name="e_fr_energy">    -49.01777166 </i>
    <i name="e_wo_entrp">    -49.02711690 </i>
    <i name="e_0_energy">    -49.02088674 </i>
   </energy>
  </scstep>
  <scstep>
   <time name="diag">    1.09    1.09</time>
   <time name="diis">    7.33    7.34</time>
   <time name="orth">    0.05    0.05</time>
   <time name="total">   10.32   10.32</time>
   <energy>
    <i name="e_fr_energy">    -49.01912184 </i>
    <i name="e_wo_entrp">    -49.02846536 </i>
    <i name="e_0_energy">    -49.02223635 </i>
   </energy>
  </scstep>
  <scstep>
   <time name="diag">    1.09    1.09</time>
   <time name="diis">    6.31    6.31</time>
   <time name="orth">    0.05    0.05</time>
   <time name="total">    9.29    9.30</time>
   <energy>
    <i name="e_fr_energy">    -49.02089143 </i>
    <i name="e_wo_entrp">    -49.03023380 </i>
    <i name="e_0_energy">    -49.02400555 </i>
   </energy>
  </scstep>
  <scstep>
   <time name="diag">    1.09    1.09</time>
   <time name="diis">    7.00    7.01</time>
   <time name="orth">    0.05    0.05</time>
   <time name="total">    9.99   10.00</time>
   <energy>
    <i name="e_fr_energy">    -49.02175695 </i>
    <i name="e_wo_entrp">    -49.03109984 </i>
    <i name="e_0_energy">    -49.02487124 </i>
   </energy>
  </scstep>
  <scstep>
   <time name="diag">    1.09    1.09</time>
   <time name="diis">    7.04    7.05</time>
   <time name="orth">    0.05    0.05</time>
   <time name="total">   10.03   10.04</time>
   <energy>
    <i name="e_fr_energy">    -49.02245026 </i>
    <i name="e_wo_entrp">    -49.03179319 </i>
    <i name="e_0_energy">    -49.02556457 </i>
   </energy>
  </scstep>
  <scstep>
   <time name="diag">    1.09    1.09</time>
   <time name="diis">    6.73    6.74</time>
   <time name="orth">    0.05    0.05</time>
   <time name="total">    9.72    9.73</time>
   <energy>
    <i name="e_fr_energy">    -49.02304512 </i>
    <i name="e_wo_entrp">    -49.03238844 </i>
    <i name="e_0_energy">    -49.02615956 </i>
   </energy>
  </scstep>
  <scstep>
   <time name="diag">    1.09    1.09</time>
   <time name="diis">    6.75    6.75</time>
   <time name="orth">    0.05    0.05</time>
   <time name="total">    9.73    9.74</time>
   <energy>
    <i name="e_fr_energy">    -49.02343778 </i>
    <i name="e_wo_entrp">    -49.03278114 </i>
    <i name="e_0_energy">    -49.02655223 </i>
   </energy>
  </scstep>
  <scstep>
   <time name="diag">    1.09    1.09</time>
   <time name="diis">    6.78    6.79</time>
   <time name="orth">    0.05    0.05</time>
   <time name="total">    9.77    9.78</time>
   <energy>
    <i name="e_fr_energy">    -49.02369550 </i>
    <i name="e_wo_entrp">    -49.03303864 </i>
    <i name="e_0_energy">    -49.02680988 </i>
   </energy>
  </scstep>
  <scstep>
   <time name="diag">    1.09    1.09</time>
   <time name="diis">    6.82    6.83</time>
   <time name="orth">    0.05    0.05</time>
   <time name="total">    9.81    9.82</time>
   <energy>
    <i name="e_fr_energy">    -49.02384282 </i>
    <i name="e_wo_entrp">    -49.03318600 </i>
    <i name="e_0_energy">    -49.02695722 </i>
   </energy>
  </scstep>
  <scstep>
   <time name="diag">    1.09    1.09</time>
   <time name="diis">    6.57    6.57</time>
   <time name="orth">    0.05    0.05</time>
   <time name="total">    9.56    9.57</time>
   <energy>
    <i name="e_fr_energy">    -49.02393396 </i>
    <i name="e_wo_entrp">    -49.03327713 </i>
    <i name="e_0_energy">    -49.02704835 </i>
   </energy>
  </scstep>
  <scstep>
   <time name="diag">    1.09    1.09</time>
   <time name="diis">    6.47    6.48</time>
   <time name="orth">    0.05    0.05</time>
   <time name="total">    9.47    9.48</time>
   <energy>
    <i name="e_fr_energy">    -49.02400066 </i>
    <i name="e_wo_entrp">    -49.03334380 </i>
    <i name="e_0_energy">    -49.02711504 </i>
   </energy>
  </scstep>
  <scstep>
   <time name="diag">    1.09    1.09</time>
   <time name="diis">    6.31    6.32</time>
   <time name="orth">    0.05    0.05</time>
   <time name="total">    9.31    9.31</time>
   <energy>
    <i name="e_fr_energy">    -49.02403344 </i>
    <i name="e_wo_entrp">    -49.03337660 </i>
    <i name="e_0_energy">    -49.02714783 </i>
   </energy>
  </scstep>
  <scstep>
   <time name="diag">    1.09    1.09</time>
   <time name="diis">    4.81    4.81</time>
   <time name="orth">    0.05    0.05</time>
   <time name="total">    7.81    7.81</time>
   <energy>
    <i name="e_fr_energy">    -49.02404367 </i>
    <i name="e_wo_entrp">    -49.03338683 </i>
    <i name="e_0_energy">    -49.02715805 </i>
   </energy>
  </scstep>
  <scstep>
   <time name="diag">    1.09    1.09</time>
   <time name="diis">    4.37    4.39</time>
   <time name="orth">    0.05    0.05</time>
   <time name="total">    7.38    7.39</time>
   <energy>
    <i name="e_fr_energy">    -49.02404912 </i>
    <i name="e_wo_entrp">    -49.03339228 </i>
    <i name="e_0_energy">    -49.02716350 </i>
   </energy>
  </scstep>
  <scstep>
   <time name="diag">    1.09    1.09</time>
   <time name="diis">    4.27    4.27</time>
   <time name="orth">    0.05    0.05</time>
   <time name="total">    7.27    7.28</time>
   <energy>
    <i name="e_fr_energy">    -49.02405266 </i>
    <i name="e_wo_entrp">    -49.03339582 </i>
    <i name="e_0_energy">    -49.02716704 </i>
   </energy>
  </scstep>
  <scstep>
   <time name="diag">    1.09    1.09</time>
   <time name="diis">    4.53    4.53</time>
   <time name="orth">    0.05    0.05</time>
   <time name="total">    7.54    7.55</time>
   <energy>
    <i name="e_fr_energy">    -49.02405428 </i>
    <i name="e_wo_entrp">    -49.03339743 </i>
    <i name="e_0_energy">    -49.02716866 </i>
   </energy>
  </scstep>
  <scstep>
   <time name="diag">    1.09    1.09</time>
   <time name="diis">    4.31    4.32</time>
   <time name="orth">    0.05    0.05</time>
   <time name="total">    7.34    7.34</time>
   <energy>
    <i name="e_fr_energy">    -49.02405503 </i>
    <i name="e_wo_entrp">    -49.03339819 </i>
    <i name="e_0_energy">    -49.02716942 </i>
   </energy>
  </scstep>
  <scstep>
   <time name="diag">    1.09    1.09</time>
   <time name="diis">    4.20    4.21</time>
   <time name="orth">    0.05    0.05</time>
   <time name="total">    7.23    7.25</time>
   <energy>
    <i name="e_fr_energy">    -49.02405574 </i>
    <i name="e_wo_entrp">    -49.03339889 </i>
    <i name="e_0_energy">    -49.02717012 </i>
   </energy>
  </scstep>
  <scstep>
   <time name="diag">    1.09    1.09</time>
   <time name="diis">    4.09    4.09</time>
   <time name="orth">    0.05    0.05</time>
   <time name="total">    7.13    7.13</time>
   <energy>
    <i name="e_fr_energy">    -49.02405614 </i>
    <i name="e_wo_entrp">    -49.03339929 </i>
    <i name="e_0_energy">    -49.02717052 </i>
   </energy>
  </scstep>
  <scstep>
   <time name="diag">    1.09    1.09</time>
   <time name="diis">    3.92    3.92</time>
   <time name="orth">    0.05    0.05</time>
   <time name="total">    6.96    6.97</time>
   <energy>
    <i name="e_fr_energy">    -49.02405655 </i>
    <i name="e_wo_entrp">    -49.03339970 </i>
    <i name="e_0_energy">    -49.02717093 </i>
   </energy>
  </scstep>
  <scstep>
   <time name="diag">    1.09    1.09</time>
   <time name="diis">    3.65    3.65</time>
   <time name="orth">    0.05    0.05</time>
   <time name="total">    6.70    6.71</time>
   <energy>
    <i name="e_fr_energy">    -49.02405679 </i>
    <i name="e_wo_entrp">    -49.03339995 </i>
    <i name="e_0_energy">    -49.02717118 </i>
   </energy>
  </scstep>
  <scstep>
   <time name="diag">    1.09    1.09</time>
   <time name="diis">    3.43    3.43</time>
   <time name="orth">    0.05    0.05</time>
   <time name="total">    6.49    6.49</time>
   <energy>
    <i name="e_fr_energy">    -49.02405694 </i>
    <i name="e_wo_entrp">    -49.03340009 </i>
    <i name="e_0_energy">    -49.02717132 </i>
   </energy>
  </scstep>
  <scstep>
   <time name="diag">    1.09    1.09</time>
   <time name="diis">    3.39    3.39</time>
   <time name="orth">    0.05    0.05</time>
   <time name="total">    5.69    5.70</time>
   <energy>
    <i name="alphaZ">     41.16232785 </i>
    <i name="ewald">  16330.60275435 </i>
    <i name="hartreedc"> -33313.45827357 </i>
    <i name="XCdc">    615.43525332 </i>
    <i name="pawpsdc">  17626.55899216 </i>
    <i name="pawaedc"> -19024.52511824 </i>
    <i name="eentropy">      0.00934316 </i>
    <i name="bandstr">   -987.02858317 </i>
    <i name="atom">  18662.21924712 </i>
    <i name="e_fr_energy">    -49.02405702 </i>
    <i name="e_wo_entrp">    -49.03340018 </i>
    <i name="e_0_energy">    -49.02717140 </i>
   </energy>
  </scstep>
  <structure>
   <crystal>
    <varray name="basis" >
     <v>      15.00000000       0.00000000       0.00000000 </v>
     <v>       0.00000000      15.00000000       0.00000000 </v>
     <v>       0.00000000       0.00000000      15.00000000 </v>
    </varray>
    <i name="volume">   3375.00000000 </i>
    <varray name="rec_basis" >
     <v>       0.06666667       0.00000000       0.00000000 </v>
     <v>       0.00000000       0.06666667       0.00000000 </v>
     <v>       0.00000000       0.00000000       0.06666667 </v>
    </varray>
   </crystal>
   <varray name="positions" >
    <v>       0.29120933       0.41915067       0.55523000 </v>
    <v>       0.37668267       0.54916933       0.48878933 </v>
    <v>       0.39462533       0.29347333       0.56405200 </v>
    <v>       0.53350400       0.50669467       0.48009000 </v>
    <v>       0.54915000       0.34468667       0.52925467 </v>
    <v>       0.44572267       0.43611400       0.61390467 </v>
    <v>       0.41739733       0.39777200       0.44743267 </v>
    <v>       0.22630000       0.56957400       0.54617333 </v>
    <v>       0.33470933       0.54471867       0.65641000 </v>
    <v>       0.35457333       0.68344667       0.56903267 </v>
    <v>       0.48860533       0.66979333       0.47661467 </v>
    <v>       0.61991933       0.47983667       0.61164200 </v>
    <v>       0.48673000       0.59224133       0.61795867 </v>
    <v>       0.73537333       0.49586733       0.65005467 </v>
    <v>       0.81159333       0.49199600       0.64032133 </v>
   </varray>
  </structure>
  <varray name="forces" >
   <v>       0.09636917       0.13776816      -0.03097619 </v>
   <v>      -0.04727166      -0.07425064       0.12654465 </v>
   <v>      -0.01231797      -0.26519570       0.10207641 </v>
   <v>      -0.04364431      -0.00139455       0.18862609 </v>
   <v>       0.01160939       0.38105196       0.07089810 </v>
   <v>       0.44834659      -0.02985682      -0.28261861 </v>
   <v>      -0.00372269       0.08496109       0.16471981 </v>
   <v>      -0.00554851       0.15572182      -0.06915063 </v>
   <v>       0.17591147       0.07861325      -0.17312081 </v>
   <v>      -0.13049845      -0.01513832       0.09852351 </v>
   <v>      -0.01834298      -0.22808133       0.17449403 </v>
   <v>      -0.45125663      -0.01457835       0.00909589 </v>
   <v>      -0.02965103      -0.06266226      -0.30024258 </v>
   <v>      -0.41541448      -0.30119630      -0.20684251 </v>
   <v>       0.42543211       0.15423800       0.12797284 </v>
  </varray>
  <varray name="stress" >
   <v>      -0.52662693      -0.37481054       0.13946308 </v>
   <v>      -0.37481055      -0.47860315      -0.09813471 </v>
   <v>       0.13946309      -0.09813471      -0.86189195 </v>
  </varray>
  <energy>
   <i name="e_fr_energy">    -49.02405702 </i>
   <i name="e_wo_entrp">    -49.02717140 </i>
   <i name="e_0_energy">      0.00934316 </i>
  </energy>
  <time name="totalsc">  344.61  344.94</time>
  <eigenvalues>
   <array>
    <dimension dim="1">band</dimension>
    <dimension dim="2">kpoint</dimension>
    <dimension dim="3">spin</dimension>
    <field>eigene</field>
    <field>occ</field>
    <set>
     <set comment="spin 1">
      <set comment="kpoint 1">
       <r>  -28.4432    1.0000 </r>
       <r>  -13.7662    1.0000 </r>
       <r>  -11.3547    1.0000 </r>
       <r>  -11.1100    1.0000 </r>
       <r>  -10.7705    1.0000 </r>
       <r>  -10.1005    1.0000 </r>
       <r>   -8.5852    1.0000 </r>
       <r>   -8.1749    1.0000 </r>
       <r>   -7.6684    1.0000 </r>
       <r>   -7.4641    1.0000 </r>
       <r>   -7.4011    1.0000 </r>
       <r>   -7.2782    1.0000 </r>
       <r>   -7.2336    1.0000 </r>
       <r>   -7.0797    1.0000 </r>
       <r>   -6.9858    1.0000 </r>
       <r>   -6.8784    1.0000 </r>
       <r>   -6.7869    1.0000 </r>
       <r>   -6.7404    1.0000 </r>
       <r>   -6.6955    1.0000 </r>
       <r>   -6.5987    1.0000 </r>
       <r>   -6.5759    1.0000 </r>
       <r>   -6.5292    1.0000 </r>
       <r>   -6.4825    1.0000 </r>
       <r>   -6.4263    1.0000 </r>
       <r>   -6.4055    1.0000 </r>
       <r>   -6.3875    1.0000 </r>
       <r>   -6.3211    1.0000 </r>
       <r>   -6.2789    1.0000 </r>
       <r>   -6.2371    1.0000 </r>
       <r>   -6.2181    1.0000 </r>
       <r>   -6.1635    1.0000 </r>
       <r>   -6.1283    1.0000 </r>
       <r>   -6.0642    1.0000 </r>
       <r>   -6.0161    1.0000 </r>
       <r>   -5.8853    1.0000 </r>
       <r>   -5.8109    1.0000 </r>
       <r>   -5.7856    1.0000 </r>
       <r>   -5.6951    1.0000 </r>
       <r>   -5.6734    1.0000 </r>
       <r>   -5.6431    1.0000 </r>
       <r>   -5.5736    1.0000 </r>
       <r>   -5.5474    1.0000 </r>
       <r>   -5.5197    1.0000 </r>
       <r>   -5.4750    1.0000 </r>
       <r>   -5.4540    1.0000 </r>
       <r>   -5.4139    1.0000 </r>
       <r>   -5.3850    1.0000 </r>
       <r>   -5.3535    1.0000 </r>
       <r>   -5.3458    1.0000 </r>
       <r>   -5.3194    1.0000 </r>
       <r>   -5.3167    1.0000 </r>
       <r>   -5.2708    1.0000 </r>
       <r>   -5.2619    1.0000 </r>
       <r>   -5.2412    1.0000 </r>
       <r>   -5.2089    1.0000 </r>
       <r>   -5.1788    1.0000 </r>
       <r>   -5.1679    1.0000 </r>
       <r>   -5.1448    1.0000 </r>
       <r>   -5.1173    1.0000 </r>
       <r>   -5.0840    1.0000 </r>
       <r>   -5.0606    1.0000 </r>
       <r>   -5.0097    1.0000 </r>
       <r>   -5.0062    1.0000 </r>
       <r>   -4.9958    1.0000 </r>
       <r>   -4.9364    1.0000 </r>
       <r>   -4.9279    1.0000 </r>
       <r>   -4.8982    1.0000 </r>
       <r>   -4.8810    1.0000 </r>
       <r>   -4.8637    1.0000 </r>
       <r>   -4.8299    1.0000 </r>
       <r>   -4.8066    1.0000 </r>
       <r>   -4.7825    1.0000 </r>
       <r>   -4.7319    1.0000 </r>
       <r>   -4.5373    1.0000 </r>
       <r>   -4.2073    1.0000 </r>
       <r>   -4.1381    1.0000 </r>
       <r>   -3.5320    1.0000 </r>
       <r>   -3.0204   -0.0000 </r>
       <r>   -2.8433   -0.0000 </r>
       <r>   -2.5537   -0.0000 </r>
       <r>   -2.3263   -0.0000 </r>
       <r>   -1.9734   -0.0000 </r>
       <r>   -1.9075   -0.0000 </r>
       <r>   -1.7576   -0.0000 </r>
       <r>   -1.3863   -0.0000 </r>
       <r>   -1.0407   -0.0000 </r>
       <r>   -0.9418   -0.0000 </r>
       <r>   -0.7097    0.0000 </r>
       <r>   -0.4335    0.0000 </r>
       <r>   -0.2786    0.0000 </r>
       <r>   -0.1367    0.0000 </r>
       <r>    0.1163    0.0000 </r>
      </set>
     </set>
     <set comment="spin 2">
      <set comment="kpoint 1">
       <r>  -28.4175    1.0000 </r>
       <r>  -13.7222    1.0000 </r>
       <r>  -11.3161    1.0000 </r>
       <r>  -11.0803    1.0000 </r>
       <r>  -10.7039    1.0000 </r>
       <r>  -10.0586    1.0000 </r>
       <r>   -8.5626    1.0000 </r>
       <r>   -8.1268    1.0000 </r>
       <r>   -7.6265    1.0000 </r>
       <r>   -7.4450    1.0000 </r>
       <r>   -7.3732    1.0000 </r>
       <r>   -7.2348    1.0000 </r>
       <r>   -7.1976    1.0000 </r>
       <r>   -7.0524    1.0000 </r>
       <r>   -6.9577    1.0000 </r>
       <r>   -6.8457    1.0000 </r>
       <r>   -6.7589    1.0000 </r>
       <r>   -6.7144    1.0000 </r>
       <r>   -6.6628    1.0000 </r>
       <r>   -6.5752    1.0000 </r>
       <r>   -6.5569    1.0000 </r>
       <r>   -6.5070    1.0000 </r>
       <r>   -6.4557    1.0000 </r>
       <r>   -6.4059    1.0000 </r>
       <r>   -6.3802    1.0000 </r>
       <r>   -6.3567    1.0000 </r>
       <r>   -6.2989    1.0000 </r>
       <r>   -6.2536    1.0000 </r>
       <r>   -6.2118    1.0000 </r>
       <r>   -6.1972    1.0000 </r>
       <r>   -6.1400    1.0000 </r>
       <r>   -6.0971    1.0000 </r>
       <r>   -6.0356    1.0000 </r>
       <r>   -5.9986    1.0000 </r>
       <r>   -5.8615    1.0000 </r>
       <r>   -5.7862    1.0000 </r>
       <r>   -5.7563    1.0000 </r>
       <r>   -5.6712    1.0000 </r>
       <r>   -5.6526    1.0000 </r>
       <r>   -5.6157    1.0000 </r>
       <r>   -5.5515    1.0000 </r>
       <r>   -5.5241    1.0000 </r>
       <r>   -5.4890    1.0000 </r>
       <r>   -5.4493    1.0000 </r>
       <r>   -5.4315    1.0000 </r>
       <r>   -5.3812    1.0000 </r>
       <r>   -5.3579    1.0000 </r>
       <r>   -5.3248    1.0000 </r>
       <r>   -5.3236    1.0000 </r>
       <r>   -5.2944    1.0000 </r>
       <r>   -5.2887    1.0000 </r>
       <r>   -5.2483    1.0000 </r>
       <r>   -5.2387    1.0000 </r>
       <r>   -5.2146    1.0000 </r>
       <r>   -5.1802    1.0000 </r>
       <r>   -5.1545    1.0000 </r>
       <r>   -5.1463    1.0000 </r>
       <r>   -5.1284    1.0000 </r>
       <r>   -5.0942    1.0000 </r>
       <r>   -5.0544    1.0000 </r>
       <r>   -5.0357    1.0000 </r>
       <r>   -4.9927    1.0000 </r>
       <r>   -4.9867    1.0000 </r>
       <r>   -4.9637    1.0000 </r>
       <r>   -4.9129    1.0000 </r>
       <r>   -4.8995    1.0000 </r>
       <r>   -4.8760    1.0000 </r>
       <r>   -4.8414    1.0000 </r>
       <r>   -4.8299    1.0000 </r>
       <r>   -4.8000    1.0000 </r>
       <r>   -4.7702    1.0000 </r>
       <r>   -4.7591    1.0000 </r>
       <r>   -4.7036    1.0000 </r>
       <r>   -4.4932    1.0000 </r>
       <r>   -4.1476    1.0353 </r>
       <r>   -4.0996    0.9647 </r>
       <r>   -3.3254   -0.0000 </r>
       <r>   -2.9682   -0.0000 </r>
       <r>   -2.7906   -0.0000 </r>
       <r>   -2.4762   -0.0000 </r>
       <r>   -2.2284   -0.0000 </r>
       <r>   -1.9389   -0.0000 </r>
       <r>   -1.8372   -0.0000 </r>
       <r>   -1.6795   -0.0000 </r>
       <r>   -1.2662    0.0000 </r>
       <r>   -0.9518    0.0000 </r>
       <r>   -0.8331    0.0000 </r>
       <r>   -0.6339    0.0000 </r>
       <r>   -0.3355    0.0000 </r>
       <r>   -0.2229    0.0000 </r>
       <r>   -0.0728    0.0000 </r>
       <r>    0.1584    0.0000 </r>
      </set>
     </set>
    </set>
   </array>
  </eigenvalues>
  <separator name="orbital magnetization" >
   <v name="MAGDIPOLOUT">      0.00000000      0.00000000      0.00000000</v>
  </separator>
  <dos>
   <i name="efermi">     -4.02822293 </i>
   <total>
    <array>
     <dimension dim="1">gridpoints</dimension>
     <dimension dim="2">spin</dimension>
     <field>energy</field>
     <field>total</field>
     <field>integrated</field>
     <set>
      <set comment="spin 1">
       <r>   -29.8733     0.0000     0.0000 </r>
       <r>   -29.7684     0.0000     0.0000 </r>
       <r>   -29.6636     0.0000     0.0000 </r>
       <r>   -29.5587     0.0000     0.0000 </r>
       <r>   -29.4538     0.0000     0.0000 </r>
       <r>   -29.3489     0.0000     0.0000 </r>
       <r>   -29.2441    -0.0000    -0.0000 </r>
       <r>   -29.1392    -0.0000    -0.0000 </r>
       <r>   -29.0343    -0.0000    -0.0000 </r>
       <r>   -28.9295    -0.0000    -0.0000 </r>
       <r>   -28.8246    -0.0000    -0.0000 </r>
       <r>   -28.7197    -0.0062    -0.0007 </r>
       <r>   -28.6148    -0.3342    -0.0357 </r>
       <r>   -28.5100     1.3328     0.1041 </r>
       <r>   -28.4051    14.2296     1.5964 </r>
       <r>   -28.3002     4.4328     2.0612 </r>
       <r>   -28.1953    -0.5597     2.0025 </r>
       <r>   -28.0905    -0.0242     2.0000 </r>
       <r>   -27.9856    -0.0001     2.0000 </r>
       <r>   -27.8807    -0.0000     2.0000 </r>
       <r>   -27.7759    -0.0000     2.0000 </r>
       <r>   -27.6710     0.0000     2.0000 </r>
       <r>   -27.5661     0.0000     2.0000 </r>
       <r>   -27.4612     0.0000     2.0000 </r>
       <r>   -27.3564     0.0000     2.0000 </r>
       <r>   -27.2515     0.0000     2.0000 </r>
       <r>   -27.1466     0.0000     2.0000 </r>
       <r>   -27.0417     0.0000     2.0000 </r>
       <r>   -26.9369     0.0000     2.0000 </r>
       <r>   -26.8320     0.0000     2.0000 </r>
       <r>   -26.7271     0.0000     2.0000 </r>
       <r>   -26.6223     0.0000     2.0000 </r>
       <r>   -26.5174     0.0000     2.0000 </r>
       <r>   -26.4125     0.0000     2.0000 </r>
       <r>   -26.3076     0.0000     2.0000 </r>
       <r>   -26.2028     0.0000     2.0000 </r>
       <r>   -26.0979     0.0000     2.0000 </r>
       <r>   -25.9930     0.0000     2.0000 </r>
       <r>   -25.8881     0.0000     2.0000 </r>
       <r>   -25.7833     0.0000     2.0000 </r>
       <r>   -25.6784     0.0000     2.0000 </r>
       <r>   -25.5735     0.0000     2.0000 </r>
       <r>   -25.4687     0.0000     2.0000 </r>
       <r>   -25.3638     0.0000     2.0000 </r>
       <r>   -25.2589     0.0000     2.0000 </r>
       <r>   -25.1540     0.0000     2.0000 </r>
       <r>   -25.0492     0.0000     2.0000 </r>
       <r>   -24.9443     0.0000     2.0000 </r>
       <r>   -24.8394     0.0000     2.0000 </r>
       <r>   -24.7345     0.0000     2.0000 </r>
       <r>   -24.6297     0.0000     2.0000 </r>
       <r>   -24.5248     0.0000     2.0000 </r>
       <r>   -24.4199     0.0000     2.0000 </r>
       <r>   -24.3151     0.0000     2.0000 </r>
       <r>   -24.2102     0.0000     2.0000 </r>
       <r>   -24.1053     0.0000     2.0000 </r>
       <r>   -24.0004     0.0000     2.0000 </r>
       <r>   -23.8956     0.0000     2.0000 </r>
       <r>   -23.7907     0.0000     2.0000 </r>
       <r>   -23.6858     0.0000     2.0000 </r>
       <r>   -23.5809     0.0000     2.0000 </r>
       <r>   -23.4761     0.0000     2.0000 </r>
       <r>   -23.3712     0.0000     2.0000 </r>
       <r>   -23.2663     0.0000     2.0000 </r>
       <r>   -23.1615     0.0000     2.0000 </r>
       <r>   -23.0566     0.0000     2.0000 </r>
       <r>   -22.9517     0.0000     2.0000 </r>
       <r>   -22.8468     0.0000     2.0000 </r>
       <r>   -22.7420     0.0000     2.0000 </r>
       <r>   -22.6371     0.0000     2.0000 </r>
       <r>   -22.5322     0.0000     2.0000 </r>
       <r>   -22.4273     0.0000     2.0000 </r>
       <r>   -22.3225     0.0000     2.0000 </r>
       <r>   -22.2176     0.0000     2.0000 </r>
       <r>   -22.1127     0.0000     2.0000 </r>
       <r>   -22.0079     0.0000     2.0000 </r>
       <r>   -21.9030     0.0000     2.0000 </r>
       <r>   -21.7981     0.0000     2.0000 </r>
       <r>   -21.6932     0.0000     2.0000 </r>
       <r>   -21.5884     0.0000     2.0000 </r>
       <r>   -21.4835     0.0000     2.0000 </r>
       <r>   -21.3786     0.0000     2.0000 </r>
       <r>   -21.2737     0.0000     2.0000 </r>
       <r>   -21.1689     0.0000     2.0000 </r>
       <r>   -21.0640     0.0000     2.0000 </r>
       <r>   -20.9591     0.0000     2.0000 </r>
       <r>   -20.8543     0.0000     2.0000 </r>
       <r>   -20.7494     0.0000     2.0000 </r>
       <r>   -20.6445     0.0000     2.0000 </r>
       <r>   -20.5396     0.0000     2.0000 </r>
       <r>   -20.4348     0.0000     2.0000 </r>
       <r>   -20.3299     0.0000     2.0000 </r>
       <r>   -20.2250     0.0000     2.0000 </r>
       <r>   -20.1201     0.0000     2.0000 </r>
       <r>   -20.0153     0.0000     2.0000 </r>
       <r>   -19.9104     0.0000     2.0000 </r>
       <r>   -19.8055     0.0000     2.0000 </r>
       <r>   -19.7007     0.0000     2.0000 </r>
       <r>   -19.5958     0.0000     2.0000 </r>
       <r>   -19.4909     0.0000     2.0000 </r>
       <r>   -19.3860     0.0000     2.0000 </r>
       <r>   -19.2812     0.0000     2.0000 </r>
       <r>   -19.1763     0.0000     2.0000 </r>
       <r>   -19.0714     0.0000     2.0000 </r>
       <r>   -18.9665     0.0000     2.0000 </r>
       <r>   -18.8617     0.0000     2.0000 </r>
       <r>   -18.7568     0.0000     2.0000 </r>
       <r>   -18.6519     0.0000     2.0000 </r>
       <r>   -18.5471     0.0000     2.0000 </r>
       <r>   -18.4422     0.0000     2.0000 </r>
       <r>   -18.3373     0.0000     2.0000 </r>
       <r>   -18.2324     0.0000     2.0000 </r>
       <r>   -18.1276     0.0000     2.0000 </r>
       <r>   -18.0227     0.0000     2.0000 </r>
       <r>   -17.9178     0.0000     2.0000 </r>
       <r>   -17.8129     0.0000     2.0000 </r>
       <r>   -17.7081     0.0000     2.0000 </r>
       <r>   -17.6032     0.0000     2.0000 </r>
       <r>   -17.4983     0.0000     2.0000 </r>
       <r>   -17.3935     0.0000     2.0000 </r>
       <r>   -17.2886     0.0000     2.0000 </r>
       <r>   -17.1837     0.0000     2.0000 </r>
       <r>   -17.0788     0.0000     2.0000 </r>
       <r>   -16.9740     0.0000     2.0000 </r>
       <r>   -16.8691     0.0000     2.0000 </r>
       <r>   -16.7642     0.0000     2.0000 </r>
       <r>   -16.6593     0.0000     2.0000 </r>
       <r>   -16.5545     0.0000     2.0000 </r>
       <r>   -16.4496     0.0000     2.0000 </r>
       <r>   -16.3447     0.0000     2.0000 </r>
       <r>   -16.2399     0.0000     2.0000 </r>
       <r>   -16.1350     0.0000     2.0000 </r>
       <r>   -16.0301     0.0000     2.0000 </r>
       <r>   -15.9252     0.0000     2.0000 </r>
       <r>   -15.8204     0.0000     2.0000 </r>
       <r>   -15.7155     0.0000     2.0000 </r>
       <r>   -15.6106     0.0000     2.0000 </r>
       <r>   -15.5057     0.0000     2.0000 </r>
       <r>   -15.4009     0.0000     2.0000 </r>
       <r>   -15.2960     0.0000     2.0000 </r>
       <r>   -15.1911     0.0000     2.0000 </r>
       <r>   -15.0863     0.0000     2.0000 </r>
       <r>   -14.9814     0.0000     2.0000 </r>
       <r>   -14.8765     0.0000     2.0000 </r>
       <r>   -14.7716     0.0000     2.0000 </r>
       <r>   -14.6668    -0.0000     2.0000 </r>
       <r>   -14.5619    -0.0000     2.0000 </r>
       <r>   -14.4570    -0.0000     2.0000 </r>
       <r>   -14.3521    -0.0000     2.0000 </r>
       <r>   -14.2473    -0.0000     2.0000 </r>
       <r>   -14.1424    -0.0000     2.0000 </r>
       <r>   -14.0375    -0.0081     1.9992 </r>
       <r>   -13.9327    -0.3759     1.9597 </r>
       <r>   -13.8278     1.7802     2.1464 </r>
       <r>   -13.7229    14.4580     3.6627 </r>
       <r>   -13.6180     3.7589     4.0569 </r>
       <r>   -13.5132    -0.5232     4.0020 </r>
       <r>   -13.4083    -0.0192     4.0000 </r>
       <r>   -13.3034    -0.0000     4.0000 </r>
       <r>   -13.1985    -0.0000     4.0000 </r>
       <r>   -13.0937    -0.0000     4.0000 </r>
       <r>   -12.9888     0.0000     4.0000 </r>
       <r>   -12.8839     0.0000     4.0000 </r>
       <r>   -12.7791     0.0000     4.0000 </r>
       <r>   -12.6742     0.0000     4.0000 </r>
       <r>   -12.5693     0.0000     4.0000 </r>
       <r>   -12.4644     0.0000     4.0000 </r>
       <r>   -12.3596     0.0000     4.0000 </r>
       <r>   -12.2547    -0.0000     4.0000 </r>
       <r>   -12.1498    -0.0000     4.0000 </r>
       <r>   -12.0449    -0.0000     4.0000 </r>
       <r>   -11.9401    -0.0000     4.0000 </r>
       <r>   -11.8352    -0.0000     4.0000 </r>
       <r>   -11.7303    -0.0000     4.0000 </r>
       <r>   -11.6255    -0.0083     3.9991 </r>
       <r>   -11.5206    -0.3804     3.9592 </r>
       <r>   -11.4157     1.8288     4.1510 </r>
       <r>   -11.3108    14.3289     5.6537 </r>
       <r>   -11.2060     3.4513     6.0157 </r>
       <r>   -11.1011    10.8420     7.1527 </r>
       <r>   -10.9962     8.6699     8.0619 </r>
       <r>   -10.8913    -1.1865     7.9375 </r>
       <r>   -10.7865     7.5864     8.7331 </r>
       <r>   -10.6816    12.2595    10.0188 </r>
       <r>   -10.5767     0.0063    10.0195 </r>
       <r>   -10.4719    -0.1837    10.0002 </r>
       <r>   -10.3670    -0.0122     9.9989 </r>
       <r>   -10.2621    -0.4156     9.9553 </r>
       <r>   -10.1572     2.2424    10.1905 </r>
       <r>   -10.0524    14.5803    11.7196 </r>
       <r>    -9.9475     3.1752    12.0526 </r>
       <r>    -9.8426    -0.4859    12.0016 </r>
       <r>    -9.7377    -0.0154    12.0000 </r>
       <r>    -9.6329    -0.0000    12.0000 </r>
       <r>    -9.5280    -0.0000    12.0000 </r>
       <r>    -9.4231    -0.0000    12.0000 </r>
       <r>    -9.3183    -0.0000    12.0000 </r>
       <r>    -9.2134    -0.0000    12.0000 </r>
       <r>    -9.1085    -0.0000    12.0000 </r>
       <r>    -9.0036    -0.0000    12.0000 </r>
       <r>    -8.8988    -0.0008    11.9999 </r>
       <r>    -8.7939    -0.1134    11.9880 </r>
       <r>    -8.6890    -0.4314    11.9428 </r>
       <r>    -8.5841    10.2590    13.0187 </r>
       <r>    -8.4793     9.9332    14.0604 </r>
       <r>    -8.3744    -0.6252    13.9948 </r>
       <r>    -8.2695    -0.3043    13.9629 </r>
       <r>    -8.1647    11.5370    15.1728 </r>
       <r>    -8.0598     8.5461    16.0691 </r>
       <r>    -7.9549    -0.5867    16.0076 </r>
       <r>    -7.8500    -0.3348    15.9724 </r>
       <r>    -7.7452     0.6127    16.0367 </r>
       <r>    -7.6403    13.1856    17.4195 </r>
       <r>    -7.5354     6.2052    18.0703 </r>
       <r>    -7.4305    18.3292    19.9925 </r>
       <r>    -7.3257    21.7627    22.2748 </r>
       <r>    -7.2208    25.9335    24.9945 </r>
       <r>    -7.1159    14.0676    26.4698 </r>
       <r>    -7.0111    18.6824    28.4291 </r>
       <r>    -6.9062    19.1686    30.4394 </r>
       <r>    -6.8013    22.6851    32.8184 </r>
       <r>    -6.6964    35.4832    36.5396 </r>
       <r>    -6.5916    32.8747    39.9873 </r>
       <r>    -6.4867    45.4045    44.7490 </r>
       <r>    -6.3818    52.7840    50.2846 </r>
       <r>    -6.2769    48.0952    55.3285 </r>
       <r>    -6.1721    52.0328    60.7853 </r>
       <r>    -6.0672    41.7451    65.1632 </r>
       <r>    -5.9623    25.5445    67.8421 </r>
       <r>    -5.8575    18.6603    69.7991 </r>
       <r>    -5.7526    35.4257    73.5143 </r>
       <r>    -5.6477    43.1065    78.0350 </r>
       <r>    -5.5428    49.9423    83.2726 </r>
       <r>    -5.4380    59.8804    89.5524 </r>
       <r>    -5.3331    80.0632    97.9488 </r>
       <r>    -5.2282    91.9914   107.5962 </r>
       <r>    -5.1233    82.4024   116.2380 </r>
       <r>    -5.0185    72.3057   123.8209 </r>
       <r>    -4.9136    79.1529   132.1219 </r>
       <r>    -4.8087    83.4219   140.8705 </r>
       <r>    -4.7039    45.3064   145.6220 </r>
       <r>    -4.5990     6.0728   146.2588 </r>
       <r>    -4.4941    13.4058   147.6647 </r>
       <r>    -4.3892     3.4588   148.0275 </r>
       <r>    -4.2844    -0.4629   147.9789 </r>
       <r>    -4.1795    17.4791   149.8120 </r>
       <r>    -4.0746    20.2740   151.9382 </r>
       <r>    -3.9697     0.9947   152.0425 </r>
       <r>    -3.8649    -0.3981   152.0008 </r>
       <r>    -3.7600    -0.0629   151.9942 </r>
       <r>    -3.6551    -0.6204   151.9291 </r>
       <r>    -3.5503     7.3174   152.6965 </r>
       <r>    -3.4454    12.5262   154.0101 </r>
       <r>    -3.3405     0.1015   154.0208 </r>
       <r>    -3.2356    -0.2864   153.9908 </r>
       <r>    -3.1308    -0.5411   153.9340 </r>
       <r>    -3.0259     9.0219   154.8802 </r>
       <r>    -2.9210    11.4476   156.0807 </r>
       <r>    -2.8161    13.0875   157.4532 </r>
       <r>    -2.7113     5.4065   158.0202 </r>
       <r>    -2.6064     2.0419   158.2344 </r>
       <r>    -2.5015    14.2700   159.7309 </r>
       <r>    -2.3967     3.7740   160.1267 </r>
       <r>    -2.2918    13.5599   161.5487 </r>
       <r>    -2.1869     4.8116   162.0534 </r>
       <r>    -2.0820    -1.4069   161.9058 </r>
       <r>    -1.9772    10.5286   163.0100 </r>
       <r>    -1.8723    24.1276   165.5403 </r>
       <r>    -1.7674    13.0712   166.9111 </r>
       <r>    -1.6625    10.7710   168.0407 </r>
       <r>    -1.5577    -0.5779   167.9801 </r>
       <r>    -1.4528     1.2037   168.1063 </r>
       <r>    -1.3479    14.2416   169.5999 </r>
       <r>    -1.2431     4.2541   170.0460 </r>
       <r>    -1.1382    -1.0113   169.9400 </r>
       <r>    -1.0333    11.0352   171.0973 </r>
       <r>    -0.9284    20.8466   173.2835 </r>
       <r>    -0.8236     6.9351   174.0108 </r>
       <r>    -0.7187     8.0470   174.8547 </r>
       <r>    -0.6138    11.0342   176.0119 </r>
       <r>    -0.5089     0.4170   176.0556 </r>
       <r>    -0.4041    12.8579   177.4041 </r>
       <r>    -0.2992    12.1940   178.6829 </r>
       <r>    -0.1943    14.3331   180.1860 </r>
       <r>    -0.0895    14.6132   181.7186 </r>
       <r>     0.0154     2.6996   182.0017 </r>
       <r>     0.1203    10.1856   183.0699 </r>
       <r>     0.2252     9.4808   184.0641 </r>
       <r>     0.3300    -0.5164   184.0100 </r>
       <r>     0.4349    -0.0947   184.0001 </r>
       <r>     0.5398    -0.0006   184.0000 </r>
       <r>     0.6447    -0.0000   184.0000 </r>
       <r>     0.7495    -0.0000   184.0000 </r>
       <r>     0.8544     0.0000   184.0000 </r>
       <r>     0.9593     0.0000   184.0000 </r>
       <r>     1.0641     0.0000   184.0000 </r>
       <r>     1.1690     0.0000   184.0000 </r>
       <r>     1.2739     0.0000   184.0000 </r>
       <r>     1.3788     0.0000   184.0000 </r>
       <r>     1.4836     0.0000   184.0000 </r>
       <r>     1.5885     0.0000   184.0000 </r>
      </set>
      <set comment="spin 2">
       <r>   -29.8733     0.0000     0.0000 </r>
       <r>   -29.7684     0.0000     0.0000 </r>
       <r>   -29.6636     0.0000     0.0000 </r>
       <r>   -29.5587     0.0000     0.0000 </r>
       <r>   -29.4538     0.0000     0.0000 </r>
       <r>   -29.3489     0.0000     0.0000 </r>
       <r>   -29.2441    -0.0000    -0.0000 </r>
       <r>   -29.1392    -0.0000    -0.0000 </r>
       <r>   -29.0343    -0.0000    -0.0000 </r>
       <r>   -28.9295    -0.0000    -0.0000 </r>
       <r>   -28.8246    -0.0000    -0.0000 </r>
       <r>   -28.7197    -0.0016    -0.0002 </r>
       <r>   -28.6148    -0.1645    -0.0174 </r>
       <r>   -28.5100    -0.1281    -0.0308 </r>
       <r>   -28.4051    11.8165     1.2084 </r>
       <r>   -28.3002     8.2160     2.0700 </r>
       <r>   -28.1953    -0.5979     2.0073 </r>
       <r>   -28.0905    -0.0695     2.0000 </r>
       <r>   -27.9856    -0.0004     2.0000 </r>
       <r>   -27.8807    -0.0000     2.0000 </r>
       <r>   -27.7759    -0.0000     2.0000 </r>
       <r>   -27.6710     0.0000     2.0000 </r>
       <r>   -27.5661     0.0000     2.0000 </r>
       <r>   -27.4612     0.0000     2.0000 </r>
       <r>   -27.3564     0.0000     2.0000 </r>
       <r>   -27.2515     0.0000     2.0000 </r>
       <r>   -27.1466     0.0000     2.0000 </r>
       <r>   -27.0417     0.0000     2.0000 </r>
       <r>   -26.9369     0.0000     2.0000 </r>
       <r>   -26.8320     0.0000     2.0000 </r>
       <r>   -26.7271     0.0000     2.0000 </r>
       <r>   -26.6223     0.0000     2.0000 </r>
       <r>   -26.5174     0.0000     2.0000 </r>
       <r>   -26.4125     0.0000     2.0000 </r>
       <r>   -26.3076     0.0000     2.0000 </r>
       <r>   -26.2028     0.0000     2.0000 </r>
       <r>   -26.0979     0.0000     2.0000 </r>
       <r>   -25.9930     0.0000     2.0000 </r>
       <r>   -25.8881     0.0000     2.0000 </r>
       <r>   -25.7833     0.0000     2.0000 </r>
       <r>   -25.6784     0.0000     2.0000 </r>
       <r>   -25.5735     0.0000     2.0000 </r>
       <r>   -25.4687     0.0000     2.0000 </r>
       <r>   -25.3638     0.0000     2.0000 </r>
       <r>   -25.2589     0.0000     2.0000 </r>
       <r>   -25.1540     0.0000     2.0000 </r>
       <r>   -25.0492     0.0000     2.0000 </r>
       <r>   -24.9443     0.0000     2.0000 </r>
       <r>   -24.8394     0.0000     2.0000 </r>
       <r>   -24.7345     0.0000     2.0000 </r>
       <r>   -24.6297     0.0000     2.0000 </r>
       <r>   -24.5248     0.0000     2.0000 </r>
       <r>   -24.4199     0.0000     2.0000 </r>
       <r>   -24.3151     0.0000     2.0000 </r>
       <r>   -24.2102     0.0000     2.0000 </r>
       <r>   -24.1053     0.0000     2.0000 </r>
       <r>   -24.0004     0.0000     2.0000 </r>
       <r>   -23.8956     0.0000     2.0000 </r>
       <r>   -23.7907     0.0000     2.0000 </r>
       <r>   -23.6858     0.0000     2.0000 </r>
       <r>   -23.5809     0.0000     2.0000 </r>
       <r>   -23.4761     0.0000     2.0000 </r>
       <r>   -23.3712     0.0000     2.0000 </r>
       <r>   -23.2663     0.0000     2.0000 </r>
       <r>   -23.1615     0.0000     2.0000 </r>
       <r>   -23.0566     0.0000     2.0000 </r>
       <r>   -22.9517     0.0000     2.0000 </r>
       <r>   -22.8468     0.0000     2.0000 </r>
       <r>   -22.7420     0.0000     2.0000 </r>
       <r>   -22.6371     0.0000     2.0000 </r>
       <r>   -22.5322     0.0000     2.0000 </r>
       <r>   -22.4273     0.0000     2.0000 </r>
       <r>   -22.3225     0.0000     2.0000 </r>
       <r>   -22.2176     0.0000     2.0000 </r>
       <r>   -22.1127     0.0000     2.0000 </r>
       <r>   -22.0079     0.0000     2.0000 </r>
       <r>   -21.9030     0.0000     2.0000 </r>
       <r>   -21.7981     0.0000     2.0000 </r>
       <r>   -21.6932     0.0000     2.0000 </r>
       <r>   -21.5884     0.0000     2.0000 </r>
       <r>   -21.4835     0.0000     2.0000 </r>
       <r>   -21.3786     0.0000     2.0000 </r>
       <r>   -21.2737     0.0000     2.0000 </r>
       <r>   -21.1689     0.0000     2.0000 </r>
       <r>   -21.0640     0.0000     2.0000 </r>
       <r>   -20.9591     0.0000     2.0000 </r>
       <r>   -20.8543     0.0000     2.0000 </r>
       <r>   -20.7494     0.0000     2.0000 </r>
       <r>   -20.6445     0.0000     2.0000 </r>
       <r>   -20.5396     0.0000     2.0000 </r>
       <r>   -20.4348     0.0000     2.0000 </r>
       <r>   -20.3299     0.0000     2.0000 </r>
       <r>   -20.2250     0.0000     2.0000 </r>
       <r>   -20.1201     0.0000     2.0000 </r>
       <r>   -20.0153     0.0000     2.0000 </r>
       <r>   -19.9104     0.0000     2.0000 </r>
       <r>   -19.8055     0.0000     2.0000 </r>
       <r>   -19.7007     0.0000     2.0000 </r>
       <r>   -19.5958     0.0000     2.0000 </r>
       <r>   -19.4909     0.0000     2.0000 </r>
       <r>   -19.3860     0.0000     2.0000 </r>
       <r>   -19.2812     0.0000     2.0000 </r>
       <r>   -19.1763     0.0000     2.0000 </r>
       <r>   -19.0714     0.0000     2.0000 </r>
       <r>   -18.9665     0.0000     2.0000 </r>
       <r>   -18.8617     0.0000     2.0000 </r>
       <r>   -18.7568     0.0000     2.0000 </r>
       <r>   -18.6519     0.0000     2.0000 </r>
       <r>   -18.5471     0.0000     2.0000 </r>
       <r>   -18.4422     0.0000     2.0000 </r>
       <r>   -18.3373     0.0000     2.0000 </r>
       <r>   -18.2324     0.0000     2.0000 </r>
       <r>   -18.1276     0.0000     2.0000 </r>
       <r>   -18.0227     0.0000     2.0000 </r>
       <r>   -17.9178     0.0000     2.0000 </r>
       <r>   -17.8129     0.0000     2.0000 </r>
       <r>   -17.7081     0.0000     2.0000 </r>
       <r>   -17.6032     0.0000     2.0000 </r>
       <r>   -17.4983     0.0000     2.0000 </r>
       <r>   -17.3935     0.0000     2.0000 </r>
       <r>   -17.2886     0.0000     2.0000 </r>
       <r>   -17.1837     0.0000     2.0000 </r>
       <r>   -17.0788     0.0000     2.0000 </r>
       <r>   -16.9740     0.0000     2.0000 </r>
       <r>   -16.8691     0.0000     2.0000 </r>
       <r>   -16.7642     0.0000     2.0000 </r>
       <r>   -16.6593     0.0000     2.0000 </r>
       <r>   -16.5545     0.0000     2.0000 </r>
       <r>   -16.4496     0.0000     2.0000 </r>
       <r>   -16.3447     0.0000     2.0000 </r>
       <r>   -16.2399     0.0000     2.0000 </r>
       <r>   -16.1350     0.0000     2.0000 </r>
       <r>   -16.0301     0.0000     2.0000 </r>
       <r>   -15.9252     0.0000     2.0000 </r>
       <r>   -15.8204     0.0000     2.0000 </r>
       <r>   -15.7155     0.0000     2.0000 </r>
       <r>   -15.6106     0.0000     2.0000 </r>
       <r>   -15.5057     0.0000     2.0000 </r>
       <r>   -15.4009     0.0000     2.0000 </r>
       <r>   -15.2960     0.0000     2.0000 </r>
       <r>   -15.1911     0.0000     2.0000 </r>
       <r>   -15.0863     0.0000     2.0000 </r>
       <r>   -14.9814     0.0000     2.0000 </r>
       <r>   -14.8765     0.0000     2.0000 </r>
       <r>   -14.7716     0.0000     2.0000 </r>
       <r>   -14.6668     0.0000     2.0000 </r>
       <r>   -14.5619    -0.0000     2.0000 </r>
       <r>   -14.4570    -0.0000     2.0000 </r>
       <r>   -14.3521    -0.0000     2.0000 </r>
       <r>   -14.2473    -0.0000     2.0000 </r>
       <r>   -14.1424    -0.0000     2.0000 </r>
       <r>   -14.0375    -0.0007     1.9999 </r>
       <r>   -13.9327    -0.1064     1.9888 </r>
       <r>   -13.8278    -0.4648     1.9400 </r>
       <r>   -13.7229     9.9925     2.9880 </r>
       <r>   -13.6180    10.2018     4.0578 </r>
       <r>   -13.5132    -0.4390     4.0118 </r>
       <r>   -13.4083    -0.1118     4.0001 </r>
       <r>   -13.3034    -0.0008     4.0000 </r>
       <r>   -13.1985    -0.0000     4.0000 </r>
       <r>   -13.0937    -0.0000     4.0000 </r>
       <r>   -12.9888     0.0000     4.0000 </r>
       <r>   -12.8839     0.0000     4.0000 </r>
       <r>   -12.7791     0.0000     4.0000 </r>
       <r>   -12.6742     0.0000     4.0000 </r>
       <r>   -12.5693     0.0000     4.0000 </r>
       <r>   -12.4644     0.0000     4.0000 </r>
       <r>   -12.3596     0.0000     4.0000 </r>
       <r>   -12.2547     0.0000     4.0000 </r>
       <r>   -12.1498    -0.0000     4.0000 </r>
       <r>   -12.0449    -0.0000     4.0000 </r>
       <r>   -11.9401    -0.0000     4.0000 </r>
       <r>   -11.8352    -0.0000     4.0000 </r>
       <r>   -11.7303    -0.0000     4.0000 </r>
       <r>   -11.6255    -0.0010     3.9999 </r>
       <r>   -11.5206    -0.1304     3.9862 </r>
       <r>   -11.4157    -0.3405     3.9505 </r>
       <r>   -11.3108    10.8021     5.0833 </r>
       <r>   -11.2060     8.6907     5.9948 </r>
       <r>   -11.1011     6.3965     6.6656 </r>
       <r>   -10.9962    12.7165     7.9992 </r>
       <r>   -10.8913    -0.0020     7.9990 </r>
       <r>   -10.7865     0.0833     8.0077 </r>
       <r>   -10.6816    12.9678     9.3677 </r>
       <r>   -10.5767     6.6994    10.0703 </r>
       <r>   -10.4719    -0.6227    10.0050 </r>
       <r>   -10.3670    -0.0483     9.9999 </r>
       <r>   -10.2621    -0.1350     9.9857 </r>
       <r>   -10.1572    -0.3152     9.9527 </r>
       <r>   -10.0524    10.9908    11.1053 </r>
       <r>    -9.9475     9.1632    12.0663 </r>
       <r>    -9.8426    -0.5442    12.0092 </r>
       <r>    -9.7377    -0.0874    12.0001 </r>
       <r>    -9.6329    -0.0005    12.0000 </r>
       <r>    -9.5280    -0.0000    12.0000 </r>
       <r>    -9.4231    -0.0000    12.0000 </r>
       <r>    -9.3183    -0.0000    12.0000 </r>
       <r>    -9.2134    -0.0000    12.0000 </r>
       <r>    -9.1085    -0.0000    12.0000 </r>
       <r>    -9.0036    -0.0000    12.0000 </r>
       <r>    -8.8988    -0.0002    12.0000 </r>
       <r>    -8.7939    -0.0487    11.9949 </r>
       <r>    -8.6890    -0.6230    11.9295 </r>
       <r>    -8.5841     6.8190    12.6447 </r>
       <r>    -8.4793    12.8872    13.9962 </r>
       <r>    -8.3744     0.2308    14.0204 </r>
       <r>    -8.2695    -0.7780    13.9388 </r>
       <r>    -8.1647     4.4689    14.4075 </r>
       <r>    -8.0598    14.2139    15.8981 </r>
       <r>    -7.9549     1.3092    16.0354 </r>
       <r>    -7.8500    -0.3980    15.9937 </r>
       <r>    -7.7452    -0.6132    15.9294 </r>
       <r>    -7.6403     7.8229    16.7498 </r>
       <r>    -7.5354    11.5209    17.9580 </r>
       <r>    -7.4305    13.9536    19.4214 </r>
       <r>    -7.3257    21.6011    21.6867 </r>
       <r>    -7.2208    20.8519    23.8735 </r>
       <r>    -7.1159    21.6283    26.1418 </r>
       <r>    -7.0111    16.2916    27.8503 </r>
       <r>    -6.9062    19.4483    29.8899 </r>
       <r>    -6.8013    20.0280    31.9903 </r>
       <r>    -6.6964    33.6765    35.5220 </r>
       <r>    -6.5916    34.2146    39.1102 </r>
       <r>    -6.4867    43.4948    43.6716 </r>
       <r>    -6.3818    49.7941    48.8937 </r>
       <r>    -6.2769    50.1971    54.1580 </r>
       <r>    -6.1721    51.5389    59.5630 </r>
       <r>    -6.0672    43.7274    64.1488 </r>
       <r>    -5.9623    32.1522    67.5207 </r>
       <r>    -5.8575    15.4771    69.1438 </r>
       <r>    -5.7526    32.3822    72.5398 </r>
       <r>    -5.6477    41.6432    76.9071 </r>
       <r>    -5.5428    48.0737    81.9487 </r>
       <r>    -5.4380    56.3817    87.8616 </r>
       <r>    -5.3331    72.9040    95.5072 </r>
       <r>    -5.2282    94.4571   105.4132 </r>
       <r>    -5.1233    86.2118   114.4545 </r>
       <r>    -5.0185    73.0098   122.1112 </r>
       <r>    -4.9136    74.0459   129.8766 </r>
       <r>    -4.8087    81.5357   138.4275 </r>
       <r>    -4.7039    61.8958   144.9186 </r>
       <r>    -4.5990    11.3137   146.1051 </r>
       <r>    -4.4941     8.5166   146.9983 </r>
       <r>    -4.3892    10.0661   148.0540 </r>
       <r>    -4.2844    -1.2703   147.9207 </r>
       <r>    -4.1795     5.6271   148.5109 </r>
       <r>    -4.0746    27.0630   151.3490 </r>
       <r>    -3.9697     7.1598   152.0999 </r>
       <r>    -3.8649    -0.9055   152.0049 </r>
       <r>    -3.7600    -0.0468   152.0000 </r>
       <r>    -3.6551    -0.0005   152.0000 </r>
       <r>    -3.5503    -0.0628   151.9934 </r>
       <r>    -3.4454    -0.6112   151.9293 </r>
       <r>    -3.3405     7.8067   152.7480 </r>
       <r>    -3.2356    12.1391   154.0211 </r>
       <r>    -3.1308    -0.4378   153.9751 </r>
       <r>    -3.0259     1.9247   154.1770 </r>
       <r>    -2.9210    13.9426   155.6392 </r>
       <r>    -2.8161     9.5086   156.6364 </r>
       <r>    -2.7113    12.7540   157.9739 </r>
       <r>    -2.6064    -0.1664   157.9565 </r>
       <r>    -2.5015     6.0019   158.5859 </r>
       <r>    -2.3967    12.9037   159.9392 </r>
       <r>    -2.2918     2.0730   160.1566 </r>
       <r>    -2.1869    14.1245   161.6378 </r>
       <r>    -2.0820     3.4001   161.9944 </r>
       <r>    -1.9772     3.2987   162.3404 </r>
       <r>    -1.8723    18.8677   164.3191 </r>
       <r>    -1.7674    15.4437   165.9387 </r>
       <r>    -1.6625    13.1419   167.3169 </r>
       <r>    -1.5577     7.1921   168.0712 </r>
       <r>    -1.4528    -0.8491   167.9821 </r>
       <r>    -1.3479     0.2766   168.0111 </r>
       <r>    -1.2431    13.0462   169.3793 </r>
       <r>    -1.1382     6.3542   170.0457 </r>
       <r>    -1.0333    -0.4228   170.0014 </r>
       <r>    -0.9284    12.8079   171.3446 </r>
       <r>    -0.8236    17.7776   173.2089 </r>
       <r>    -0.7187     8.2175   174.0707 </r>
       <r>    -0.6138    12.0993   175.3396 </r>
       <r>    -0.5089     6.6426   176.0363 </r>
       <r>    -0.4041     0.3001   176.0677 </r>
       <r>    -0.2992    14.6620   177.6054 </r>
       <r>    -0.1943    17.6281   179.4541 </r>
       <r>    -0.0895    12.7490   180.7911 </r>
       <r>     0.0154    11.1378   181.9592 </r>
       <r>     0.1203     4.4275   182.4235 </r>
       <r>     0.2252    14.0423   183.8961 </r>
       <r>     0.3300     1.3308   184.0357 </r>
       <r>     0.4349    -0.3342   184.0007 </r>
       <r>     0.5398    -0.0062   184.0000 </r>
       <r>     0.6447    -0.0000   184.0000 </r>
       <r>     0.7495    -0.0000   184.0000 </r>
       <r>     0.8544    -0.0000   184.0000 </r>
       <r>     0.9593     0.0000   184.0000 </r>
       <r>     1.0641     0.0000   184.0000 </r>
       <r>     1.1690     0.0000   184.0000 </r>
       <r>     1.2739     0.0000   184.0000 </r>
       <r>     1.3788     0.0000   184.0000 </r>
       <r>     1.4836     0.0000   184.0000 </r>
       <r>     1.5885     0.0000   184.0000 </r>
      </set>
     </set>
    </array>
   </total>
  </dos>
 </calculation>
 <structure name="finalpos" >
  <crystal>
   <varray name="basis" >
    <v>      15.00000000       0.00000000       0.00000000 </v>
    <v>       0.00000000      15.00000000       0.00000000 </v>
    <v>       0.00000000       0.00000000      15.00000000 </v>
   </varray>
   <i name="volume">   3375.00000000 </i>
   <varray name="rec_basis" >
    <v>       0.06666667       0.00000000       0.00000000 </v>
    <v>       0.00000000       0.06666667       0.00000000 </v>
    <v>       0.00000000       0.00000000       0.06666667 </v>
   </varray>
  </crystal>
  <varray name="positions" >
   <v>       0.29120933       0.41915067       0.55523000 </v>
   <v>       0.37668267       0.54916933       0.48878933 </v>
   <v>       0.39462533       0.29347333       0.56405200 </v>
   <v>       0.53350400       0.50669467       0.48009000 </v>
   <v>       0.54915000       0.34468667       0.52925467 </v>
   <v>       0.44572267       0.43611400       0.61390467 </v>
   <v>       0.41739733       0.39777200       0.44743267 </v>
   <v>       0.22630000       0.56957400       0.54617333 </v>
   <v>       0.33470933       0.54471867       0.65641000 </v>
   <v>       0.35457333       0.68344667       0.56903267 </v>
   <v>       0.48860533       0.66979333       0.47661467 </v>
   <v>       0.61991933       0.47983667       0.61164200 </v>
   <v>       0.48673000       0.59224133       0.61795867 </v>
   <v>       0.73537333       0.49586733       0.65005467 </v>
   <v>       0.81159333       0.49199600       0.64032133 </v>
  </varray>
 </structure>
</modeling>
