<?xml version="1.0" encoding="ISO-8859-1"?>
<modeling>
 <generator>
  <i name="program" type="string">vasp </i>
  <i name="version" type="string">5.4.4.18Apr17-6-g9f103f2a35  </i>
  <i name="subversion" type="string">(build May 08 2019 13:49:07) complex            parallel </i>
  <i name="platform" type="string">LinuxIFC </i>
  <i name="date" type="string">2019 11 13 </i>
  <i name="time" type="string">15:26:11 </i>
 </generator>
 <incar>
  <i type="string" name="SYSTEM"> CuCO</i>
  <i type="int" name="ISTART">     0</i>
  <i type="string" name="PREC">accurate</i>
  <i type="string" name="ALGO"> Fast</i>
  <i type="int" name="ISPIN">     2</i>
  <i type="int" name="INIWAV">     1</i>
  <i type="int" name="NELM">   300</i>
  <i type="int" name="NELMIN">     3</i>
  <i type="int" name="IBRION">    -1</i>
  <i name="EDIFF">      0.00000010</i>
  <i name="EDIFFG">     -0.00100000</i>
  <i type="int" name="NSW">     0</i>
  <i type="int" name="ISYM">     0</i>
  <i name="ENCUT">    600.00000000</i>
  <i name="NUPDOWN">      1.00000000</i>
  <i type="logical" name="LREAL"> F  </i>
  <i type="int" name="ISMEAR">     1</i>
  <i name="SIGMA">      0.10000000</i>
  <i name="KSPACING">      0.50000000</i>
  <i type="logical" name="KGAMMA"> F  </i>
  <i type="logical" name="LWAVE"> F  </i>
  <i type="logical" name="LCHARG"> F  </i>
  <v type="int" name="KPOINT_BSE">    -1     0     0     0</v>
  <i type="int" name="NELM">   300</i>
  <i type="string" name="GGA"> PE</i>
 </incar>
 <structure name="primitive_cell" >
  <crystal>
   <varray name="basis" >
    <v>      15.00000000       0.00000000       0.00000000 </v>
    <v>       0.00000000      15.00000000       0.00000000 </v>
    <v>       0.00000000       0.00000000      15.00000000 </v>
   </varray>
   <i name="volume">   3375.00000000 </i>
   <varray name="rec_basis" >
    <v>       0.06666667       0.00000000       0.00000000 </v>
    <v>       0.00000000       0.06666667       0.00000000 </v>
    <v>       0.00000000       0.00000000       0.06666667 </v>
   </varray>
  </crystal>
  <varray name="positions" >
   <v>       0.29447267       0.42155333      -0.44142133 </v>
   <v>       0.36964467      -0.45730400       0.48839800 </v>
   <v>       0.39027133       0.29399733      -0.44303200 </v>
   <v>       0.21987200      -0.43517133      -0.44432667 </v>
   <v>       0.33847600      -0.45288333      -0.34337400 </v>
   <v>       0.45066733       0.43399200      -0.38600133 </v>
   <v>       0.42119533       0.39653067       0.44055133 </v>
   <v>      -0.47167667      -0.49362733       0.48247200 </v>
   <v>       0.48445200      -0.40861133      -0.38645667 </v>
   <v>      -0.45259000       0.34816333      -0.46924867 </v>
   <v>       0.35768000      -0.31865333      -0.43432733 </v>
   <v>       0.48856533      -0.33665533       0.47806933 </v>
   <v>      -0.37408600       0.49038133      -0.39028333 </v>
   <v>      -0.26022000      -0.49513333      -0.34617733 </v>
   <v>      -0.18303333      -0.49507600      -0.34040000 </v>
  </varray>
 </structure>
 <varray name="primitive_index" >
  <v type="int" >        1 </v>
  <v type="int" >        2 </v>
  <v type="int" >        3 </v>
  <v type="int" >        8 </v>
  <v type="int" >        9 </v>
  <v type="int" >        6 </v>
  <v type="int" >        7 </v>
  <v type="int" >        4 </v>
  <v type="int" >       13 </v>
  <v type="int" >        5 </v>
  <v type="int" >       10 </v>
  <v type="int" >       11 </v>
  <v type="int" >       12 </v>
  <v type="int" >       14 </v>
  <v type="int" >       15 </v>
 </varray>
 <kpoints>
  <generation param="Monkhorst-Pack">
   <v type="int" name="divisions">       1        1        1 </v>
   <v name="usershift">      0.00000000       0.00000000       0.00000000 </v>
   <v name="genvec1">      1.00000000       0.00000000       0.00000000 </v>
   <v name="genvec2">      0.00000000       1.00000000       0.00000000 </v>
   <v name="genvec3">      0.00000000       0.00000000       1.00000000 </v>
   <v name="shift">      0.00000000       0.00000000       0.00000000 </v>
  </generation>
  <varray name="kpointlist" >
   <v>       0.00000000       0.00000000       0.00000000 </v>
  </varray>
  <varray name="weights" >
   <v>       1.00000000 </v>
  </varray>
 </kpoints>
 <parameters>
  <separator name="general" >
   <i type="string" name="SYSTEM">CuCO</i>
   <i type="logical" name="LCOMPAT"> F  </i>
  </separator>
  <separator name="electronic" >
   <i type="string" name="PREC">accura</i>
   <i name="ENMAX">    600.00000000</i>
   <i name="ENAUG">    644.87300000</i>
   <i name="EDIFF">      0.00000010</i>
   <i type="int" name="IALGO">    68</i>
   <i type="int" name="IWAVPR">    10</i>
   <i type="int" name="NBANDS">    92</i>
   <i name="NELECT">    153.00000000</i>
   <i type="int" name="TURBO">     0</i>
   <i type="int" name="IRESTART">     0</i>
   <i type="int" name="NREBOOT">     0</i>
   <i type="int" name="NMIN">     0</i>
   <i name="EREF">      0.00000000</i>
   <separator name="electronic smearing" >
    <i type="int" name="ISMEAR">     1</i>
    <i name="SIGMA">      0.10000000</i>
    <i name="KSPACING">      0.50000000</i>
    <i type="logical" name="KGAMMA"> F  </i>
   </separator>
   <separator name="electronic projectors" >
    <i type="logical" name="LREAL"> F  </i>
    <v name="ROPT">      0.00000000      0.00000000      0.00000000</v>
    <i type="int" name="LMAXPAW">  -100</i>
    <i type="int" name="LMAXMIX">     2</i>
    <i type="logical" name="NLSPLINE"> F  </i>
   </separator>
   <separator name="electronic startup" >
    <i type="int" name="ISTART">     0</i>
    <i type="int" name="ICHARG">     2</i>
    <i type="int" name="INIWAV">     1</i>
   </separator>
   <separator name="electronic spin" >
    <i type="int" name="ISPIN">     2</i>
    <i type="logical" name="LNONCOLLINEAR"> F  </i>
    <v name="MAGMOM">      0.06666667      0.06666667      0.06666667      0.06666667      0.06666667      0.06666667      0.06666667      0.06666667      0.06666667      0.06666667      0.06666667      0.06666667      0.06666667      0.06666667      0.06666667</v>
    <i name="NUPDOWN">      1.00000000</i>
    <i type="logical" name="LSORBIT"> F  </i>
    <v name="SAXIS">      0.00000000      0.00000000      1.00000000</v>
    <i type="logical" name="LSPIRAL"> F  </i>
    <v name="QSPIRAL">      0.00000000      0.00000000      0.00000000</v>
    <i type="logical" name="LZEROZ"> F  </i>
   </separator>
   <separator name="electronic exchange-correlation" >
    <i type="logical" name="LASPH"> F  </i>
    <i type="logical" name="LMETAGGA"> F  </i>
   </separator>
   <separator name="electronic convergence" >
    <i type="int" name="NELM">   300</i>
    <i type="int" name="NELMDL">    -5</i>
    <i type="int" name="NELMIN">     3</i>
    <i name="ENINI">    600.00000000</i>
    <separator name="electronic convergence detail" >
     <i type="logical" name="LDIAG"> T  </i>
     <i type="logical" name="LSUBROT"> F  </i>
     <i name="WEIMIN">      0.00000000</i>
     <i name="EBREAK">      0.00000000</i>
     <i name="DEPER">      0.30000000</i>
     <i type="int" name="NRMM">     4</i>
     <i name="TIME">      0.40000000</i>
    </separator>
   </separator>
   <separator name="electronic mixer" >
    <i name="AMIX">      0.40000000</i>
    <i name="BMIX">      1.00000000</i>
    <i name="AMIN">      0.10000000</i>
    <i name="AMIX_MAG">      1.60000000</i>
    <i name="BMIX_MAG">      1.00000000</i>
    <separator name="electronic mixer details" >
     <i type="int" name="IMIX">     4</i>
     <i type="logical" name="MIXFIRST"> F  </i>
     <i type="int" name="MAXMIX">   -45</i>
     <i name="WC">    100.00000000</i>
     <i type="int" name="INIMIX">     1</i>
     <i type="int" name="MIXPRE">     1</i>
     <i type="int" name="MREMOVE">     5</i>
    </separator>
   </separator>
   <separator name="electronic dipolcorrection" >
    <i type="logical" name="LDIPOL"> F  </i>
    <i type="logical" name="LMONO"> F  </i>
    <i type="int" name="IDIPOL">     0</i>
    <i name="EPSILON">      1.00000000</i>
    <v name="DIPOL">   -100.00000000   -100.00000000   -100.00000000</v>
    <i name="EFIELD">      0.00000000</i>
   </separator>
  </separator>
  <separator name="grids" >
   <i type="int" name="NGX">   120</i>
   <i type="int" name="NGY">   120</i>
   <i type="int" name="NGZ">   120</i>
   <i type="int" name="NGXF">   240</i>
   <i type="int" name="NGYF">   240</i>
   <i type="int" name="NGZF">   240</i>
   <i type="logical" name="ADDGRID"> F  </i>
  </separator>
  <separator name="ionic" >
   <i type="int" name="NSW">     0</i>
   <i type="int" name="IBRION">    -1</i>
   <i type="int" name="MDALGO">     0</i>
   <i type="int" name="ISIF">     2</i>
   <i name="PSTRESS">      0.00000000</i>
   <i name="EDIFFG">     -0.00100000</i>
   <i type="int" name="NFREE">     0</i>
   <i name="POTIM">      0.50000000</i>
   <i name="SMASS">     -3.00000000</i>
   <i name="SCALEE">      1.00000000</i>
  </separator>
  <separator name="ionic md" >
   <i name="TEBEG">      0.00010000</i>
   <i name="TEEND">      0.00010000</i>
   <i type="int" name="NBLOCK">     1</i>
   <i type="int" name="KBLOCK">     1</i>
   <i type="int" name="NPACO">   256</i>
   <i name="APACO">     16.00000000</i>
  </separator>
  <separator name="symmetry" >
   <i type="int" name="ISYM">     0</i>
   <i name="SYMPREC">      0.00001000</i>
  </separator>
  <separator name="dos" >
   <i type="int" name="LORBIT">     0</i>
   <v name="RWIGS">     -1.00000000     -1.00000000     -1.00000000</v>
   <i type="int" name="NEDOS">   301</i>
   <i name="EMIN">     10.00000000</i>
   <i name="EMAX">    -10.00000000</i>
   <i name="EFERMI">      0.00000000</i>
  </separator>
  <separator name="writing" >
   <i type="int" name="NWRITE">     2</i>
   <i type="logical" name="LWAVE"> F  </i>
   <i type="logical" name="LDOWNSAMPLE"> F  </i>
   <i type="logical" name="LCHARG"> F  </i>
   <i type="logical" name="LPARD"> F  </i>
   <i type="logical" name="LVTOT"> F  </i>
   <i type="logical" name="LVHAR"> F  </i>
   <i type="logical" name="LELF"> F  </i>
   <i type="logical" name="LOPTICS"> F  </i>
   <v name="STM">      0.00000000      0.00000000      0.00000000      0.00000000      0.00000000      0.00000000      0.00000000</v>
  </separator>
  <separator name="performance" >
   <i type="int" name="NPAR">     4</i>
   <i type="int" name="NSIM">     4</i>
   <i type="int" name="NBLK">    -1</i>
   <i type="logical" name="LPLANE"> T  </i>
   <i type="logical" name="LSCALAPACK"> T  </i>
   <i type="logical" name="LSCAAWARE"> F  </i>
   <i type="logical" name="LSCALU"> F  </i>
   <i type="logical" name="LASYNC"> F  </i>
   <i type="logical" name="LORBITALREAL"> F  </i>
  </separator>
  <separator name="miscellaneous" >
   <i type="int" name="IDIOT">     3</i>
   <i type="int" name="ISPECIAL">     0</i>
   <i type="logical" name="LMUSIC"> F  </i>
   <v name="POMASS">     63.54600000     12.01100000     16.00000000</v>
   <v name="DARWINR">      0.00000000      0.00000000      0.00000000</v>
   <v name="DARWINV">      1.00000000      1.00000000      1.00000000</v>
   <i type="logical" name="LCORR"> T  </i>
  </separator>
  <i type="logical" name="GGA_COMPAT"> T  </i>
  <i type="logical" name="LBERRY"> F  </i>
  <i type="int" name="ICORELEVEL">     0</i>
  <i type="logical" name="LDAU"> F  </i>
  <i type="int" name="I_CONSTRAINED_M">     0</i>
  <separator name="electronic exchange-correlation" >
   <i type="string" name="GGA">PE</i>
   <i type="int" name="VOSKOWN">     0</i>
   <i type="logical" name="LHFCALC"> F  </i>
   <i type="string" name="PRECFOCK"></i>
   <i type="logical" name="LSYMGRAD"> F  </i>
   <i type="logical" name="LHFONE"> F  </i>
   <i type="logical" name="LRHFCALC"> F  </i>
   <i type="logical" name="LTHOMAS"> F  </i>
   <i type="logical" name="LMODELHF"> F  </i>
   <i name="ENCUT4O">     -1.00000000</i>
   <i type="int" name="EXXOEP">     0</i>
   <i type="int" name="FOURORBIT">     0</i>
   <i name="AEXX">      0.00000000</i>
   <i name="HFALPHA">      0.00000000</i>
   <i name="MCALPHA">      0.00000000</i>
   <i name="ALDAX">      1.00000000</i>
   <i name="AGGAX">      1.00000000</i>
   <i name="ALDAC">      1.00000000</i>
   <i name="AGGAC">      1.00000000</i>
   <i type="int" name="NKREDX">     1</i>
   <i type="int" name="NKREDY">     1</i>
   <i type="int" name="NKREDZ">     1</i>
   <i type="logical" name="SHIFTRED"> F  </i>
   <i type="logical" name="ODDONLY"> F  </i>
   <i type="logical" name="EVENONLY"> F  </i>
   <i type="int" name="LMAXFOCK">     0</i>
   <i type="int" name="NMAXFOCKAE">     0</i>
   <i type="logical" name="LFOCKAEDFT"> F  </i>
   <i name="HFSCREEN">      0.00000000</i>
   <i name="HFSCREENC">      0.00000000</i>
   <i type="int" name="NBANDSGWLOW">     0</i>
  </separator>
  <separator name="vdW DFT" >
   <i type="logical" name="LUSE_VDW"> F  </i>
   <i name="Zab_VDW">     -0.84910000</i>
   <i name="PARAM1">      0.12340000</i>
   <i name="PARAM2">      1.00000000</i>
   <i name="PARAM3">      0.00000000</i>
  </separator>
  <separator name="model GW" >
   <i type="int" name="MODEL_GW">     0</i>
   <i name="MODEL_EPS0">    135.00000000</i>
   <i name="MODEL_ALPHA">      1.00000000</i>
  </separator>
  <separator name="linear response parameters" >
   <i type="logical" name="LEPSILON"> F  </i>
   <i type="logical" name="LRPA"> F  </i>
   <i type="logical" name="LNABLA"> F  </i>
   <i type="logical" name="LVEL"> F  </i>
   <i type="int" name="KINTER">     0</i>
   <i name="CSHIFT">      0.10000000</i>
   <i name="OMEGAMAX">     -1.00000000</i>
   <i name="DEG_THRESHOLD">      0.00200000</i>
   <i name="RTIME">     -0.10000000</i>
   <i name="WPLASMAI">      0.00000000</i>
   <v name="DFIELD">      0.00000000      0.00000000      0.00000000</v>
   <v name="WPLASMA">      0.00000000      0.00000000      0.00000000      0.00000000      0.00000000      0.00000000      0.00000000      0.00000000      0.00000000</v>
  </separator>
  <separator name="orbital magnetization" >
   <i type="logical" name="NUCIND"> F  </i>
   <v name="MAGPOS">      0.00000000      0.00000000      0.00000000</v>
   <i type="logical" name="LNICSALL"> T  </i>
   <i type="logical" name="ORBITALMAG"> F  </i>
   <i type="logical" name="LMAGBLOCH"> F  </i>
   <i type="logical" name="LCHIMAG"> F  </i>
   <i type="logical" name="LGAUGE"> T  </i>
   <i type="int" name="MAGATOM">     0</i>
   <v name="MAGDIPOL">      0.00000000      0.00000000      0.00000000</v>
   <v name="AVECCONST">      0.00000000      0.00000000      0.00000000</v>
  </separator>
  <separator name="response functions" >
   <i type="logical" name="LADDER"> F  </i>
   <i type="logical" name="LRPAFORCE"> F  </i>
   <i type="logical" name="LFXC"> F  </i>
   <i type="logical" name="LHARTREE"> T  </i>
   <i type="int" name="IBSE">     0</i>
   <v type="int" name="KPOINT">    -1     0     0     0</v>
   <i type="logical" name="LTCTE"> F  </i>
   <i type="logical" name="LTETE"> F  </i>
   <i type="logical" name="LTRIPLET"> F  </i>
   <i type="logical" name="LFXCEPS"> F  </i>
   <i type="logical" name="LFXHEG"> F  </i>
   <i type="int" name="NATURALO">     2</i>
   <i type="logical" name="L2ORDER"> F  </i>
   <i type="logical" name="LMP2LT"> F  </i>
   <i type="logical" name="LUSEW"> F  </i>
   <i name="ENCUTGW">     -2.00000000</i>
   <i name="ENCUTGWSOFT">     -2.00000000</i>
   <i name="ENCUTLF">     -1.00000000</i>
   <i type="int" name="LMAXMP2">    -1</i>
   <i name="SCISSOR">      0.00000000</i>
   <i type="int" name="NOMEGA">     0</i>
   <i type="int" name="NOMEGAR">     0</i>
   <i type="int" name="NBANDSGW">    -1</i>
   <i type="int" name="NBANDSO">    -1</i>
   <i type="int" name="NBANDSV">    -1</i>
   <i type="int" name="NELM">   300</i>
   <i type="int" name="NELMHF">     1</i>
   <i type="int" name="DIM">     3</i>
   <i type="int" name="ANTIRES">     0</i>
   <i name="OMEGAMAX">    -30.00000000</i>
   <i name="OMEGAMIN">    -30.00000000</i>
   <i name="OMEGATL">   -200.00000000</i>
   <i type="int" name="OMEGAGRID">   140</i>
   <i name="CSHIFT">     -0.10000000</i>
   <i type="logical" name="SELFENERGY"> F  </i>
   <i type="logical" name="LSPECTRAL"> F  </i>
   <i type="logical" name="LSPECTRALGW"> F  </i>
   <i type="logical" name="LSINGLES"> F  </i>
   <i type="logical" name="LFERMIGW"> F  </i>
   <i type="logical" name="ODDONLYGW"> F  </i>
   <i type="logical" name="EVENONLYGW"> F  </i>
   <i type="int" name="NKREDLFX">     1</i>
   <i type="int" name="NKREDLFY">     1</i>
   <i type="int" name="NKREDLFZ">     1</i>
   <i type="int" name="MAXMEM">  2800</i>
   <i type="int" name="TELESCOPE">     0</i>
   <i type="int" name="TAUPAR">     1</i>
   <i type="int" name="OMEGAPAR">    -1</i>
   <i name="LAMBDA">      1.00000000</i>
  </separator>
  <separator name="External order field" >
   <i name="OFIELD_KAPPA">      0.00000000</i>
   <v name="OFIELD_K">      0.00000000      0.00000000      0.00000000</v>
   <i name="OFIELD_Q6_NEAR">      0.00000000</i>
   <i name="OFIELD_Q6_FAR">      0.00000000</i>
   <i name="OFIELD_A">      0.00000000</i>
  </separator>
 </parameters>
 <atominfo>
  <atoms>      15 </atoms>
  <types>       3 </types>
  <array name="atoms" >
   <dimension dim="1">ion</dimension>
   <field type="string">element</field>
   <field type="int">atomtype</field>
   <set>
    <rc><c>Cu</c><c>   1</c></rc>
    <rc><c>Cu</c><c>   1</c></rc>
    <rc><c>Cu</c><c>   1</c></rc>
    <rc><c>Cu</c><c>   1</c></rc>
    <rc><c>Cu</c><c>   1</c></rc>
    <rc><c>Cu</c><c>   1</c></rc>
    <rc><c>Cu</c><c>   1</c></rc>
    <rc><c>Cu</c><c>   1</c></rc>
    <rc><c>Cu</c><c>   1</c></rc>
    <rc><c>Cu</c><c>   1</c></rc>
    <rc><c>Cu</c><c>   1</c></rc>
    <rc><c>Cu</c><c>   1</c></rc>
    <rc><c>Cu</c><c>   1</c></rc>
    <rc><c>C </c><c>   2</c></rc>
    <rc><c>O </c><c>   3</c></rc>
   </set>
  </array>
  <array name="atomtypes" >
   <dimension dim="1">type</dimension>
   <field type="int">atomspertype</field>
   <field type="string">element</field>
   <field>mass</field>
   <field>valence</field>
   <field type="string">pseudopotential</field>
   <set>
    <rc><c>  13</c><c>Cu</c><c>     63.54600000</c><c>     11.00000000</c><c>  PAW_PBE Cu 22Jun2005                  </c></rc>
    <rc><c>   1</c><c>C </c><c>     12.01100000</c><c>      4.00000000</c><c>  PAW_PBE C 08Apr2002                   </c></rc>
    <rc><c>   1</c><c>O </c><c>     16.00000000</c><c>      6.00000000</c><c>  PAW_PBE O 08Apr2002                   </c></rc>
   </set>
  </array>
 </atominfo>
 <structure name="initialpos" >
  <crystal>
   <varray name="basis" >
    <v>      15.00000000       0.00000000       0.00000000 </v>
    <v>       0.00000000      15.00000000       0.00000000 </v>
    <v>       0.00000000       0.00000000      15.00000000 </v>
   </varray>
   <i name="volume">   3375.00000000 </i>
   <varray name="rec_basis" >
    <v>       0.06666667       0.00000000       0.00000000 </v>
    <v>       0.00000000       0.06666667       0.00000000 </v>
    <v>       0.00000000       0.00000000       0.06666667 </v>
   </varray>
  </crystal>
  <varray name="positions" >
   <v>       0.29447267       0.42155333       0.55857867 </v>
   <v>       0.36964467       0.54269600       0.48839800 </v>
   <v>       0.39027133       0.29399733       0.55696800 </v>
   <v>       0.52832333       0.50637267       0.48247200 </v>
   <v>       0.54741000       0.34816333       0.53075133 </v>
   <v>       0.45066733       0.43399200       0.61399867 </v>
   <v>       0.42119533       0.39653067       0.44055133 </v>
   <v>       0.21987200       0.56482867       0.55567333 </v>
   <v>       0.33847600       0.54711667       0.65662600 </v>
   <v>       0.35768000       0.68134667       0.56567267 </v>
   <v>       0.48856533       0.66334467       0.47806933 </v>
   <v>       0.62591400       0.49038133       0.60971667 </v>
   <v>       0.48445200       0.59138867       0.61354333 </v>
   <v>       0.73978000       0.50486667       0.65382267 </v>
   <v>       0.81696667       0.50492400       0.65960000 </v>
  </varray>
 </structure>
 <calculation>
  <scstep>
   <time name="dav">    7.55    7.57</time>
   <time name="total">    8.72    8.75</time>
   <energy>
    <i name="alphaZ">     41.16232785 </i>
    <i name="ewald">  16481.89121974 </i>
    <i name="hartreedc"> -33501.51994062 </i>
    <i name="XCdc">    623.63333295 </i>
    <i name="pawpsdc">  16421.75059358 </i>
    <i name="pawaedc"> -17800.06104309 </i>
    <i name="eentropy">      0.00300565 </i>
    <i name="bandstr">    190.40188633 </i>
    <i name="atom">  18662.21924712 </i>
    <i name="e_fr_energy">   1119.48062951 </i>
    <i name="e_wo_entrp">   1119.47762386 </i>
    <i name="e_0_energy">   1119.47962763 </i>
   </energy>
  </scstep>
  <scstep>
   <time name="dav">    7.40    7.41</time>
   <time name="total">    7.40    7.41</time>
   <energy>
    <i name="e_fr_energy">     88.34866712 </i>
    <i name="e_wo_entrp">     88.33312171 </i>
    <i name="e_0_energy">     88.34348532 </i>
   </energy>
  </scstep>
  <scstep>
   <time name="dav">   11.47   11.48</time>
   <time name="total">   11.47   11.48</time>
   <energy>
    <i name="e_fr_energy">    -33.42234522 </i>
    <i name="e_wo_entrp">    -33.43001649 </i>
    <i name="e_0_energy">    -33.42490231 </i>
   </energy>
  </scstep>
  <scstep>
   <time name="dav">   10.16   10.18</time>
   <time name="total">   10.16   10.18</time>
   <energy>
    <i name="e_fr_energy">    -55.68827218 </i>
    <i name="e_wo_entrp">    -55.69660459 </i>
    <i name="e_0_energy">    -55.69104965 </i>
   </energy>
  </scstep>
  <scstep>
   <time name="dav">   12.03   12.05</time>
   <time name="total">   12.72   12.73</time>
   <energy>
    <i name="e_fr_energy">    -57.30791798 </i>
    <i name="e_wo_entrp">    -57.31704961 </i>
    <i name="e_0_energy">    -57.31096185 </i>
   </energy>
  </scstep>
  <scstep>
   <time name="diag">    1.09    1.09</time>
   <time name="diis">    6.82    6.82</time>
   <time name="orth">    0.05    0.05</time>
   <time name="total">    9.78    9.79</time>
   <energy>
    <i name="e_fr_energy">    -56.56455360 </i>
    <i name="e_wo_entrp">    -56.57116835 </i>
    <i name="e_0_energy">    -56.56675851 </i>
   </energy>
  </scstep>
  <scstep>
   <time name="diag">    1.09    1.09</time>
   <time name="diis">    6.52    6.53</time>
   <time name="orth">    0.05    0.05</time>
   <time name="total">    9.49    9.50</time>
   <energy>
    <i name="e_fr_energy">    -49.23743051 </i>
    <i name="e_wo_entrp">    -49.24463618 </i>
    <i name="e_0_energy">    -49.23983240 </i>
   </energy>
  </scstep>
  <scstep>
   <time name="diag">    1.09    1.09</time>
   <time name="diis">    6.68    6.68</time>
   <time name="orth">    0.05    0.05</time>
   <time name="total">    9.70    9.70</time>
   <energy>
    <i name="e_fr_energy">    -48.99118207 </i>
    <i name="e_wo_entrp">    -48.99892564 </i>
    <i name="e_0_energy">    -48.99376326 </i>
   </energy>
  </scstep>
  <scstep>
   <time name="diag">    1.09    1.09</time>
   <time name="diis">    6.49    6.49</time>
   <time name="orth">    0.05    0.05</time>
   <time name="total">    9.51    9.51</time>
   <energy>
    <i name="e_fr_energy">    -48.94070732 </i>
    <i name="e_wo_entrp">    -48.94837212 </i>
    <i name="e_0_energy">    -48.94326226 </i>
   </energy>
  </scstep>
  <scstep>
   <time name="diag">    1.09    1.09</time>
   <time name="diis">    6.65    6.65</time>
   <time name="orth">    0.05    0.05</time>
   <time name="total">    9.67    9.67</time>
   <energy>
    <i name="e_fr_energy">    -48.87097249 </i>
    <i name="e_wo_entrp">    -48.87843635 </i>
    <i name="e_0_energy">    -48.87346044 </i>
   </energy>
  </scstep>
  <scstep>
   <time name="diag">    1.09    1.09</time>
   <time name="diis">    6.76    6.77</time>
   <time name="orth">    0.05    0.05</time>
   <time name="total">    9.77    9.78</time>
   <energy>
    <i name="e_fr_energy">    -48.85874816 </i>
    <i name="e_wo_entrp">    -48.86650820 </i>
    <i name="e_0_energy">    -48.86133484 </i>
   </energy>
  </scstep>
  <scstep>
   <time name="diag">    1.09    1.09</time>
   <time name="diis">    7.23    7.24</time>
   <time name="orth">    0.05    0.05</time>
   <time name="total">   10.25   10.25</time>
   <energy>
    <i name="e_fr_energy">    -48.85693500 </i>
    <i name="e_wo_entrp">    -48.86448548 </i>
    <i name="e_0_energy">    -48.85945183 </i>
   </energy>
  </scstep>
  <scstep>
   <time name="diag">    1.09    1.09</time>
   <time name="diis">    6.94    6.94</time>
   <time name="orth">    0.05    0.05</time>
   <time name="total">    9.95    9.95</time>
   <energy>
    <i name="e_fr_energy">    -48.85570773 </i>
    <i name="e_wo_entrp">    -48.86335424 </i>
    <i name="e_0_energy">    -48.85825657 </i>
   </energy>
  </scstep>
  <scstep>
   <time name="diag">    1.09    1.09</time>
   <time name="diis">    6.93    6.93</time>
   <time name="orth">    0.05    0.05</time>
   <time name="total">    9.93    9.94</time>
   <energy>
    <i name="e_fr_energy">    -48.85684021 </i>
    <i name="e_wo_entrp">    -48.86445081 </i>
    <i name="e_0_energy">    -48.85937708 </i>
   </energy>
  </scstep>
  <scstep>
   <time name="diag">    1.09    1.09</time>
   <time name="diis">    6.68    6.69</time>
   <time name="orth">    0.05    0.05</time>
   <time name="total">    9.68    9.69</time>
   <energy>
    <i name="e_fr_energy">    -48.85795702 </i>
    <i name="e_wo_entrp">    -48.86558521 </i>
    <i name="e_0_energy">    -48.86049975 </i>
   </energy>
  </scstep>
  <scstep>
   <time name="diag">    1.09    1.09</time>
   <time name="diis">    6.87    6.87</time>
   <time name="orth">    0.05    0.05</time>
   <time name="total">    9.87    9.87</time>
   <energy>
    <i name="e_fr_energy">    -48.85934983 </i>
    <i name="e_wo_entrp">    -48.86699844 </i>
    <i name="e_0_energy">    -48.86189937 </i>
   </energy>
  </scstep>
  <scstep>
   <time name="diag">    1.09    1.09</time>
   <time name="diis">    6.59    6.60</time>
   <time name="orth">    0.05    0.05</time>
   <time name="total">    9.61    9.61</time>
   <energy>
    <i name="e_fr_energy">    -48.86112787 </i>
    <i name="e_wo_entrp">    -48.86878643 </i>
    <i name="e_0_energy">    -48.86368073 </i>
   </energy>
  </scstep>
  <scstep>
   <time name="diag">    1.09    1.09</time>
   <time name="diis">    6.97    6.97</time>
   <time name="orth">    0.05    0.05</time>
   <time name="total">    9.98    9.99</time>
   <energy>
    <i name="e_fr_energy">    -48.86196524 </i>
    <i name="e_wo_entrp">    -48.86961731 </i>
    <i name="e_0_energy">    -48.86451593 </i>
   </energy>
  </scstep>
  <scstep>
   <time name="diag">    1.09    1.09</time>
   <time name="diis">    7.42    7.43</time>
   <time name="orth">    0.05    0.05</time>
   <time name="total">   10.42   10.44</time>
   <energy>
    <i name="e_fr_energy">    -48.86274683 </i>
    <i name="e_wo_entrp">    -48.87040118 </i>
    <i name="e_0_energy">    -48.86529828 </i>
   </energy>
  </scstep>
  <scstep>
   <time name="diag">    1.09    1.09</time>
   <time name="diis">    6.79    6.81</time>
   <time name="orth">    0.05    0.05</time>
   <time name="total">    9.79    9.81</time>
   <energy>
    <i name="e_fr_energy">    -48.86330224 </i>
    <i name="e_wo_entrp">    -48.87095167 </i>
    <i name="e_0_energy">    -48.86585205 </i>
   </energy>
  </scstep>
  <scstep>
   <time name="diag">    1.09    1.09</time>
   <time name="diis">    6.55    6.57</time>
   <time name="orth">    0.05    0.05</time>
   <time name="total">    9.56    9.58</time>
   <energy>
    <i name="e_fr_energy">    -48.86368152 </i>
    <i name="e_wo_entrp">    -48.87133051 </i>
    <i name="e_0_energy">    -48.86623119 </i>
   </energy>
  </scstep>
  <scstep>
   <time name="diag">    1.09    1.09</time>
   <time name="diis">    6.87    6.89</time>
   <time name="orth">    0.05    0.05</time>
   <time name="total">    9.88    9.91</time>
   <energy>
    <i name="e_fr_energy">    -48.86393703 </i>
    <i name="e_wo_entrp">    -48.87158749 </i>
    <i name="e_0_energy">    -48.86648718 </i>
   </energy>
  </scstep>
  <scstep>
   <time name="diag">    1.09    1.09</time>
   <time name="diis">    6.61    6.64</time>
   <time name="orth">    0.05    0.05</time>
   <time name="total">    9.62    9.66</time>
   <energy>
    <i name="e_fr_energy">    -48.86404935 </i>
    <i name="e_wo_entrp">    -48.87169933 </i>
    <i name="e_0_energy">    -48.86659935 </i>
   </energy>
  </scstep>
  <scstep>
   <time name="diag">    1.09    1.09</time>
   <time name="diis">    6.43    6.47</time>
   <time name="orth">    0.05    0.05</time>
   <time name="total">    9.44    9.49</time>
   <energy>
    <i name="e_fr_energy">    -48.86415241 </i>
    <i name="e_wo_entrp">    -48.87180292 </i>
    <i name="e_0_energy">    -48.86670258 </i>
   </energy>
  </scstep>
  <scstep>
   <time name="diag">    1.09    1.09</time>
   <time name="diis">    6.50    6.52</time>
   <time name="orth">    0.05    0.05</time>
   <time name="total">    9.51    9.54</time>
   <energy>
    <i name="e_fr_energy">    -48.86421412 </i>
    <i name="e_wo_entrp">    -48.87186456 </i>
    <i name="e_0_energy">    -48.86676427 </i>
   </energy>
  </scstep>
  <scstep>
   <time name="diag">    1.09    1.09</time>
   <time name="diis">    6.03    6.06</time>
   <time name="orth">    0.05    0.05</time>
   <time name="total">    9.04    9.08</time>
   <energy>
    <i name="e_fr_energy">    -48.86424516 </i>
    <i name="e_wo_entrp">    -48.87189554 </i>
    <i name="e_0_energy">    -48.86679529 </i>
   </energy>
  </scstep>
  <scstep>
   <time name="diag">    1.09    1.09</time>
   <time name="diis">    4.98    5.00</time>
   <time name="orth">    0.05    0.05</time>
   <time name="total">    8.00    8.02</time>
   <energy>
    <i name="e_fr_energy">    -48.86425743 </i>
    <i name="e_wo_entrp">    -48.87190773 </i>
    <i name="e_0_energy">    -48.86680753 </i>
   </energy>
  </scstep>
  <scstep>
   <time name="diag">    1.09    1.09</time>
   <time name="diis">    4.38    4.39</time>
   <time name="orth">    0.05    0.05</time>
   <time name="total">    7.39    7.42</time>
   <energy>
    <i name="e_fr_energy">    -48.86426282 </i>
    <i name="e_wo_entrp">    -48.87191308 </i>
    <i name="e_0_energy">    -48.86681290 </i>
   </energy>
  </scstep>
  <scstep>
   <time name="diag">    1.09    1.09</time>
   <time name="diis">    4.40    4.42</time>
   <time name="orth">    0.05    0.05</time>
   <time name="total">    7.43    7.45</time>
   <energy>
    <i name="e_fr_energy">    -48.86426676 </i>
    <i name="e_wo_entrp">    -48.87191707 </i>
    <i name="e_0_energy">    -48.86681686 </i>
   </energy>
  </scstep>
  <scstep>
   <time name="diag">    1.09    1.09</time>
   <time name="diis">    4.56    4.58</time>
   <time name="orth">    0.05    0.05</time>
   <time name="total">    7.60    7.62</time>
   <energy>
    <i name="e_fr_energy">    -48.86426810 </i>
    <i name="e_wo_entrp">    -48.87191835 </i>
    <i name="e_0_energy">    -48.86681818 </i>
   </energy>
  </scstep>
  <scstep>
   <time name="diag">    1.09    1.09</time>
   <time name="diis">    4.38    4.39</time>
   <time name="orth">    0.05    0.05</time>
   <time name="total">    7.42    7.44</time>
   <energy>
    <i name="e_fr_energy">    -48.86426892 </i>
    <i name="e_wo_entrp">    -48.87191920 </i>
    <i name="e_0_energy">    -48.86681901 </i>
   </energy>
  </scstep>
  <scstep>
   <time name="diag">    1.09    1.09</time>
   <time name="diis">    4.40    4.41</time>
   <time name="orth">    0.05    0.05</time>
   <time name="total">    7.44    7.48</time>
   <energy>
    <i name="e_fr_energy">    -48.86426960 </i>
    <i name="e_wo_entrp">    -48.87191986 </i>
    <i name="e_0_energy">    -48.86681969 </i>
   </energy>
  </scstep>
  <scstep>
   <time name="diag">    1.09    1.09</time>
   <time name="diis">    4.17    4.20</time>
   <time name="orth">    0.05    0.05</time>
   <time name="total">    7.24    7.27</time>
   <energy>
    <i name="e_fr_energy">    -48.86427019 </i>
    <i name="e_wo_entrp">    -48.87192046 </i>
    <i name="e_0_energy">    -48.86682028 </i>
   </energy>
  </scstep>
  <scstep>
   <time name="diag">    1.09    1.09</time>
   <time name="diis">    4.03    4.05</time>
   <time name="orth">    0.05    0.05</time>
   <time name="total">    7.10    7.13</time>
   <energy>
    <i name="e_fr_energy">    -48.86427053 </i>
    <i name="e_wo_entrp">    -48.87192080 </i>
    <i name="e_0_energy">    -48.86682062 </i>
   </energy>
  </scstep>
  <scstep>
   <time name="diag">    1.09    1.09</time>
   <time name="diis">    3.71    3.72</time>
   <time name="orth">    0.05    0.05</time>
   <time name="total">    6.78    6.80</time>
   <energy>
    <i name="e_fr_energy">    -48.86427078 </i>
    <i name="e_wo_entrp">    -48.87192105 </i>
    <i name="e_0_energy">    -48.86682087 </i>
   </energy>
  </scstep>
  <scstep>
   <time name="diag">    1.08    1.09</time>
   <time name="diis">    3.61    3.62</time>
   <time name="orth">    0.05    0.05</time>
   <time name="total">    6.68    6.71</time>
   <energy>
    <i name="e_fr_energy">    -48.86427096 </i>
    <i name="e_wo_entrp">    -48.87192122 </i>
    <i name="e_0_energy">    -48.86682105 </i>
   </energy>
  </scstep>
  <scstep>
   <time name="diag">    1.09    1.09</time>
   <time name="diis">    3.37    3.39</time>
   <time name="orth">    0.05    0.05</time>
   <time name="total">    5.67    5.70</time>
   <energy>
    <i name="alphaZ">     41.16232785 </i>
    <i name="ewald">  16481.89121974 </i>
    <i name="hartreedc"> -33458.83818988 </i>
    <i name="XCdc">    615.57726987 </i>
    <i name="pawpsdc">  17669.45337604 </i>
    <i name="pawaedc"> -19068.60780032 </i>
    <i name="eentropy">      0.00765026 </i>
    <i name="bandstr">   -991.72937173 </i>
    <i name="atom">  18662.21924712 </i>
    <i name="e_fr_energy">    -48.86427106 </i>
    <i name="e_wo_entrp">    -48.87192132 </i>
    <i name="e_0_energy">    -48.86682114 </i>
   </energy>
  </scstep>
  <structure>
   <crystal>
    <varray name="basis" >
     <v>      15.00000000       0.00000000       0.00000000 </v>
     <v>       0.00000000      15.00000000       0.00000000 </v>
     <v>       0.00000000       0.00000000      15.00000000 </v>
    </varray>
    <i name="volume">   3375.00000000 </i>
    <varray name="rec_basis" >
     <v>       0.06666667       0.00000000       0.00000000 </v>
     <v>       0.00000000       0.06666667       0.00000000 </v>
     <v>       0.00000000       0.00000000       0.06666667 </v>
    </varray>
   </crystal>
   <varray name="positions" >
    <v>       0.29447267       0.42155333       0.55857867 </v>
    <v>       0.36964467       0.54269600       0.48839800 </v>
    <v>       0.39027133       0.29399733       0.55696800 </v>
    <v>       0.52832333       0.50637267       0.48247200 </v>
    <v>       0.54741000       0.34816333       0.53075133 </v>
    <v>       0.45066733       0.43399200       0.61399867 </v>
    <v>       0.42119533       0.39653067       0.44055133 </v>
    <v>       0.21987200       0.56482867       0.55567333 </v>
    <v>       0.33847600       0.54711667       0.65662600 </v>
    <v>       0.35768000       0.68134667       0.56567267 </v>
    <v>       0.48856533       0.66334467       0.47806933 </v>
    <v>       0.62591400       0.49038133       0.60971667 </v>
    <v>       0.48445200       0.59138867       0.61354333 </v>
    <v>       0.73978000       0.50486667       0.65382267 </v>
    <v>       0.81696667       0.50492400       0.65960000 </v>
   </varray>
  </structure>
  <varray name="forces" >
   <v>      -0.10066054      -0.22541145      -0.01091101 </v>
   <v>       0.06411401       0.34702171       0.00857366 </v>
   <v>       0.20270610      -0.22804814       0.17592730 </v>
   <v>       0.37920949      -0.13423764      -0.00764392 </v>
   <v>       0.40679171      -0.02858143      -0.14339782 </v>
   <v>      -0.05780656       0.16233157      -0.01457371 </v>
   <v>      -0.25979445       0.03394185       0.27064343 </v>
   <v>       0.15261460       0.26588773      -0.14961459 </v>
   <v>       0.00357888      -0.10405634      -0.04804095 </v>
   <v>      -0.52558084       0.13148419       0.16469747 </v>
   <v>       0.05406737       0.16623095      -0.40660848 </v>
   <v>      -0.39547125      -0.11991143      -0.06913182 </v>
   <v>       0.32239851      -0.13543603       0.34814288 </v>
   <v>       0.30027628      -0.24714475      -0.14863263 </v>
   <v>      -0.54644332       0.11592922       0.03057018 </v>
  </varray>
  <varray name="stress" >
   <v>      -0.63481690      -0.74106986      -0.39099495 </v>
   <v>      -0.74106987       0.79249276      -0.40597301 </v>
   <v>      -0.39099495      -0.40597300      -0.01146252 </v>
  </varray>
  <energy>
   <i name="e_fr_energy">    -48.86427106 </i>
   <i name="e_wo_entrp">    -48.86682114 </i>
   <i name="e_0_energy">      0.00765026 </i>
  </energy>
  <time name="totalsc">  344.37  345.12</time>
  <eigenvalues>
   <array>
    <dimension dim="1">band</dimension>
    <dimension dim="2">kpoint</dimension>
    <dimension dim="3">spin</dimension>
    <field>eigene</field>
    <field>occ</field>
    <set>
     <set comment="spin 1">
      <set comment="kpoint 1">
       <r>  -28.4555    1.0000 </r>
       <r>  -13.8768    1.0000 </r>
       <r>  -11.3270    1.0000 </r>
       <r>  -11.1514    1.0000 </r>
       <r>  -10.9527    1.0000 </r>
       <r>  -10.1815    1.0000 </r>
       <r>   -8.6297    1.0000 </r>
       <r>   -8.2727    1.0000 </r>
       <r>   -7.7247    1.0000 </r>
       <r>   -7.5031    1.0000 </r>
       <r>   -7.3951    1.0000 </r>
       <r>   -7.3560    1.0000 </r>
       <r>   -7.2943    1.0000 </r>
       <r>   -7.1718    1.0000 </r>
       <r>   -7.0022    1.0000 </r>
       <r>   -6.9720    1.0000 </r>
       <r>   -6.8615    1.0000 </r>
       <r>   -6.8073    1.0000 </r>
       <r>   -6.7110    1.0000 </r>
       <r>   -6.6540    1.0000 </r>
       <r>   -6.6249    1.0000 </r>
       <r>   -6.5572    1.0000 </r>
       <r>   -6.5426    1.0000 </r>
       <r>   -6.4917    1.0000 </r>
       <r>   -6.4673    1.0000 </r>
       <r>   -6.4256    1.0000 </r>
       <r>   -6.3783    1.0000 </r>
       <r>   -6.3452    1.0000 </r>
       <r>   -6.2884    1.0000 </r>
       <r>   -6.2461    1.0000 </r>
       <r>   -6.2124    1.0000 </r>
       <r>   -6.1514    1.0000 </r>
       <r>   -6.1212    1.0000 </r>
       <r>   -6.0385    1.0000 </r>
       <r>   -6.0069    1.0000 </r>
       <r>   -5.8680    1.0000 </r>
       <r>   -5.7957    1.0000 </r>
       <r>   -5.7768    1.0000 </r>
       <r>   -5.6913    1.0000 </r>
       <r>   -5.6751    1.0000 </r>
       <r>   -5.5928    1.0000 </r>
       <r>   -5.5475    1.0000 </r>
       <r>   -5.5274    1.0000 </r>
       <r>   -5.5090    1.0000 </r>
       <r>   -5.4933    1.0000 </r>
       <r>   -5.4340    1.0000 </r>
       <r>   -5.4077    1.0000 </r>
       <r>   -5.3744    1.0000 </r>
       <r>   -5.3620    1.0000 </r>
       <r>   -5.3456    1.0000 </r>
       <r>   -5.3147    1.0000 </r>
       <r>   -5.2671    1.0000 </r>
       <r>   -5.2666    1.0000 </r>
       <r>   -5.2326    1.0000 </r>
       <r>   -5.2241    1.0000 </r>
       <r>   -5.1922    1.0000 </r>
       <r>   -5.1585    1.0000 </r>
       <r>   -5.1442    1.0000 </r>
       <r>   -5.1274    1.0000 </r>
       <r>   -5.0948    1.0000 </r>
       <r>   -5.0659    1.0000 </r>
       <r>   -5.0137    1.0000 </r>
       <r>   -5.0090    1.0000 </r>
       <r>   -5.0036    1.0000 </r>
       <r>   -4.9391    1.0000 </r>
       <r>   -4.9119    1.0000 </r>
       <r>   -4.8974    1.0000 </r>
       <r>   -4.8818    1.0000 </r>
       <r>   -4.8798    1.0000 </r>
       <r>   -4.8265    1.0000 </r>
       <r>   -4.8033    1.0000 </r>
       <r>   -4.7756    1.0000 </r>
       <r>   -4.7124    1.0000 </r>
       <r>   -4.5527    1.0000 </r>
       <r>   -4.2008    1.0000 </r>
       <r>   -4.0679    1.0000 </r>
       <r>   -3.6013    1.0000 </r>
       <r>   -3.0367   -0.0000 </r>
       <r>   -2.8401   -0.0000 </r>
       <r>   -2.5700   -0.0000 </r>
       <r>   -2.3791   -0.0000 </r>
       <r>   -1.9275   -0.0000 </r>
       <r>   -1.8943   -0.0000 </r>
       <r>   -1.7632   -0.0000 </r>
       <r>   -1.4152   -0.0000 </r>
       <r>   -1.0950   -0.0000 </r>
       <r>   -0.9602   -0.0000 </r>
       <r>   -0.6402    0.0000 </r>
       <r>   -0.4301    0.0000 </r>
       <r>   -0.2049    0.0000 </r>
       <r>   -0.1004    0.0000 </r>
       <r>    0.0894    0.0000 </r>
      </set>
     </set>
     <set comment="spin 2">
      <set comment="kpoint 1">
       <r>  -28.4361    1.0000 </r>
       <r>  -13.8407    1.0000 </r>
       <r>  -11.3015    1.0000 </r>
       <r>  -11.1206    1.0000 </r>
       <r>  -10.9043    1.0000 </r>
       <r>  -10.1387    1.0000 </r>
       <r>   -8.6062    1.0000 </r>
       <r>   -8.2255    1.0000 </r>
       <r>   -7.6832    1.0000 </r>
       <r>   -7.4798    1.0000 </r>
       <r>   -7.3702    1.0000 </r>
       <r>   -7.3086    1.0000 </r>
       <r>   -7.2580    1.0000 </r>
       <r>   -7.1430    1.0000 </r>
       <r>   -6.9731    1.0000 </r>
       <r>   -6.9434    1.0000 </r>
       <r>   -6.8350    1.0000 </r>
       <r>   -6.7773    1.0000 </r>
       <r>   -6.6833    1.0000 </r>
       <r>   -6.6350    1.0000 </r>
       <r>   -6.6053    1.0000 </r>
       <r>   -6.5283    1.0000 </r>
       <r>   -6.5169    1.0000 </r>
       <r>   -6.4703    1.0000 </r>
       <r>   -6.4406    1.0000 </r>
       <r>   -6.4007    1.0000 </r>
       <r>   -6.3556    1.0000 </r>
       <r>   -6.3194    1.0000 </r>
       <r>   -6.2581    1.0000 </r>
       <r>   -6.2247    1.0000 </r>
       <r>   -6.1859    1.0000 </r>
       <r>   -6.1307    1.0000 </r>
       <r>   -6.0873    1.0000 </r>
       <r>   -6.0149    1.0000 </r>
       <r>   -5.9815    1.0000 </r>
       <r>   -5.8423    1.0000 </r>
       <r>   -5.7720    1.0000 </r>
       <r>   -5.7461    1.0000 </r>
       <r>   -5.6694    1.0000 </r>
       <r>   -5.6423    1.0000 </r>
       <r>   -5.5658    1.0000 </r>
       <r>   -5.5193    1.0000 </r>
       <r>   -5.5028    1.0000 </r>
       <r>   -5.4828    1.0000 </r>
       <r>   -5.4634    1.0000 </r>
       <r>   -5.4086    1.0000 </r>
       <r>   -5.3750    1.0000 </r>
       <r>   -5.3480    1.0000 </r>
       <r>   -5.3245    1.0000 </r>
       <r>   -5.3198    1.0000 </r>
       <r>   -5.2916    1.0000 </r>
       <r>   -5.2459    1.0000 </r>
       <r>   -5.2390    1.0000 </r>
       <r>   -5.2097    1.0000 </r>
       <r>   -5.1969    1.0000 </r>
       <r>   -5.1685    1.0000 </r>
       <r>   -5.1349    1.0000 </r>
       <r>   -5.1235    1.0000 </r>
       <r>   -5.0994    1.0000 </r>
       <r>   -5.0673    1.0000 </r>
       <r>   -5.0407    1.0000 </r>
       <r>   -4.9934    1.0000 </r>
       <r>   -4.9881    1.0000 </r>
       <r>   -4.9699    1.0000 </r>
       <r>   -4.9125    1.0000 </r>
       <r>   -4.8864    1.0000 </r>
       <r>   -4.8593    1.0000 </r>
       <r>   -4.8561    1.0000 </r>
       <r>   -4.8438    1.0000 </r>
       <r>   -4.7888    1.0000 </r>
       <r>   -4.7696    1.0000 </r>
       <r>   -4.7537    1.0000 </r>
       <r>   -4.6822    1.0000 </r>
       <r>   -4.5108    1.0000 </r>
       <r>   -4.1340    1.0144 </r>
       <r>   -4.0323    0.9856 </r>
       <r>   -3.3954   -0.0000 </r>
       <r>   -2.9869   -0.0000 </r>
       <r>   -2.7883   -0.0000 </r>
       <r>   -2.4983   -0.0000 </r>
       <r>   -2.2956   -0.0000 </r>
       <r>   -1.8664   -0.0000 </r>
       <r>   -1.8415   -0.0000 </r>
       <r>   -1.6977   -0.0000 </r>
       <r>   -1.3032   -0.0000 </r>
       <r>   -0.9666    0.0000 </r>
       <r>   -0.8794    0.0000 </r>
       <r>   -0.5697    0.0000 </r>
       <r>   -0.3270    0.0000 </r>
       <r>   -0.1391    0.0000 </r>
       <r>   -0.0453    0.0000 </r>
       <r>    0.1416    0.0000 </r>
      </set>
     </set>
    </set>
   </array>
  </eigenvalues>
  <separator name="orbital magnetization" >
   <v name="MAGDIPOLOUT">      0.00000000      0.00000000      0.00000000</v>
  </separator>
  <dos>
   <i name="efermi">     -3.95394127 </i>
   <total>
    <array>
     <dimension dim="1">gridpoints</dimension>
     <dimension dim="2">spin</dimension>
     <field>energy</field>
     <field>total</field>
     <field>integrated</field>
     <set>
      <set comment="spin 1">
       <r>   -29.8854     0.0000     0.0000 </r>
       <r>   -29.7805     0.0000     0.0000 </r>
       <r>   -29.6757     0.0000     0.0000 </r>
       <r>   -29.5708     0.0000     0.0000 </r>
       <r>   -29.4659     0.0000     0.0000 </r>
       <r>   -29.3611     0.0000     0.0000 </r>
       <r>   -29.2562    -0.0000    -0.0000 </r>
       <r>   -29.1514    -0.0000    -0.0000 </r>
       <r>   -29.0465    -0.0000    -0.0000 </r>
       <r>   -28.9417    -0.0000    -0.0000 </r>
       <r>   -28.8368    -0.0000    -0.0000 </r>
       <r>   -28.7319    -0.0062    -0.0007 </r>
       <r>   -28.6271    -0.3345    -0.0357 </r>
       <r>   -28.5222     1.3340     0.1042 </r>
       <r>   -28.4174    14.2303     1.5963 </r>
       <r>   -28.3125     4.4344     2.0613 </r>
       <r>   -28.2077    -0.5599     2.0025 </r>
       <r>   -28.1028    -0.0242     2.0000 </r>
       <r>   -27.9980    -0.0001     2.0000 </r>
       <r>   -27.8931    -0.0000     2.0000 </r>
       <r>   -27.7882    -0.0000     2.0000 </r>
       <r>   -27.6834     0.0000     2.0000 </r>
       <r>   -27.5785     0.0000     2.0000 </r>
       <r>   -27.4737     0.0000     2.0000 </r>
       <r>   -27.3688     0.0000     2.0000 </r>
       <r>   -27.2640     0.0000     2.0000 </r>
       <r>   -27.1591     0.0000     2.0000 </r>
       <r>   -27.0542     0.0000     2.0000 </r>
       <r>   -26.9494     0.0000     2.0000 </r>
       <r>   -26.8445     0.0000     2.0000 </r>
       <r>   -26.7397     0.0000     2.0000 </r>
       <r>   -26.6348     0.0000     2.0000 </r>
       <r>   -26.5300     0.0000     2.0000 </r>
       <r>   -26.4251     0.0000     2.0000 </r>
       <r>   -26.3203     0.0000     2.0000 </r>
       <r>   -26.2154     0.0000     2.0000 </r>
       <r>   -26.1105     0.0000     2.0000 </r>
       <r>   -26.0057     0.0000     2.0000 </r>
       <r>   -25.9008     0.0000     2.0000 </r>
       <r>   -25.7960     0.0000     2.0000 </r>
       <r>   -25.6911     0.0000     2.0000 </r>
       <r>   -25.5863     0.0000     2.0000 </r>
       <r>   -25.4814     0.0000     2.0000 </r>
       <r>   -25.3766     0.0000     2.0000 </r>
       <r>   -25.2717     0.0000     2.0000 </r>
       <r>   -25.1668     0.0000     2.0000 </r>
       <r>   -25.0620     0.0000     2.0000 </r>
       <r>   -24.9571     0.0000     2.0000 </r>
       <r>   -24.8523     0.0000     2.0000 </r>
       <r>   -24.7474     0.0000     2.0000 </r>
       <r>   -24.6426     0.0000     2.0000 </r>
       <r>   -24.5377     0.0000     2.0000 </r>
       <r>   -24.4328     0.0000     2.0000 </r>
       <r>   -24.3280     0.0000     2.0000 </r>
       <r>   -24.2231     0.0000     2.0000 </r>
       <r>   -24.1183     0.0000     2.0000 </r>
       <r>   -24.0134     0.0000     2.0000 </r>
       <r>   -23.9086     0.0000     2.0000 </r>
       <r>   -23.8037     0.0000     2.0000 </r>
       <r>   -23.6989     0.0000     2.0000 </r>
       <r>   -23.5940     0.0000     2.0000 </r>
       <r>   -23.4891     0.0000     2.0000 </r>
       <r>   -23.3843     0.0000     2.0000 </r>
       <r>   -23.2794     0.0000     2.0000 </r>
       <r>   -23.1746     0.0000     2.0000 </r>
       <r>   -23.0697     0.0000     2.0000 </r>
       <r>   -22.9649     0.0000     2.0000 </r>
       <r>   -22.8600     0.0000     2.0000 </r>
       <r>   -22.7551     0.0000     2.0000 </r>
       <r>   -22.6503     0.0000     2.0000 </r>
       <r>   -22.5454     0.0000     2.0000 </r>
       <r>   -22.4406     0.0000     2.0000 </r>
       <r>   -22.3357     0.0000     2.0000 </r>
       <r>   -22.2309     0.0000     2.0000 </r>
       <r>   -22.1260     0.0000     2.0000 </r>
       <r>   -22.0212     0.0000     2.0000 </r>
       <r>   -21.9163     0.0000     2.0000 </r>
       <r>   -21.8114     0.0000     2.0000 </r>
       <r>   -21.7066     0.0000     2.0000 </r>
       <r>   -21.6017     0.0000     2.0000 </r>
       <r>   -21.4969     0.0000     2.0000 </r>
       <r>   -21.3920     0.0000     2.0000 </r>
       <r>   -21.2872     0.0000     2.0000 </r>
       <r>   -21.1823     0.0000     2.0000 </r>
       <r>   -21.0775     0.0000     2.0000 </r>
       <r>   -20.9726     0.0000     2.0000 </r>
       <r>   -20.8677     0.0000     2.0000 </r>
       <r>   -20.7629     0.0000     2.0000 </r>
       <r>   -20.6580     0.0000     2.0000 </r>
       <r>   -20.5532     0.0000     2.0000 </r>
       <r>   -20.4483     0.0000     2.0000 </r>
       <r>   -20.3435     0.0000     2.0000 </r>
       <r>   -20.2386     0.0000     2.0000 </r>
       <r>   -20.1337     0.0000     2.0000 </r>
       <r>   -20.0289     0.0000     2.0000 </r>
       <r>   -19.9240     0.0000     2.0000 </r>
       <r>   -19.8192     0.0000     2.0000 </r>
       <r>   -19.7143     0.0000     2.0000 </r>
       <r>   -19.6095     0.0000     2.0000 </r>
       <r>   -19.5046     0.0000     2.0000 </r>
       <r>   -19.3998     0.0000     2.0000 </r>
       <r>   -19.2949     0.0000     2.0000 </r>
       <r>   -19.1900     0.0000     2.0000 </r>
       <r>   -19.0852     0.0000     2.0000 </r>
       <r>   -18.9803     0.0000     2.0000 </r>
       <r>   -18.8755     0.0000     2.0000 </r>
       <r>   -18.7706     0.0000     2.0000 </r>
       <r>   -18.6658     0.0000     2.0000 </r>
       <r>   -18.5609     0.0000     2.0000 </r>
       <r>   -18.4561     0.0000     2.0000 </r>
       <r>   -18.3512     0.0000     2.0000 </r>
       <r>   -18.2463     0.0000     2.0000 </r>
       <r>   -18.1415     0.0000     2.0000 </r>
       <r>   -18.0366     0.0000     2.0000 </r>
       <r>   -17.9318     0.0000     2.0000 </r>
       <r>   -17.8269     0.0000     2.0000 </r>
       <r>   -17.7221     0.0000     2.0000 </r>
       <r>   -17.6172     0.0000     2.0000 </r>
       <r>   -17.5123     0.0000     2.0000 </r>
       <r>   -17.4075     0.0000     2.0000 </r>
       <r>   -17.3026     0.0000     2.0000 </r>
       <r>   -17.1978     0.0000     2.0000 </r>
       <r>   -17.0929     0.0000     2.0000 </r>
       <r>   -16.9881     0.0000     2.0000 </r>
       <r>   -16.8832     0.0000     2.0000 </r>
       <r>   -16.7784     0.0000     2.0000 </r>
       <r>   -16.6735     0.0000     2.0000 </r>
       <r>   -16.5686     0.0000     2.0000 </r>
       <r>   -16.4638     0.0000     2.0000 </r>
       <r>   -16.3589     0.0000     2.0000 </r>
       <r>   -16.2541     0.0000     2.0000 </r>
       <r>   -16.1492     0.0000     2.0000 </r>
       <r>   -16.0444     0.0000     2.0000 </r>
       <r>   -15.9395     0.0000     2.0000 </r>
       <r>   -15.8346     0.0000     2.0000 </r>
       <r>   -15.7298     0.0000     2.0000 </r>
       <r>   -15.6249     0.0000     2.0000 </r>
       <r>   -15.5201     0.0000     2.0000 </r>
       <r>   -15.4152     0.0000     2.0000 </r>
       <r>   -15.3104     0.0000     2.0000 </r>
       <r>   -15.2055     0.0000     2.0000 </r>
       <r>   -15.1007     0.0000     2.0000 </r>
       <r>   -14.9958     0.0000     2.0000 </r>
       <r>   -14.8909     0.0000     2.0000 </r>
       <r>   -14.7861     0.0000     2.0000 </r>
       <r>   -14.6812    -0.0000     2.0000 </r>
       <r>   -14.5764    -0.0000     2.0000 </r>
       <r>   -14.4715    -0.0000     2.0000 </r>
       <r>   -14.3667    -0.0000     2.0000 </r>
       <r>   -14.2618    -0.0000     2.0000 </r>
       <r>   -14.1570    -0.0052     1.9995 </r>
       <r>   -14.0521    -0.3061     1.9674 </r>
       <r>   -13.9472     1.0500     2.0775 </r>
       <r>   -13.8424    14.0105     3.5465 </r>
       <r>   -13.7375     4.9353     4.0640 </r>
       <r>   -13.6327    -0.5822     4.0030 </r>
       <r>   -13.5278    -0.0285     4.0000 </r>
       <r>   -13.4230    -0.0001     4.0000 </r>
       <r>   -13.3181    -0.0000     4.0000 </r>
       <r>   -13.2132    -0.0000     4.0000 </r>
       <r>   -13.1084     0.0000     4.0000 </r>
       <r>   -13.0035     0.0000     4.0000 </r>
       <r>   -12.8987     0.0000     4.0000 </r>
       <r>   -12.7938     0.0000     4.0000 </r>
       <r>   -12.6890     0.0000     4.0000 </r>
       <r>   -12.5841     0.0000     4.0000 </r>
       <r>   -12.4793     0.0000     4.0000 </r>
       <r>   -12.3744     0.0000     4.0000 </r>
       <r>   -12.2695     0.0000     4.0000 </r>
       <r>   -12.1647    -0.0000     4.0000 </r>
       <r>   -12.0598    -0.0000     4.0000 </r>
       <r>   -11.9550    -0.0000     4.0000 </r>
       <r>   -11.8501    -0.0000     4.0000 </r>
       <r>   -11.7453    -0.0000     4.0000 </r>
       <r>   -11.6404    -0.0008     3.9999 </r>
       <r>   -11.5355    -0.1136     3.9880 </r>
       <r>   -11.4307    -0.4359     3.9423 </r>
       <r>   -11.3258     9.9526     4.9859 </r>
       <r>   -11.2210    11.0350     6.1430 </r>
       <r>   -11.1161    13.1928     7.5263 </r>
       <r>   -11.0113     6.7772     8.2369 </r>
       <r>   -10.9064    13.9671     9.7015 </r>
       <r>   -10.8016     3.3643    10.0542 </r>
       <r>   -10.6967    -0.5005    10.0018 </r>
       <r>   -10.5918    -0.0167    10.0000 </r>
       <r>   -10.4870    -0.0013     9.9999 </r>
       <r>   -10.3821    -0.1482     9.9843 </r>
       <r>   -10.2773    -0.2344     9.9597 </r>
       <r>   -10.1724    11.3849    11.1535 </r>
       <r>   -10.0676     8.7253    12.0684 </r>
       <r>    -9.9627    -0.5733    12.0083 </r>
       <r>    -9.8579    -0.0788    12.0000 </r>
       <r>    -9.7530    -0.0004    12.0000 </r>
       <r>    -9.6481    -0.0000    12.0000 </r>
       <r>    -9.5433    -0.0000    12.0000 </r>
       <r>    -9.4384    -0.0000    12.0000 </r>
       <r>    -9.3336    -0.0000    12.0000 </r>
       <r>    -9.2287    -0.0000    12.0000 </r>
       <r>    -9.1239    -0.0000    12.0000 </r>
       <r>    -9.0190    -0.0000    12.0000 </r>
       <r>    -8.9141    -0.0041    11.9996 </r>
       <r>    -8.8093    -0.2740    11.9708 </r>
       <r>    -8.7044     0.7479    12.0493 </r>
       <r>    -8.5996    13.6908    13.4848 </r>
       <r>    -8.4947     5.4808    14.0595 </r>
       <r>    -8.3899    -1.2007    13.9336 </r>
       <r>    -8.2850     8.1986    14.7933 </r>
       <r>    -8.1802    11.8048    16.0311 </r>
       <r>    -8.0753    -0.1310    16.0174 </r>
       <r>    -7.9704    -0.1908    15.9974 </r>
       <r>    -7.8656    -0.5750    15.9371 </r>
       <r>    -7.7607     4.7084    16.4308 </r>
       <r>    -7.6559    13.6047    17.8573 </r>
       <r>    -7.5510     3.7136    18.2467 </r>
       <r>    -7.4462    16.5529    19.9824 </r>
       <r>    -7.3413    31.8868    23.3259 </r>
       <r>    -7.2364    26.0137    26.0536 </r>
       <r>    -7.1316    14.3401    27.5573 </r>
       <r>    -7.0267    12.0448    28.8202 </r>
       <r>    -6.9219    28.4335    31.8017 </r>
       <r>    -6.8170    25.3754    34.4624 </r>
       <r>    -6.7122    25.5485    37.1413 </r>
       <r>    -6.6073    39.4838    41.2815 </r>
       <r>    -6.5025    51.8435    46.7176 </r>
       <r>    -6.3976    53.1176    52.2873 </r>
       <r>    -6.2927    45.2799    57.0351 </r>
       <r>    -6.1879    45.4156    61.7972 </r>
       <r>    -6.0830    39.9552    65.9868 </r>
       <r>    -5.9782    31.6019    69.3004 </r>
       <r>    -5.8733    15.9025    70.9679 </r>
       <r>    -5.7685    34.5736    74.5932 </r>
       <r>    -5.6636    38.5513    78.6355 </r>
       <r>    -5.5588    43.4692    83.1935 </r>
       <r>    -5.4539    67.1811    90.2379 </r>
       <r>    -5.3490    72.1134    97.7994 </r>
       <r>    -5.2442    82.1790   106.4164 </r>
       <r>    -5.1393    85.2187   115.3521 </r>
       <r>    -5.0345    73.5022   123.0592 </r>
       <r>    -4.9296    73.5518   130.7716 </r>
       <r>    -4.8248    84.0278   139.5824 </r>
       <r>    -4.7199    50.1746   144.8435 </r>
       <r>    -4.6150    13.5692   146.2663 </r>
       <r>    -4.5102    13.3747   147.6687 </r>
       <r>    -4.4053     3.5786   148.0440 </r>
       <r>    -4.3005    -0.9196   147.9475 </r>
       <r>    -4.1956    10.1950   149.0166 </r>
       <r>    -4.0908    15.9534   150.6894 </r>
       <r>    -3.9859    12.4955   151.9996 </r>
       <r>    -3.8811     0.2270   152.0234 </r>
       <r>    -3.7762    -0.5345   151.9673 </r>
       <r>    -3.6713     1.0756   152.0801 </r>
       <r>    -3.5665    14.0357   153.5518 </r>
       <r>    -3.4616     4.8821   154.0638 </r>
       <r>    -3.3568    -0.5806   154.0029 </r>
       <r>    -3.2519    -0.1179   153.9905 </r>
       <r>    -3.1471    -0.5366   153.9343 </r>
       <r>    -3.0422     9.1343   154.8920 </r>
       <r>    -2.9374    10.6123   156.0048 </r>
       <r>    -2.8325    10.8348   157.1409 </r>
       <r>    -2.7276     8.3762   158.0192 </r>
       <r>    -2.6228     2.0622   158.2354 </r>
       <r>    -2.5179    13.9473   159.6979 </r>
       <r>    -2.4131     7.7395   160.5094 </r>
       <r>    -2.3082    13.5224   161.9273 </r>
       <r>    -2.2034     0.9929   162.0314 </r>
       <r>    -2.0985    -0.7736   161.9503 </r>
       <r>    -1.9936     0.9950   162.0547 </r>
       <r>    -1.8888    24.5349   164.6273 </r>
       <r>    -1.7839    20.5687   166.7840 </r>
       <r>    -1.6791    11.6969   168.0105 </r>
       <r>    -1.5742    -0.3346   167.9754 </r>
       <r>    -1.4694     2.2979   168.2164 </r>
       <r>    -1.3645    14.5990   169.7472 </r>
       <r>    -1.2597     2.4887   170.0081 </r>
       <r>    -1.1548     1.3014   170.1446 </r>
       <r>    -1.0499    14.4731   171.6622 </r>
       <r>    -0.9451    15.6983   173.3083 </r>
       <r>    -0.8402     7.1369   174.0566 </r>
       <r>    -0.7354    -0.8474   173.9678 </r>
       <r>    -0.6305    11.2498   175.1474 </r>
       <r>    -0.5257     8.4067   176.0289 </r>
       <r>    -0.4208    10.7387   177.1549 </r>
       <r>    -0.3159     7.9929   177.9930 </r>
       <r>    -0.2111     8.0613   178.8383 </r>
       <r>    -0.1062    19.9580   180.9310 </r>
       <r>    -0.0014    10.5496   182.0372 </r>
       <r>     0.1035    11.5725   183.2506 </r>
       <r>     0.2083     7.8205   184.0706 </r>
       <r>     0.3132    -0.6081   184.0069 </r>
       <r>     0.4180    -0.0652   184.0000 </r>
       <r>     0.5229    -0.0003   184.0000 </r>
       <r>     0.6278    -0.0000   184.0000 </r>
       <r>     0.7326    -0.0000   184.0000 </r>
       <r>     0.8375     0.0000   184.0000 </r>
       <r>     0.9423     0.0000   184.0000 </r>
       <r>     1.0472     0.0000   184.0000 </r>
       <r>     1.1520     0.0000   184.0000 </r>
       <r>     1.2569     0.0000   184.0000 </r>
       <r>     1.3617     0.0000   184.0000 </r>
       <r>     1.4666     0.0000   184.0000 </r>
       <r>     1.5715     0.0000   184.0000 </r>
      </set>
      <set comment="spin 2">
       <r>   -29.8854     0.0000     0.0000 </r>
       <r>   -29.7805     0.0000     0.0000 </r>
       <r>   -29.6757     0.0000     0.0000 </r>
       <r>   -29.5708     0.0000     0.0000 </r>
       <r>   -29.4659     0.0000     0.0000 </r>
       <r>   -29.3611     0.0000     0.0000 </r>
       <r>   -29.2562    -0.0000    -0.0000 </r>
       <r>   -29.1514    -0.0000    -0.0000 </r>
       <r>   -29.0465    -0.0000    -0.0000 </r>
       <r>   -28.9417    -0.0000    -0.0000 </r>
       <r>   -28.8368    -0.0000    -0.0000 </r>
       <r>   -28.7319    -0.0022    -0.0002 </r>
       <r>   -28.6271    -0.1996    -0.0212 </r>
       <r>   -28.5222     0.1235    -0.0082 </r>
       <r>   -28.4174    12.5803     1.3109 </r>
       <r>   -28.3125     7.2477     2.0709 </r>
       <r>   -28.2077    -0.6212     2.0057 </r>
       <r>   -28.1028    -0.0545     2.0000 </r>
       <r>   -27.9980    -0.0002     2.0000 </r>
       <r>   -27.8931    -0.0000     2.0000 </r>
       <r>   -27.7882    -0.0000     2.0000 </r>
       <r>   -27.6834     0.0000     2.0000 </r>
       <r>   -27.5785     0.0000     2.0000 </r>
       <r>   -27.4737     0.0000     2.0000 </r>
       <r>   -27.3688     0.0000     2.0000 </r>
       <r>   -27.2640     0.0000     2.0000 </r>
       <r>   -27.1591     0.0000     2.0000 </r>
       <r>   -27.0542     0.0000     2.0000 </r>
       <r>   -26.9494     0.0000     2.0000 </r>
       <r>   -26.8445     0.0000     2.0000 </r>
       <r>   -26.7397     0.0000     2.0000 </r>
       <r>   -26.6348     0.0000     2.0000 </r>
       <r>   -26.5300     0.0000     2.0000 </r>
       <r>   -26.4251     0.0000     2.0000 </r>
       <r>   -26.3203     0.0000     2.0000 </r>
       <r>   -26.2154     0.0000     2.0000 </r>
       <r>   -26.1105     0.0000     2.0000 </r>
       <r>   -26.0057     0.0000     2.0000 </r>
       <r>   -25.9008     0.0000     2.0000 </r>
       <r>   -25.7960     0.0000     2.0000 </r>
       <r>   -25.6911     0.0000     2.0000 </r>
       <r>   -25.5863     0.0000     2.0000 </r>
       <r>   -25.4814     0.0000     2.0000 </r>
       <r>   -25.3766     0.0000     2.0000 </r>
       <r>   -25.2717     0.0000     2.0000 </r>
       <r>   -25.1668     0.0000     2.0000 </r>
       <r>   -25.0620     0.0000     2.0000 </r>
       <r>   -24.9571     0.0000     2.0000 </r>
       <r>   -24.8523     0.0000     2.0000 </r>
       <r>   -24.7474     0.0000     2.0000 </r>
       <r>   -24.6426     0.0000     2.0000 </r>
       <r>   -24.5377     0.0000     2.0000 </r>
       <r>   -24.4328     0.0000     2.0000 </r>
       <r>   -24.3280     0.0000     2.0000 </r>
       <r>   -24.2231     0.0000     2.0000 </r>
       <r>   -24.1183     0.0000     2.0000 </r>
       <r>   -24.0134     0.0000     2.0000 </r>
       <r>   -23.9086     0.0000     2.0000 </r>
       <r>   -23.8037     0.0000     2.0000 </r>
       <r>   -23.6989     0.0000     2.0000 </r>
       <r>   -23.5940     0.0000     2.0000 </r>
       <r>   -23.4891     0.0000     2.0000 </r>
       <r>   -23.3843     0.0000     2.0000 </r>
       <r>   -23.2794     0.0000     2.0000 </r>
       <r>   -23.1746     0.0000     2.0000 </r>
       <r>   -23.0697     0.0000     2.0000 </r>
       <r>   -22.9649     0.0000     2.0000 </r>
       <r>   -22.8600     0.0000     2.0000 </r>
       <r>   -22.7551     0.0000     2.0000 </r>
       <r>   -22.6503     0.0000     2.0000 </r>
       <r>   -22.5454     0.0000     2.0000 </r>
       <r>   -22.4406     0.0000     2.0000 </r>
       <r>   -22.3357     0.0000     2.0000 </r>
       <r>   -22.2309     0.0000     2.0000 </r>
       <r>   -22.1260     0.0000     2.0000 </r>
       <r>   -22.0212     0.0000     2.0000 </r>
       <r>   -21.9163     0.0000     2.0000 </r>
       <r>   -21.8114     0.0000     2.0000 </r>
       <r>   -21.7066     0.0000     2.0000 </r>
       <r>   -21.6017     0.0000     2.0000 </r>
       <r>   -21.4969     0.0000     2.0000 </r>
       <r>   -21.3920     0.0000     2.0000 </r>
       <r>   -21.2872     0.0000     2.0000 </r>
       <r>   -21.1823     0.0000     2.0000 </r>
       <r>   -21.0775     0.0000     2.0000 </r>
       <r>   -20.9726     0.0000     2.0000 </r>
       <r>   -20.8677     0.0000     2.0000 </r>
       <r>   -20.7629     0.0000     2.0000 </r>
       <r>   -20.6580     0.0000     2.0000 </r>
       <r>   -20.5532     0.0000     2.0000 </r>
       <r>   -20.4483     0.0000     2.0000 </r>
       <r>   -20.3435     0.0000     2.0000 </r>
       <r>   -20.2386     0.0000     2.0000 </r>
       <r>   -20.1337     0.0000     2.0000 </r>
       <r>   -20.0289     0.0000     2.0000 </r>
       <r>   -19.9240     0.0000     2.0000 </r>
       <r>   -19.8192     0.0000     2.0000 </r>
       <r>   -19.7143     0.0000     2.0000 </r>
       <r>   -19.6095     0.0000     2.0000 </r>
       <r>   -19.5046     0.0000     2.0000 </r>
       <r>   -19.3998     0.0000     2.0000 </r>
       <r>   -19.2949     0.0000     2.0000 </r>
       <r>   -19.1900     0.0000     2.0000 </r>
       <r>   -19.0852     0.0000     2.0000 </r>
       <r>   -18.9803     0.0000     2.0000 </r>
       <r>   -18.8755     0.0000     2.0000 </r>
       <r>   -18.7706     0.0000     2.0000 </r>
       <r>   -18.6658     0.0000     2.0000 </r>
       <r>   -18.5609     0.0000     2.0000 </r>
       <r>   -18.4561     0.0000     2.0000 </r>
       <r>   -18.3512     0.0000     2.0000 </r>
       <r>   -18.2463     0.0000     2.0000 </r>
       <r>   -18.1415     0.0000     2.0000 </r>
       <r>   -18.0366     0.0000     2.0000 </r>
       <r>   -17.9318     0.0000     2.0000 </r>
       <r>   -17.8269     0.0000     2.0000 </r>
       <r>   -17.7221     0.0000     2.0000 </r>
       <r>   -17.6172     0.0000     2.0000 </r>
       <r>   -17.5123     0.0000     2.0000 </r>
       <r>   -17.4075     0.0000     2.0000 </r>
       <r>   -17.3026     0.0000     2.0000 </r>
       <r>   -17.1978     0.0000     2.0000 </r>
       <r>   -17.0929     0.0000     2.0000 </r>
       <r>   -16.9881     0.0000     2.0000 </r>
       <r>   -16.8832     0.0000     2.0000 </r>
       <r>   -16.7784     0.0000     2.0000 </r>
       <r>   -16.6735     0.0000     2.0000 </r>
       <r>   -16.5686     0.0000     2.0000 </r>
       <r>   -16.4638     0.0000     2.0000 </r>
       <r>   -16.3589     0.0000     2.0000 </r>
       <r>   -16.2541     0.0000     2.0000 </r>
       <r>   -16.1492     0.0000     2.0000 </r>
       <r>   -16.0444     0.0000     2.0000 </r>
       <r>   -15.9395     0.0000     2.0000 </r>
       <r>   -15.8346     0.0000     2.0000 </r>
       <r>   -15.7298     0.0000     2.0000 </r>
       <r>   -15.6249     0.0000     2.0000 </r>
       <r>   -15.5201     0.0000     2.0000 </r>
       <r>   -15.4152     0.0000     2.0000 </r>
       <r>   -15.3104     0.0000     2.0000 </r>
       <r>   -15.2055     0.0000     2.0000 </r>
       <r>   -15.1007     0.0000     2.0000 </r>
       <r>   -14.9958     0.0000     2.0000 </r>
       <r>   -14.8909     0.0000     2.0000 </r>
       <r>   -14.7861     0.0000     2.0000 </r>
       <r>   -14.6812    -0.0000     2.0000 </r>
       <r>   -14.5764    -0.0000     2.0000 </r>
       <r>   -14.4715    -0.0000     2.0000 </r>
       <r>   -14.3667    -0.0000     2.0000 </r>
       <r>   -14.2618    -0.0000     2.0000 </r>
       <r>   -14.1570    -0.0007     1.9999 </r>
       <r>   -14.0521    -0.1032     1.9891 </r>
       <r>   -13.9472    -0.4802     1.9388 </r>
       <r>   -13.8424     9.8565     2.9723 </r>
       <r>   -13.7375    10.3383     4.0563 </r>
       <r>   -13.6327    -0.4205     4.0122 </r>
       <r>   -13.5278    -0.1156     4.0001 </r>
       <r>   -13.4230    -0.0008     4.0000 </r>
       <r>   -13.3181    -0.0000     4.0000 </r>
       <r>   -13.2132    -0.0000     4.0000 </r>
       <r>   -13.1084     0.0000     4.0000 </r>
       <r>   -13.0035     0.0000     4.0000 </r>
       <r>   -12.8987     0.0000     4.0000 </r>
       <r>   -12.7938     0.0000     4.0000 </r>
       <r>   -12.6890     0.0000     4.0000 </r>
       <r>   -12.5841     0.0000     4.0000 </r>
       <r>   -12.4793     0.0000     4.0000 </r>
       <r>   -12.3744     0.0000     4.0000 </r>
       <r>   -12.2695     0.0000     4.0000 </r>
       <r>   -12.1647    -0.0000     4.0000 </r>
       <r>   -12.0598    -0.0000     4.0000 </r>
       <r>   -11.9550    -0.0000     4.0000 </r>
       <r>   -11.8501    -0.0000     4.0000 </r>
       <r>   -11.7453    -0.0000     4.0000 </r>
       <r>   -11.6404    -0.0002     4.0000 </r>
       <r>   -11.5355    -0.0435     3.9954 </r>
       <r>   -11.4307    -0.6214     3.9303 </r>
       <r>   -11.3258     6.2657     4.5873 </r>
       <r>   -11.2210    12.8198     5.9315 </r>
       <r>   -11.1161    11.0524     7.0904 </r>
       <r>   -11.0113     8.7040     8.0031 </r>
       <r>   -10.9064     9.2576     8.9738 </r>
       <r>   -10.8016    10.3164    10.0555 </r>
       <r>   -10.6967    -0.4110    10.0124 </r>
       <r>   -10.5918    -0.1176    10.0001 </r>
       <r>   -10.4870    -0.0010    10.0000 </r>
       <r>   -10.3821    -0.0293     9.9969 </r>
       <r>   -10.2773    -0.5860     9.9355 </r>
       <r>   -10.1724     5.0314    10.4630 </r>
       <r>   -10.0676    13.9640    11.9273 </r>
       <r>    -9.9627     0.9996    12.0321 </r>
       <r>    -9.8579    -0.3009    12.0005 </r>
       <r>    -9.7530    -0.0050    12.0000 </r>
       <r>    -9.6481    -0.0000    12.0000 </r>
       <r>    -9.5433    -0.0000    12.0000 </r>
       <r>    -9.4384    -0.0000    12.0000 </r>
       <r>    -9.3336    -0.0000    12.0000 </r>
       <r>    -9.2287    -0.0000    12.0000 </r>
       <r>    -9.1239    -0.0000    12.0000 </r>
       <r>    -9.0190    -0.0000    12.0000 </r>
       <r>    -8.9141    -0.0011    11.9999 </r>
       <r>    -8.8093    -0.1367    11.9855 </r>
       <r>    -8.7044    -0.3046    11.9536 </r>
       <r>    -8.5996    11.0455    13.1118 </r>
       <r>    -8.4947     9.0970    14.0657 </r>
       <r>    -8.3899    -0.9409    13.9670 </r>
       <r>    -8.2850     1.8803    14.1642 </r>
       <r>    -8.1802    14.5191    15.6866 </r>
       <r>    -8.0753     3.5149    16.0551 </r>
       <r>    -7.9704    -0.5119    16.0015 </r>
       <r>    -7.8656    -0.2724    15.9729 </r>
       <r>    -7.7607     0.5711    16.0328 </r>
       <r>    -7.6559    13.1547    17.4121 </r>
       <r>    -7.5510     6.6402    18.1084 </r>
       <r>    -7.4462    13.2045    19.4930 </r>
       <r>    -7.3413    23.8876    21.9978 </r>
       <r>    -7.2364    31.7309    25.3249 </r>
       <r>    -7.1316    18.1392    27.2269 </r>
       <r>    -7.0267    10.0172    28.2773 </r>
       <r>    -6.9219    26.3582    31.0411 </r>
       <r>    -6.8170    25.3174    33.6958 </r>
       <r>    -6.7122    25.9731    36.4192 </r>
       <r>    -6.6073    36.9665    40.2954 </r>
       <r>    -6.5025    47.7581    45.3031 </r>
       <r>    -6.3976    55.0811    51.0787 </r>
       <r>    -6.2927    45.8362    55.8849 </r>
       <r>    -6.1879    45.6651    60.6732 </r>
       <r>    -6.0830    41.0729    64.9799 </r>
       <r>    -5.9782    35.3222    68.6837 </r>
       <r>    -5.8733    17.2929    70.4969 </r>
       <r>    -5.7685    28.7565    73.5122 </r>
       <r>    -5.6636    39.3137    77.6345 </r>
       <r>    -5.5588    38.7859    81.7015 </r>
       <r>    -5.4539    63.9947    88.4117 </r>
       <r>    -5.3490    67.5983    95.4998 </r>
       <r>    -5.2442    84.0698   104.3150 </r>
       <r>    -5.1393    86.1404   113.3474 </r>
       <r>    -5.0345    76.0564   121.3223 </r>
       <r>    -4.9296    69.0948   128.5673 </r>
       <r>    -4.8248    80.8038   137.0401 </r>
       <r>    -4.7199    64.9342   143.8489 </r>
       <r>    -4.6150    20.5489   146.0035 </r>
       <r>    -4.5102     9.9907   147.0511 </r>
       <r>    -4.4053     9.6181   148.0596 </r>
       <r>    -4.3005    -0.8543   147.9701 </r>
       <r>    -4.1956     1.2683   148.1030 </r>
       <r>    -4.0908    16.5213   149.8354 </r>
       <r>    -3.9859    18.3134   151.7557 </r>
       <r>    -3.8811     2.8666   152.0563 </r>
       <r>    -3.7762    -0.5196   152.0018 </r>
       <r>    -3.6713    -0.0232   151.9993 </r>
       <r>    -3.5665    -0.3383   151.9639 </r>
       <r>    -3.4616     1.3729   152.1078 </r>
       <r>    -3.3568    14.2553   153.6026 </r>
       <r>    -3.2519     4.3597   154.0597 </r>
       <r>    -3.1471    -0.9844   153.9565 </r>
       <r>    -3.0422     2.3458   154.2025 </r>
       <r>    -2.9374    14.0833   155.6792 </r>
       <r>    -2.8325     6.6637   156.3779 </r>
       <r>    -2.7276    13.9601   157.8417 </r>
       <r>    -2.6228     1.2258   157.9703 </r>
       <r>    -2.5179     6.6639   158.6690 </r>
       <r>    -2.4131    12.0695   159.9346 </r>
       <r>    -2.3082     8.3529   160.8104 </r>
       <r>    -2.2034    11.6355   162.0305 </r>
       <r>    -2.0985    -0.1867   162.0109 </r>
       <r>    -1.9936    -1.2833   161.8763 </r>
       <r>    -1.8888     9.7621   162.8999 </r>
       <r>    -1.7839    27.6643   165.8007 </r>
       <r>    -1.6791    15.0247   167.3761 </r>
       <r>    -1.5742     6.6301   168.0713 </r>
       <r>    -1.4694    -1.0116   167.9653 </r>
       <r>    -1.3645     1.7476   168.1485 </r>
       <r>    -1.2597    14.4636   169.6651 </r>
       <r>    -1.1548     3.5090   170.0331 </r>
       <r>    -1.0499    -0.6104   169.9691 </r>
       <r>    -0.9451    14.2824   171.4667 </r>
       <r>    -0.8402    21.1021   173.6793 </r>
       <r>    -0.7354     3.2934   174.0247 </r>
       <r>    -0.6305     1.2408   174.1548 </r>
       <r>    -0.5257    14.3004   175.6543 </r>
       <r>    -0.4208     3.4954   176.0208 </r>
       <r>    -0.3159    10.8147   177.1548 </r>
       <r>    -0.2111     8.9687   178.0952 </r>
       <r>    -0.1062    15.1175   179.6804 </r>
       <r>    -0.0014    19.0052   181.6732 </r>
       <r>     0.1035     7.5359   182.4634 </r>
       <r>     0.2083    13.6804   183.8978 </r>
       <r>     0.3132     1.3152   184.0357 </r>
       <r>     0.4180    -0.3345   184.0007 </r>
       <r>     0.5229    -0.0062   184.0000 </r>
       <r>     0.6278    -0.0000   184.0000 </r>
       <r>     0.7326    -0.0000   184.0000 </r>
       <r>     0.8375    -0.0000   184.0000 </r>
       <r>     0.9423     0.0000   184.0000 </r>
       <r>     1.0472     0.0000   184.0000 </r>
       <r>     1.1520     0.0000   184.0000 </r>
       <r>     1.2569     0.0000   184.0000 </r>
       <r>     1.3617     0.0000   184.0000 </r>
       <r>     1.4666     0.0000   184.0000 </r>
       <r>     1.5715     0.0000   184.0000 </r>
      </set>
     </set>
    </array>
   </total>
  </dos>
 </calculation>
 <structure name="finalpos" >
  <crystal>
   <varray name="basis" >
    <v>      15.00000000       0.00000000       0.00000000 </v>
    <v>       0.00000000      15.00000000       0.00000000 </v>
    <v>       0.00000000       0.00000000      15.00000000 </v>
   </varray>
   <i name="volume">   3375.00000000 </i>
   <varray name="rec_basis" >
    <v>       0.06666667       0.00000000       0.00000000 </v>
    <v>       0.00000000       0.06666667       0.00000000 </v>
    <v>       0.00000000       0.00000000       0.06666667 </v>
   </varray>
  </crystal>
  <varray name="positions" >
   <v>       0.29447267       0.42155333       0.55857867 </v>
   <v>       0.36964467       0.54269600       0.48839800 </v>
   <v>       0.39027133       0.29399733       0.55696800 </v>
   <v>       0.52832333       0.50637267       0.48247200 </v>
   <v>       0.54741000       0.34816333       0.53075133 </v>
   <v>       0.45066733       0.43399200       0.61399867 </v>
   <v>       0.42119533       0.39653067       0.44055133 </v>
   <v>       0.21987200       0.56482867       0.55567333 </v>
   <v>       0.33847600       0.54711667       0.65662600 </v>
   <v>       0.35768000       0.68134667       0.56567267 </v>
   <v>       0.48856533       0.66334467       0.47806933 </v>
   <v>       0.62591400       0.49038133       0.60971667 </v>
   <v>       0.48445200       0.59138867       0.61354333 </v>
   <v>       0.73978000       0.50486667       0.65382267 </v>
   <v>       0.81696667       0.50492400       0.65960000 </v>
  </varray>
 </structure>
</modeling>
