 vasp.5.4.4.18Apr17-6-g9f103f2a35 (build May 08 2019 13:49:07) complex          
  
 executed on             LinuxIFC date 2019.11.13  11:33:17
 running on   24 total cores
 distrk:  each k-point on   24 cores,    1 groups
 distr:  one band on NCORES_PER_BAND=   6 cores,    4 groups


--------------------------------------------------------------------------------------------------------


 INCAR:
 POTCAR:    PAW_PBE Cu 22Jun2005                  
 POTCAR:    PAW_PBE C 08Apr2002                   
 POTCAR:    PAW_PBE O 08Apr2002                   
 POTCAR:    PAW_PBE Cu 22Jun2005                  
   VRHFIN =Cu: d10 p1                                                           
   LEXCH  = PE                                                                  
   EATOM  =  1390.9808 eV,  102.2342 Ry                                         
                                                                                
   TITEL  = PAW_PBE Cu 22Jun2005                                                
   LULTRA =        F    use ultrasoft PP ?                                      
   IUNSCR =        1    unscreen: 0-lin 1-nonlin 2-no                           
   RPACOR =    2.000    partial core radius                                     
   POMASS =   63.546; ZVAL   =   11.000    mass and valenz                      
   RCORE  =    2.300    outmost cutoff radius                                   
   RWIGS  =    2.200; RWIGS  =    1.164    wigner-seitz radius (au A)           
   ENMAX  =  295.446; ENMIN  =  221.585 eV                                      
   ICORE  =        3    local potential                                         
   LCOR   =        T    correct aug charges                                     
   LPAW   =        T    paw PP                                                  
   EAUG   =  586.980                                                            
   DEXC   =    0.000                                                            
   RMAX   =    2.344    core radius for proj-oper                               
   RAUG   =    1.300    factor for augmentation sphere                          
   RDEP   =    2.302    radius for radial grids                                 
   RDEPT  =    1.771    core radius for aug-charge                              
                                                                                
   Atomic configuration                                                         
    9 entries                                                                   
     n  l   j            E        occ.                                          
     1  0  0.50     -8850.2468   2.0000                                         
     2  0  0.50     -1062.3498   2.0000                                         
     2  1  1.50      -916.8226   6.0000                                         
     3  0  0.50      -114.6929   2.0000                                         
     3  1  1.50       -72.1325   6.0000                                         
     3  2  2.50        -5.0394  10.0000                                         
     4  0  0.50        -4.6097   1.0000                                         
     4  1  0.50        -4.0817   0.0000                                         
     4  3  2.50        -1.3606   0.0000                                         
   Description                                                                  
     l       E           TYP  RCUT    TYP  RCUT                                 
     2     -5.0393973     23  2.200                                             
     2     10.8846608     23  2.200                                             
     0     -4.6097109     23  2.200                                             
     0      8.2520465     23  2.200                                             
     1     -2.7211652     23  2.200                                             
     1     21.7055443     23  2.200                                             
     3      2.7211652     23  2.300                                             
  local pseudopotential read in
  partial core-charges read in
  partial kinetic energy density read in
  atomic valenz-charges read in
  non local Contribution for L=           2  read in
    real space projection operators read in
  non local Contribution for L=           2  read in
    real space projection operators read in
  non local Contribution for L=           0  read in
    real space projection operators read in
  non local Contribution for L=           0  read in
    real space projection operators read in
  non local Contribution for L=           1  read in
    real space projection operators read in
  non local Contribution for L=           1  read in
    real space projection operators read in
    PAW grid and wavefunctions read in
 
   number of l-projection  operators is LMAX  =           6
   number of lm-projection operators is LMMAX =          18
 
 POTCAR:    PAW_PBE C 08Apr2002                   
   VRHFIN =C: s2p2                                                              
   LEXCH  = PE                                                                  
   EATOM  =   147.1560 eV,   10.8157 Ry                                         
                                                                                
   TITEL  = PAW_PBE C 08Apr2002                                                 
   LULTRA =        F    use ultrasoft PP ?                                      
   IUNSCR =        1    unscreen: 0-lin 1-nonlin 2-no                           
   RPACOR =    1.200    partial core radius                                     
   POMASS =   12.011; ZVAL   =    4.000    mass and valenz                      
   RCORE  =    1.500    outmost cutoff radius                                   
   RWIGS  =    1.630; RWIGS  =    0.863    wigner-seitz radius (au A)           
   ENMAX  =  400.000; ENMIN  =  300.000 eV                                      
   ICORE  =        2    local potential                                         
   LCOR   =        T    correct aug charges                                     
   LPAW   =        T    paw PP                                                  
   EAUG   =  644.873                                                            
   DEXC   =    0.000                                                            
   RMAX   =    1.529    core radius for proj-oper                               
   RAUG   =    1.300    factor for augmentation sphere                          
   RDEP   =    1.501    radius for radial grids                                 
   RDEPT  =    1.300    core radius for aug-charge                              
                                                                                
   Atomic configuration                                                         
    4 entries                                                                   
     n  l   j            E        occ.                                          
     1  0  0.50      -273.3789   2.0000                                         
     2  0  0.50       -13.7508   2.0000                                         
     2  1  0.50        -5.2854   2.0000                                         
     3  2  1.50        -5.4423   0.0000                                         
   Description                                                                  
     l       E           TYP  RCUT    TYP  RCUT                                 
     0    -13.7508458     23  1.200                                             
     0     -8.2022199     23  1.200                                             
     1     -5.2854383     23  1.500                                             
     1     34.0145650     23  1.500                                             
     2     -5.4423304      7  1.500                                             
  local pseudopotential read in
  partial core-charges read in
  partial kinetic energy density read in
  atomic valenz-charges read in
  non local Contribution for L=           0  read in
    real space projection operators read in
  non local Contribution for L=           0  read in
    real space projection operators read in
  non local Contribution for L=           1  read in
    real space projection operators read in
  non local Contribution for L=           1  read in
    real space projection operators read in
    PAW grid and wavefunctions read in
 
   number of l-projection  operators is LMAX  =           4
   number of lm-projection operators is LMMAX =           8
 
 POTCAR:    PAW_PBE O 08Apr2002                   
   VRHFIN =O: s2p4                                                              
   LEXCH  = PE                                                                  
   EATOM  =   432.3788 eV,   31.7789 Ry                                         
                                                                                
   TITEL  = PAW_PBE O 08Apr2002                                                 
   LULTRA =        F    use ultrasoft PP ?                                      
   IUNSCR =        1    unscreen: 0-lin 1-nonlin 2-no                           
   RPACOR =    1.200    partial core radius                                     
   POMASS =   16.000; ZVAL   =    6.000    mass and valenz                      
   RCORE  =    1.520    outmost cutoff radius                                   
   RWIGS  =    1.550; RWIGS  =    0.820    wigner-seitz radius (au A)           
   ENMAX  =  400.000; ENMIN  =  300.000 eV                                      
   ICORE  =        2    local potential                                         
   LCOR   =        T    correct aug charges                                     
   LPAW   =        T    paw PP                                                  
   EAUG   =  605.392                                                            
   DEXC   =    0.000                                                            
   RMAX   =    1.553    core radius for proj-oper                               
   RAUG   =    1.300    factor for augmentation sphere                          
   RDEP   =    1.550    radius for radial grids                                 
   RDEPT  =    1.329    core radius for aug-charge                              
                                                                                
   Atomic configuration                                                         
    4 entries                                                                   
     n  l   j            E        occ.                                          
     1  0  0.50      -514.6923   2.0000                                         
     2  0  0.50       -23.9615   2.0000                                         
     2  1  0.50        -9.0305   4.0000                                         
     3  2  1.50        -9.5241   0.0000                                         
   Description                                                                  
     l       E           TYP  RCUT    TYP  RCUT                                 
     0    -23.9615318     23  1.200                                             
     0     -9.5240782     23  1.200                                             
     1     -9.0304911     23  1.520                                             
     1      8.1634956     23  1.520                                             
     2     -9.5240782      7  1.500                                             
  local pseudopotential read in
  partial core-charges read in
  partial kinetic energy density read in
  kinetic energy density of atom read in
  atomic valenz-charges read in
  non local Contribution for L=           0  read in
    real space projection operators read in
  non local Contribution for L=           0  read in
    real space projection operators read in
  non local Contribution for L=           1  read in
    real space projection operators read in
  non local Contribution for L=           1  read in
    real space projection operators read in
    PAW grid and wavefunctions read in
 
   number of l-projection  operators is LMAX  =           4
   number of lm-projection operators is LMMAX =           8
 
  PAW_PBE Cu 22Jun2005                  :
 energy of atom  1       EATOM=-1390.9808
 kinetic energy error for atom=    0.0033 (will be added to EATOM!!)
  PAW_PBE C 08Apr2002                   :
 energy of atom  2       EATOM= -147.1560
 kinetic energy error for atom=    0.0057 (will be added to EATOM!!)
  PAW_PBE O 08Apr2002                   :
 energy of atom  3       EATOM= -432.3788
 kinetic energy error for atom=    0.0168 (will be added to EATOM!!)
 
 
 POSCAR: Cu13 C1 O1                              
  positions in cartesian coordinates
  No initial velocities read in
 exchange correlation table for  LEXCH =        8
   RHO(1)=    0.500       N(1)  =     2000
   RHO(2)=  100.500       N(2)  =     4000
 


--------------------------------------------------------------------------------------------------------


 ion  position               nearest neighbor table
   1  0.293  0.416  0.555-   3 2.38   8 2.48   2 2.51   6 2.51   9 2.56   7 2.56
   2  0.377  0.546  0.490-  10 2.37   7 2.39   4 2.41  11 2.44   8 2.45   1 2.51  13 2.57   9 2.66
                             6 2.69
   3  0.393  0.293  0.562-   1 2.38   7 2.45   6 2.48   5 2.52
   4  0.531  0.503  0.482-   7 2.36   2 2.41  12 2.41   5 2.48  13 2.50  11 2.55   6 2.57
   5  0.549  0.345  0.528-   6 2.48   7 2.48   4 2.48   3 2.52  12 2.74
   6  0.446  0.439  0.617-  13 2.39   9 2.46   5 2.48   3 2.48   1 2.51   4 2.57   2 2.69   7 2.73

   7  0.420  0.400  0.441-   4 2.36   2 2.39   3 2.45   5 2.48   1 2.56   6 2.73
   8  0.227  0.568  0.551-   9 2.27   2 2.45   1 2.48  10 2.57
   9  0.329  0.545  0.661-   8 2.27   6 2.46  10 2.51  13 2.55   1 2.56   2 2.66
  10  0.354  0.681  0.568-   2 2.37  11 2.44  13 2.46   9 2.51   8 2.57
  11  0.485  0.666  0.473-  13 2.38  10 2.44   2 2.44   4 2.55
  12  0.630  0.488  0.608-  14 1.75   4 2.41  13 2.70   5 2.74
  13  0.485  0.594  0.614-  11 2.38   6 2.39  10 2.46   4 2.50   9 2.55   2 2.57  12 2.70
  14  0.738  0.499  0.652-  15 1.14  12 1.75
  15  0.814  0.499  0.659-  14 1.14
 

IMPORTANT INFORMATION: All symmetrisations will be switched off!
NOSYMM: (Re-)initialisation of all symmetry stuff for point group C_1.

 
 

Automatic generation of k-mesh.
 generate k-points for:    1    1    1
Space group operators:
 irot       det(A)        alpha          n_x          n_y          n_z        tau_x        tau_y        tau_z
    1     1.000000     0.000000     1.000000     0.000000     0.000000     0.000000     0.000000     0.000000
 
 Subroutine IBZKPT returns following result:
 ===========================================
 
 Found      1 irreducible k-points:
 
 Following reciprocal coordinates:
            Coordinates               Weight
  0.000000  0.000000  0.000000      1.000000
 
 Following cartesian coordinates:
            Coordinates               Weight
  0.000000  0.000000  0.000000      1.000000
 


--------------------------------------------------------------------------------------------------------




 Dimension of arrays:
   k-points           NKPTS =      1   k-points in BZ     NKDIM =      1   number of bands    NBANDS=     92
   number of dos      NEDOS =    301   number of ions     NIONS =     15
   non local maximal  LDIM  =      6   non local SUM 2l+1 LMDIM =     18
   total plane-waves  NPLWV = ******
   max r-space proj   IRMAX =      1   max aug-charges    IRDMAX=  15028
   dimension x,y,z NGX =   120 NGY =  120 NGZ =  120
   dimension x,y,z NGXF=   240 NGYF=  240 NGZF=  240
   support grid    NGXF=   240 NGYF=  240 NGZF=  240
   ions per type =              13   1   1
   NGX,Y,Z   is equivalent  to a cutoff of  13.30, 13.30, 13.30 a.u.
   NGXF,Y,Z  is equivalent  to a cutoff of  26.60, 26.60, 26.60 a.u.

 SYSTEM =  CuCO                                    
 POSCAR =  Cu13 C1 O1                              

 Startparameter for this run:
   NWRITE =      2    write-flag & timer
   PREC   = accura    normal or accurate (medium, high low for compatibility)
   ISTART =      0    job   : 0-new  1-cont  2-samecut
   ICHARG =      2    charge: 1-file 2-atom 10-const
   ISPIN  =      2    spin polarized calculation?
   LNONCOLLINEAR =      F non collinear calculations
   LSORBIT =      F    spin-orbit coupling
   INIWAV =      1    electr: 0-lowe 1-rand  2-diag
   LASPH  =      F    aspherical Exc in radial PAW
   METAGGA=      F    non-selfconsistent MetaGGA calc.

 Electronic Relaxation 1
   ENCUT  =  600.0 eV  44.10 Ry    6.64 a.u.  29.96 29.96 29.96*2*pi/ulx,y,z
   ENINI  =  600.0     initial cutoff
   ENAUG  =  644.9 eV  augmentation charge cutoff
   NELM   =    300;   NELMIN=  3; NELMDL= -5     # of ELM steps 
   EDIFF  = 0.1E-06   stopping-criterion for ELM
   LREAL  =      F    real-space projection
   NLSPLINE    = F    spline interpolate recip. space projectors
   LCOMPAT=      F    compatible to vasp.4.4
   GGA_COMPAT  = T    GGA compatible to vasp.4.4-vasp.4.6
   LMAXPAW     = -100 max onsite density
   LMAXMIX     =    2 max onsite mixed and CHGCAR
   VOSKOWN=      0    Vosko Wilk Nusair interpolation
   ROPT   =    0.00000   0.00000   0.00000
 Ionic relaxation
   EDIFFG = -.1E-02   stopping-criterion for IOM
   NSW    =      0    number of steps for IOM
   NBLOCK =      1;   KBLOCK =      1    inner block; outer block 
   IBRION =     -1    ionic relax: 0-MD 1-quasi-New 2-CG
   NFREE  =      0    steps in history (QN), initial steepest desc. (CG)
   ISIF   =      2    stress and relaxation
   IWAVPR =     10    prediction:  0-non 1-charg 2-wave 3-comb
   ISYM   =      0    0-nonsym 1-usesym 2-fastsym
   LCORR  =      T    Harris-Foulkes like correction to forces

   POTIM  = 0.5000    time-step for ionic-motion
   TEIN   =    0.0    initial temperature
   TEBEG  =    0.0;   TEEND  =   0.0 temperature during run
   SMASS  =  -3.00    Nose mass-parameter (am)
   estimated Nose-frequenzy (Omega)   =  0.10E-29 period in steps =****** mass=  -0.514E-26a.u.
   SCALEE = 1.0000    scale energy and forces
   NPACO  =    256;   APACO  = 16.0  distance and # of slots for P.C.
   PSTRESS=    0.0 pullay stress

  Mass of Ions in am
   POMASS =  63.55 12.01 16.00
  Ionic Valenz
   ZVAL   =  11.00  4.00  6.00
  Atomic Wigner-Seitz radii
   RWIGS  =  -1.00 -1.00 -1.00
  virtual crystal weights 
   VCA    =   1.00  1.00  1.00
   NELECT =     153.0000    total number of electrons
   NUPDOWN=       1.0000    fix difference up-down

 DOS related values:
   EMIN   =  10.00;   EMAX   =-10.00  energy-range for DOS
   EFERMI =   0.00
   ISMEAR =     1;   SIGMA  =   0.10  broadening in eV -4-tet -1-fermi 0-gaus

 Electronic relaxation 2 (details)
   IALGO  =     68    algorithm
   LDIAG  =      T    sub-space diagonalisation (order eigenvalues)
   LSUBROT=      F    optimize rotation matrix (better conditioning)
   TURBO    =      0    0=normal 1=particle mesh
   IRESTART =      0    0=no restart 2=restart with 2 vectors
   NREBOOT  =      0    no. of reboots
   NMIN     =      0    reboot dimension
   EREF     =   0.00    reference energy to select bands
   IMIX   =      4    mixing-type and parameters
     AMIX     =   0.40;   BMIX     =  1.00
     AMIX_MAG =   1.60;   BMIX_MAG =  1.00
     AMIN     =   0.10
     WC   =   100.;   INIMIX=   1;  MIXPRE=   1;  MAXMIX= -45

 Intra band minimization:
   WEIMIN = 0.0000     energy-eigenvalue tresh-hold
   EBREAK =  0.27E-09  absolut break condition
   DEPER  =   0.30     relativ break condition  

   TIME   =   0.40     timestep for ELM

  volume/ion in A,a.u.               =     225.00      1518.37
  Fermi-wavevector in a.u.,A,eV,Ry     =   0.583733  1.103095  4.636102  0.340744
  Thomas-Fermi vector in A             =   1.629149
 
 Write flags
   LWAVE        =      F    write WAVECAR
   LDOWNSAMPLE  =      F    k-point downsampling of WAVECAR
   LCHARG       =      F    write CHGCAR
   LVTOT        =      F    write LOCPOT, total local potential
   LVHAR        =      F    write LOCPOT, Hartree potential only
   LELF         =      F    write electronic localiz. function (ELF)
   LORBIT       =      0    0 simple, 1 ext, 2 COOP (PROOUT), +10 PAW based schemes


 Dipole corrections
   LMONO  =      F    monopole corrections only (constant potential shift)
   LDIPOL =      F    correct potential (dipole corrections)
   IDIPOL =      0    1-x, 2-y, 3-z, 4-all directions 
   EPSILON=  1.0000000 bulk dielectric constant

 Exchange correlation treatment:
   GGA     =    PE    GGA type
   LEXCH   =     8    internal setting for exchange type
   VOSKOWN=      0    Vosko Wilk Nusair interpolation
   LHFCALC =     F    Hartree Fock is set to
   LHFONE  =     F    Hartree Fock one center treatment
   AEXX    =    0.0000 exact exchange contribution

 Linear response parameters
   LEPSILON=     F    determine dielectric tensor
   LRPA    =     F    only Hartree local field effects (RPA)
   LNABLA  =     F    use nabla operator in PAW spheres
   LVEL    =     F    velocity operator in full k-point grid
   LINTERFAST=   F  fast interpolation
   KINTER  =     0    interpolate to denser k-point grid
   CSHIFT  =0.1000    complex shift for real part using Kramers Kronig
   OMEGAMAX=  -1.0    maximum frequency
   DEG_THRESHOLD= 0.2000000E-02 threshold for treating states as degnerate
   RTIME   =   -0.100 relaxation time in fs
  (WPLASMAI=    0.000 imaginary part of plasma frequency in eV, 0.658/RTIME)
   DFIELD  = 0.0000000 0.0000000 0.0000000 field for delta impulse in time
 
 Orbital magnetization related:
   ORBITALMAG=     F  switch on orbital magnetization
   LCHIMAG   =     F  perturbation theory with respect to B field
   DQ        =  0.001000  dq finite difference perturbation B field
   LLRAUG    =     F  two centre corrections for induced B field



--------------------------------------------------------------------------------------------------------


 Static calculation
 charge density and potential will be updated during run
 spin polarized calculation
 RMM-DIIS sequential band-by-band and
  variant of blocked Davidson during initial phase
 perform sub-space diagonalisation
    before iterative eigenvector-optimisation
 modified Broyden-mixing scheme, WC =      100.0
 initial mixing is a Kerker type mixing with AMIX =  0.4000 and BMIX =      1.0000
 Hartree-type preconditioning will be used
 using additional bands           15
 reciprocal scheme for non local part
 use partial core corrections
 calculate Harris-corrections to forces 
   (improved forces if not selfconsistent)
 use gradient corrections 
 use of overlap-Matrix (Vanderbilt PP)
 Methfessel and Paxton  Order N= 1 SIGMA  =   0.10


--------------------------------------------------------------------------------------------------------


  energy-cutoff  :      600.00
  volume of cell :     3375.00
      direct lattice vectors                 reciprocal lattice vectors
    15.000000000  0.000000000  0.000000000     0.066666667  0.000000000  0.000000000
     0.000000000 15.000000000  0.000000000     0.000000000  0.066666667  0.000000000
     0.000000000  0.000000000 15.000000000     0.000000000  0.000000000  0.066666667

  length of vectors
    15.000000000 15.000000000 15.000000000     0.066666667  0.066666667  0.066666667


 
 k-points in units of 2pi/SCALE and weight: read from INCAR                         
   0.00000000  0.00000000  0.00000000       1.000
 
 k-points in reciprocal lattice and weights: read from INCAR                         
   0.00000000  0.00000000  0.00000000       1.000
 
 position of ions in fractional coordinates (direct lattice) 
   0.29282333  0.41622067  0.55458867
   0.37668667  0.54562533  0.49026733
   0.39295533  0.29292867  0.56157667
   0.53133533  0.50310000  0.48240867
   0.54882133  0.34515667  0.52849733
   0.44624133  0.43930067  0.61710400
   0.41955800  0.40012533  0.44108800
   0.22698000  0.56777067  0.55109400
   0.32878800  0.54456733  0.66100400
   0.35390133  0.68135333  0.56807867
   0.48480000  0.66628267  0.47325600
   0.63036733  0.48800267  0.60809733
   0.48467733  0.59384533  0.61445533
   0.73823333  0.49862000  0.65210600
   0.81419333  0.49942933  0.65891400
 
 position of ions in cartesian coordinates  (Angst):
   4.39235000  6.24331000  8.31883000
   5.65030000  8.18438000  7.35401000
   5.89433000  4.39393000  8.42365000
   7.97003000  7.54650000  7.23613000
   8.23232000  5.17735000  7.92746000
   6.69362000  6.58951000  9.25656000
   6.29337000  6.00188000  6.61632000
   3.40470000  8.51656000  8.26641000
   4.93182000  8.16851000  9.91506000
   5.30852000 10.22030000  8.52118000
   7.27200000  9.99424000  7.09884000
   9.45551000  7.32004000  9.12146000
   7.27016000  8.90768000  9.21683000
  11.07350000  7.47930000  9.78159000
  12.21290000  7.49144000  9.88371000
 


--------------------------------------------------------------------------------------------------------


 k-point  1 :   0.0000 0.0000 0.0000  plane waves:  112451

 maximum and minimum number of plane-waves per node :     18753    18726

 maximum number of plane-waves:    112451
 maximum index in each direction: 
   IXMAX=   29   IYMAX=   29   IZMAX=   29
   IXMIN=  -29   IYMIN=  -29   IZMIN=  -29


 parallel 3D FFT for wavefunctions:
    minimum data exchange during FFTs selected (reduces bandwidth)
 parallel 3D FFT for charge:
    minimum data exchange during FFTs selected (reduces bandwidth)


 total amount of memory used by VASP MPI-rank0   158680. kBytes
=======================================================================

   base      :      30000. kBytes
   nonl-proj :      12601. kBytes
   fftplans  :      27994. kBytes
   grid      :      74150. kBytes
   one-center:         93. kBytes
   wavefun   :      13842. kBytes
 
     INWAV:  cpu time    0.0000: real time    0.0001
 Broyden mixing: mesh for mixing (old mesh)
   NGX = 59   NGY = 59   NGZ = 59
  (NGX  =240   NGY  =240   NGZ  =240)
  gives a total of 205379 points

 initial charge density was supplied:
 charge density of overlapping atoms calculated
 number of electron     153.0000000 magnetization       1.0000000
 keeping initial charge density in first step


--------------------------------------------------------------------------------------------------------


 Maximum index for augmentation-charges          708 (set IRDMAX)


--------------------------------------------------------------------------------------------------------


 First call to EWALD:  gamma=   0.118
 Maximum number of real-space cells 3x 3x 3
 Maximum number of reciprocal cells 3x 3x 3

    FEWALD:  cpu time    0.0017: real time    0.0017


--------------------------------------- Iteration      1(   1)  ---------------------------------------


    POTLOK:  cpu time    1.1667: real time    1.1726
    SETDIJ:  cpu time    0.0174: real time    0.0174
     EDDAV:  cpu time    7.4669: real time    7.4751
       DOS:  cpu time    0.0007: real time    0.0007
    --------------------------------------------
      LOOP:  cpu time    8.6518: real time    8.6659

 eigenvalue-minimisations  :   376
 total energy-change (2. order) : 0.1118468E+04  (-0.4461612E+04)
 number of electron     153.0000000 magnetization       1.0000000
 augmentation part      153.0000000 magnetization       1.0000000

 Free energy of the ion-electron system (eV)
  ---------------------------------------------------
  alpha Z        PSCENC =        41.16232785
  Ewald energy   TEWEN  =     16187.30787828
  -Hartree energ DENC   =    -33210.08284736
  -exchange      EXHF   =         0.00000000
  -V(xc)+E(xc)   XCENC  =       623.37180170
  PAW double counting   =     16421.75059358   -17800.06104309
  entropy T*S    EENTRO =         0.00097521
  eigenvalues    EBANDS =       192.79867513
  atomic energy  EATOM  =     18662.21924712
  Solvation  Ediel_sol  =         0.00000000
  ---------------------------------------------------
  free energy    TOTEN  =      1118.46760841 eV

  energy without entropy =     1118.46663320  energy(sigma->0) =     1118.46728334


--------------------------------------------------------------------------------------------------------




--------------------------------------- Iteration      1(   2)  ---------------------------------------


     EDDAV:  cpu time    7.3808: real time    7.3913
       DOS:  cpu time    0.0008: real time    0.0008
    --------------------------------------------
      LOOP:  cpu time    7.3816: real time    7.3921

 eigenvalue-minimisations  :   368
 total energy-change (2. order) :-0.1029325E+04  (-0.9773990E+03)
 number of electron     153.0000000 magnetization       1.0000000
 augmentation part      153.0000000 magnetization       1.0000000

 Free energy of the ion-electron system (eV)
  ---------------------------------------------------
  alpha Z        PSCENC =        41.16232785
  Ewald energy   TEWEN  =     16187.30787828
  -Hartree energ DENC   =    -33210.08284736
  -exchange      EXHF   =         0.00000000
  -V(xc)+E(xc)   XCENC  =       623.37180170
  PAW double counting   =     16421.75059358   -17800.06104309
  entropy T*S    EENTRO =         0.00580739
  eigenvalues    EBANDS =      -836.53135040
  atomic energy  EATOM  =     18662.21924712
  Solvation  Ediel_sol  =         0.00000000
  ---------------------------------------------------
  free energy    TOTEN  =        89.14241506 eV

  energy without entropy =       89.13660767  energy(sigma->0) =       89.14047926


--------------------------------------------------------------------------------------------------------




--------------------------------------- Iteration      1(   3)  ---------------------------------------


     EDDAV:  cpu time   11.4454: real time   11.4566
       DOS:  cpu time    0.0005: real time    0.0005
    --------------------------------------------
      LOOP:  cpu time   11.4459: real time   11.4571

 eigenvalue-minimisations  :   648
 total energy-change (2. order) :-0.1220779E+03  (-0.1127122E+03)
 number of electron     153.0000000 magnetization       1.0000000
 augmentation part      153.0000000 magnetization       1.0000000

 Free energy of the ion-electron system (eV)
  ---------------------------------------------------
  alpha Z        PSCENC =        41.16232785
  Ewald energy   TEWEN  =     16187.30787828
  -Hartree energ DENC   =    -33210.08284736
  -exchange      EXHF   =         0.00000000
  -V(xc)+E(xc)   XCENC  =       623.37180170
  PAW double counting   =     16421.75059358   -17800.06104309
  entropy T*S    EENTRO =         0.00717995
  eigenvalues    EBANDS =      -958.61063863
  atomic energy  EATOM  =     18662.21924712
  Solvation  Ediel_sol  =         0.00000000
  ---------------------------------------------------
  free energy    TOTEN  =       -32.93550061 eV

  energy without entropy =      -32.94268056  energy(sigma->0) =      -32.93789393


--------------------------------------------------------------------------------------------------------




--------------------------------------- Iteration      1(   4)  ---------------------------------------


     EDDAV:  cpu time   10.1818: real time   10.1916
       DOS:  cpu time    0.0006: real time    0.0006
    --------------------------------------------
      LOOP:  cpu time   10.1824: real time   10.1922

 eigenvalue-minimisations  :   560
 total energy-change (2. order) :-0.2293095E+02  (-0.2249810E+02)
 number of electron     153.0000000 magnetization       1.0000000
 augmentation part      153.0000000 magnetization       1.0000000

 Free energy of the ion-electron system (eV)
  ---------------------------------------------------
  alpha Z        PSCENC =        41.16232785
  Ewald energy   TEWEN  =     16187.30787828
  -Hartree energ DENC   =    -33210.08284736
  -exchange      EXHF   =         0.00000000
  -V(xc)+E(xc)   XCENC  =       623.37180170
  PAW double counting   =     16421.75059358   -17800.06104309
  entropy T*S    EENTRO =         0.00937306
  eigenvalues    EBANDS =      -981.54377962
  atomic energy  EATOM  =     18662.21924712
  Solvation  Ediel_sol  =         0.00000000
  ---------------------------------------------------
  free energy    TOTEN  =       -55.86644850 eV

  energy without entropy =      -55.87582156  energy(sigma->0) =      -55.86957285


--------------------------------------------------------------------------------------------------------




--------------------------------------- Iteration      1(   5)  ---------------------------------------


     EDDAV:  cpu time   11.9357: real time   11.9476
       DOS:  cpu time    0.0007: real time    0.0007
    CHARGE:  cpu time    0.6779: real time    0.6783
    MIXING:  cpu time    0.0229: real time    0.0229
    --------------------------------------------
      LOOP:  cpu time   12.6372: real time   12.6495

 eigenvalue-minimisations  :   680
 total energy-change (2. order) :-0.1610472E+01  (-0.1485335E+01)
 number of electron     152.9999998 magnetization       1.0000000
 augmentation part       87.4174682 magnetization       0.3744017

 Broyden mixing:
  rms(total) = 0.24271E+01    rms(broyden)= 0.24270E+01
  rms(prec ) = 0.27881E+01
  weight for this iteration     100.00

 Free energy of the ion-electron system (eV)
  ---------------------------------------------------
  alpha Z        PSCENC =        41.16232785
  Ewald energy   TEWEN  =     16187.30787828
  -Hartree energ DENC   =    -33210.08284736
  -exchange      EXHF   =         0.00000000
  -V(xc)+E(xc)   XCENC  =       623.37180170
  PAW double counting   =     16421.75059358   -17800.06104309
  entropy T*S    EENTRO =         0.00934896
  eigenvalues    EBANDS =      -983.15422726
  atomic energy  EATOM  =     18662.21924712
  Solvation  Ediel_sol  =         0.00000000
  ---------------------------------------------------
  free energy    TOTEN  =       -57.47692024 eV

  energy without entropy =      -57.48626920  energy(sigma->0) =      -57.48003656


--------------------------------------------------------------------------------------------------------




--------------------------------------- Iteration      1(   6)  ---------------------------------------


    POTLOK:  cpu time    1.1550: real time    1.1587
    SETDIJ:  cpu time    0.0175: real time    0.0175
    EDDIAG:  cpu time    1.1115: real time    1.1125
  RMM-DIIS:  cpu time    6.7370: real time    6.7434
    ORTHCH:  cpu time    0.0587: real time    0.0587
       DOS:  cpu time    0.0005: real time    0.0005
    CHARGE:  cpu time    0.6589: real time    0.6594
    MIXING:  cpu time    0.0229: real time    0.0230
    --------------------------------------------
      LOOP:  cpu time    9.7618: real time    9.7738

 eigenvalue-minimisations  :   428
 total energy-change (2. order) : 0.4719647E+00  (-0.1297678E+02)
 number of electron     152.9999999 magnetization       1.0000000
 augmentation part       95.7908929 magnetization       0.0699682

 Broyden mixing:
  rms(total) = 0.16283E+01    rms(broyden)= 0.16281E+01
  rms(prec ) = 0.18751E+01
  weight for this iteration     100.00

 eigenvalues of (default mixing * dielectric matrix)
  average eigenvalue GAMMA=   0.6081
  0.6081

 Free energy of the ion-electron system (eV)
  ---------------------------------------------------
  alpha Z        PSCENC =        41.16232785
  Ewald energy   TEWEN  =     16187.30787828
  -Hartree energ DENC   =    -32954.95193017
  -exchange      EXHF   =         0.00000000
  -V(xc)+E(xc)   XCENC  =       611.11373852
  PAW double counting   =     16696.30382601   -18019.19169001
  entropy T*S    EENTRO =         0.00826361
  eigenvalues    EBANDS =     -1280.97661673
  atomic energy  EATOM  =     18662.21924712
  Solvation  Ediel_sol  =         0.00000000
  ---------------------------------------------------
  free energy    TOTEN  =       -57.00495554 eV

  energy without entropy =      -57.01321914  energy(sigma->0) =      -57.00771007


--------------------------------------------------------------------------------------------------------




--------------------------------------- Iteration      1(   7)  ---------------------------------------


    POTLOK:  cpu time    1.1541: real time    1.1562
    SETDIJ:  cpu time    0.0171: real time    0.0171
    EDDIAG:  cpu time    1.1128: real time    1.1144
  RMM-DIIS:  cpu time    6.9058: real time    6.9120
    ORTHCH:  cpu time    0.0593: real time    0.0598
       DOS:  cpu time    0.0004: real time    0.0004
    CHARGE:  cpu time    0.6619: real time    0.6626
    MIXING:  cpu time    0.0233: real time    0.0233
    --------------------------------------------
      LOOP:  cpu time    9.9348: real time    9.9460

 eigenvalue-minimisations  :   382
 total energy-change (2. order) : 0.7857620E+01  (-0.2723638E+01)
 number of electron     152.9999999 magnetization       1.0000000
 augmentation part       92.9396849 magnetization       0.0990216

 Broyden mixing:
  rms(total) = 0.40983E+00    rms(broyden)= 0.40981E+00
  rms(prec ) = 0.50416E+00
  weight for this iteration     100.00

 eigenvalues of (default mixing * dielectric matrix)
  average eigenvalue GAMMA=   0.9289
  1.1854  0.6724

 Free energy of the ion-electron system (eV)
  ---------------------------------------------------
  alpha Z        PSCENC =        41.16232785
  Ewald energy   TEWEN  =     16187.30787828
  -Hartree energ DENC   =    -33091.30862678
  -exchange      EXHF   =         0.00000000
  -V(xc)+E(xc)   XCENC  =       615.60040607
  PAW double counting   =     17041.35435570   -18414.58629297
  entropy T*S    EENTRO =         0.00907615
  eigenvalues    EBANDS =     -1090.90570728
  atomic energy  EATOM  =     18662.21924712
  Solvation  Ediel_sol  =         0.00000000
  ---------------------------------------------------
  free energy    TOTEN  =       -49.14733587 eV

  energy without entropy =      -49.15641201  energy(sigma->0) =      -49.15036125


--------------------------------------------------------------------------------------------------------




--------------------------------------- Iteration      1(   8)  ---------------------------------------


    POTLOK:  cpu time    1.1551: real time    1.1572
    SETDIJ:  cpu time    0.0170: real time    0.0170
    EDDIAG:  cpu time    1.1122: real time    1.1136
  RMM-DIIS:  cpu time    7.3231: real time    7.3307
    ORTHCH:  cpu time    0.0591: real time    0.0591
       DOS:  cpu time    0.0004: real time    0.0004
    CHARGE:  cpu time    0.6647: real time    0.6655
    MIXING:  cpu time    0.0239: real time    0.0240
    --------------------------------------------
      LOOP:  cpu time   10.3555: real time   10.3675

 eigenvalue-minimisations  :   422
 total energy-change (2. order) : 0.2400763E+00  (-0.4788487E+00)
 number of electron     152.9999999 magnetization       1.0000000
 augmentation part       92.0871431 magnetization       0.0972820

 Broyden mixing:
  rms(total) = 0.32655E+00    rms(broyden)= 0.32652E+00
  rms(prec ) = 0.36819E+00
  weight for this iteration     100.00

 eigenvalues of (default mixing * dielectric matrix)
  average eigenvalue GAMMA=   0.9150
  1.3383  0.7034  0.7034

 Free energy of the ion-electron system (eV)
  ---------------------------------------------------
  alpha Z        PSCENC =        41.16232785
  Ewald energy   TEWEN  =     16187.30787828
  -Hartree energ DENC   =    -33142.16051480
  -exchange      EXHF   =         0.00000000
  -V(xc)+E(xc)   XCENC  =       616.10544919
  PAW double counting   =     17407.20688889   -18800.49047854
  entropy T*S    EENTRO =         0.00929329
  eigenvalues    EBANDS =     -1020.26735081
  atomic energy  EATOM  =     18662.21924712
  Solvation  Ediel_sol  =         0.00000000
  ---------------------------------------------------
  free energy    TOTEN  =       -48.90725955 eV

  energy without entropy =      -48.91655284  energy(sigma->0) =      -48.91035731


--------------------------------------------------------------------------------------------------------




--------------------------------------- Iteration      1(   9)  ---------------------------------------


    POTLOK:  cpu time    1.1559: real time    1.1594
    SETDIJ:  cpu time    0.0169: real time    0.0169
    EDDIAG:  cpu time    1.1323: real time    1.1333
  RMM-DIIS:  cpu time    6.7473: real time    6.7555
    ORTHCH:  cpu time    0.0588: real time    0.0588
       DOS:  cpu time    0.0005: real time    0.0005
    CHARGE:  cpu time    0.6620: real time    0.6623
    MIXING:  cpu time    0.0250: real time    0.0251
    --------------------------------------------
      LOOP:  cpu time    9.7986: real time    9.8118

 eigenvalue-minimisations  :   411
 total energy-change (2. order) : 0.6450982E-01  (-0.1106917E+00)
 number of electron     152.9999999 magnetization       1.0000000
 augmentation part       92.2804401 magnetization       0.0856321

 Broyden mixing:
  rms(total) = 0.18856E+00    rms(broyden)= 0.18856E+00
  rms(prec ) = 0.22324E+00
  weight for this iteration     100.00

 eigenvalues of (default mixing * dielectric matrix)
  average eigenvalue GAMMA=   1.0443
  2.1043  0.7866  0.7866  0.4999

 Free energy of the ion-electron system (eV)
  ---------------------------------------------------
  alpha Z        PSCENC =        41.16232785
  Ewald energy   TEWEN  =     16187.30787828
  -Hartree energ DENC   =    -33139.48521041
  -exchange      EXHF   =         0.00000000
  -V(xc)+E(xc)   XCENC  =       615.64803321
  PAW double counting   =     17509.89693213   -18904.63394460
  entropy T*S    EENTRO =         0.00920905
  eigenvalues    EBANDS =     -1020.96722235
  atomic energy  EATOM  =     18662.21924712
  Solvation  Ediel_sol  =         0.00000000
  ---------------------------------------------------
  free energy    TOTEN  =       -48.84274973 eV

  energy without entropy =      -48.85195878  energy(sigma->0) =      -48.84581942


--------------------------------------------------------------------------------------------------------




--------------------------------------- Iteration      1(  10)  ---------------------------------------


    POTLOK:  cpu time    1.1562: real time    1.1576
    SETDIJ:  cpu time    0.0165: real time    0.0165
    EDDIAG:  cpu time    1.1122: real time    1.1132
  RMM-DIIS:  cpu time    6.7318: real time    6.7382
    ORTHCH:  cpu time    0.0584: real time    0.0586
       DOS:  cpu time    0.0004: real time    0.0004
    CHARGE:  cpu time    0.6634: real time    0.6637
    MIXING:  cpu time    0.0253: real time    0.0253
    --------------------------------------------
      LOOP:  cpu time    9.7643: real time    9.7737

 eigenvalue-minimisations  :   425
 total energy-change (2. order) : 0.6254262E-01  (-0.2344678E-01)
 number of electron     152.9999999 magnetization       1.0000000
 augmentation part       92.4925931 magnetization       0.0733104

 Broyden mixing:
  rms(total) = 0.68438E-01    rms(broyden)= 0.68435E-01
  rms(prec ) = 0.87793E-01
  weight for this iteration     100.00

 eigenvalues of (default mixing * dielectric matrix)
  average eigenvalue GAMMA=   1.0448
  2.1164  1.0709  0.7740  0.7740  0.4888

 Free energy of the ion-electron system (eV)
  ---------------------------------------------------
  alpha Z        PSCENC =        41.16232785
  Ewald energy   TEWEN  =     16187.30787828
  -Hartree energ DENC   =    -33136.88906919
  -exchange      EXHF   =         0.00000000
  -V(xc)+E(xc)   XCENC  =       615.16677931
  PAW double counting   =     17624.30386699   -19020.52632062
  entropy T*S    EENTRO =         0.00916464
  eigenvalues    EBANDS =     -1021.53408148
  atomic energy  EATOM  =     18662.21924712
  Solvation  Ediel_sol  =         0.00000000
  ---------------------------------------------------
  free energy    TOTEN  =       -48.78020711 eV

  energy without entropy =      -48.78937175  energy(sigma->0) =      -48.78326199


--------------------------------------------------------------------------------------------------------




--------------------------------------- Iteration      1(  11)  ---------------------------------------


    POTLOK:  cpu time    1.1564: real time    1.1575
    SETDIJ:  cpu time    0.0168: real time    0.0168
    EDDIAG:  cpu time    1.1095: real time    1.1107
  RMM-DIIS:  cpu time    7.1059: real time    7.1122
    ORTHCH:  cpu time    0.0569: real time    0.0569
       DOS:  cpu time    0.0005: real time    0.0005
    CHARGE:  cpu time    0.6650: real time    0.6653
    MIXING:  cpu time    0.0262: real time    0.0266
    --------------------------------------------
      LOOP:  cpu time   10.1372: real time   10.1466

 eigenvalue-minimisations  :   435
 total energy-change (2. order) : 0.1209123E-01  (-0.8467637E-02)
 number of electron     152.9999999 magnetization       1.0000000
 augmentation part       92.4009623 magnetization       0.0782968

 Broyden mixing:
  rms(total) = 0.38440E-01    rms(broyden)= 0.38435E-01
  rms(prec ) = 0.50409E-01
  weight for this iteration     100.00

 eigenvalues of (default mixing * dielectric matrix)
  average eigenvalue GAMMA=   1.0365
  2.1528  1.3747  0.8268  0.6860  0.6860  0.4930

 Free energy of the ion-electron system (eV)
  ---------------------------------------------------
  alpha Z        PSCENC =        41.16232785
  Ewald energy   TEWEN  =     16187.30787828
  -Hartree energ DENC   =    -33145.62038992
  -exchange      EXHF   =         0.00000000
  -V(xc)+E(xc)   XCENC  =       615.32447690
  PAW double counting   =     17670.97589061   -19069.41820853
  entropy T*S    EENTRO =         0.00927594
  eigenvalues    EBANDS =     -1010.72861413
  atomic energy  EATOM  =     18662.21924712
  Solvation  Ediel_sol  =         0.00000000
  ---------------------------------------------------
  free energy    TOTEN  =       -48.76811588 eV

  energy without entropy =      -48.77739182  energy(sigma->0) =      -48.77120786


--------------------------------------------------------------------------------------------------------




--------------------------------------- Iteration      1(  12)  ---------------------------------------


    POTLOK:  cpu time    1.1562: real time    1.1578
    SETDIJ:  cpu time    0.0173: real time    0.0173
    EDDIAG:  cpu time    1.1127: real time    1.1139
  RMM-DIIS:  cpu time    6.7872: real time    6.7943
    ORTHCH:  cpu time    0.0575: real time    0.0576
       DOS:  cpu time    0.0004: real time    0.0004
    CHARGE:  cpu time    0.6638: real time    0.6642
    MIXING:  cpu time    0.0270: real time    0.0270
    --------------------------------------------
      LOOP:  cpu time    9.8220: real time    9.8324

 eigenvalue-minimisations  :   429
 total energy-change (2. order) : 0.2277639E-02  (-0.1970311E-02)
 number of electron     152.9999999 magnetization       1.0000000
 augmentation part       92.4010345 magnetization       0.0780507

 Broyden mixing:
  rms(total) = 0.20877E-01    rms(broyden)= 0.20876E-01
  rms(prec ) = 0.32230E-01
  weight for this iteration     100.00

 eigenvalues of (default mixing * dielectric matrix)
  average eigenvalue GAMMA=   1.0841
  2.3447  1.7473  1.0520  0.7004  0.7004  0.5722  0.4715

 Free energy of the ion-electron system (eV)
  ---------------------------------------------------
  alpha Z        PSCENC =        41.16232785
  Ewald energy   TEWEN  =     16187.30787828
  -Hartree energ DENC   =    -33148.64537510
  -exchange      EXHF   =         0.00000000
  -V(xc)+E(xc)   XCENC  =       615.36819992
  PAW double counting   =     17679.12776242   -19077.89233739
  entropy T*S    EENTRO =         0.00922014
  eigenvalues    EBANDS =     -1007.42276148
  atomic energy  EATOM  =     18662.21924712
  Solvation  Ediel_sol  =         0.00000000
  ---------------------------------------------------
  free energy    TOTEN  =       -48.76583824 eV

  energy without entropy =      -48.77505839  energy(sigma->0) =      -48.76891162


--------------------------------------------------------------------------------------------------------




--------------------------------------- Iteration      1(  13)  ---------------------------------------


    POTLOK:  cpu time    1.1550: real time    1.1586
    SETDIJ:  cpu time    0.0177: real time    0.0177
    EDDIAG:  cpu time    1.1130: real time    1.1142
  RMM-DIIS:  cpu time    6.9140: real time    6.9210
    ORTHCH:  cpu time    0.0568: real time    0.0569
       DOS:  cpu time    0.0005: real time    0.0005
    CHARGE:  cpu time    0.6637: real time    0.6642
    MIXING:  cpu time    0.0275: real time    0.0275
    --------------------------------------------
      LOOP:  cpu time    9.9480: real time    9.9606

 eigenvalue-minimisations  :   425
 total energy-change (2. order) : 0.1283433E-02  (-0.5978698E-03)
 number of electron     152.9999999 magnetization       1.0000000
 augmentation part       92.4156766 magnetization       0.0785369

 Broyden mixing:
  rms(total) = 0.95505E-02    rms(broyden)= 0.95501E-02
  rms(prec ) = 0.19721E-01
  weight for this iteration     100.00

 eigenvalues of (default mixing * dielectric matrix)
  average eigenvalue GAMMA=   1.1108
  2.4345  1.9063  1.2533  0.8004  0.7499  0.7499  0.5350  0.4572

 Free energy of the ion-electron system (eV)
  ---------------------------------------------------
  alpha Z        PSCENC =        41.16232785
  Ewald energy   TEWEN  =     16187.30787828
  -Hartree energ DENC   =    -33152.37843396
  -exchange      EXHF   =         0.00000000
  -V(xc)+E(xc)   XCENC  =       615.38211877
  PAW double counting   =     17683.94849354   -19082.72688477
  entropy T*S    EENTRO =         0.00923356
  eigenvalues    EBANDS =     -1003.68853519
  atomic energy  EATOM  =     18662.21924712
  Solvation  Ediel_sol  =         0.00000000
  ---------------------------------------------------
  free energy    TOTEN  =       -48.76455481 eV

  energy without entropy =      -48.77378837  energy(sigma->0) =      -48.76763266


--------------------------------------------------------------------------------------------------------




--------------------------------------- Iteration      1(  14)  ---------------------------------------


    POTLOK:  cpu time    1.1566: real time    1.1609
    SETDIJ:  cpu time    0.0173: real time    0.0173
    EDDIAG:  cpu time    1.1129: real time    1.1141
  RMM-DIIS:  cpu time    6.6826: real time    6.6890
    ORTHCH:  cpu time    0.0569: real time    0.0570
       DOS:  cpu time    0.0004: real time    0.0004
    CHARGE:  cpu time    0.6998: real time    0.7005
    MIXING:  cpu time    0.0289: real time    0.0289
    --------------------------------------------
      LOOP:  cpu time    9.7555: real time    9.7681

 eigenvalue-minimisations  :   412
 total energy-change (2. order) :-0.9769077E-03  (-0.3592331E-03)
 number of electron     152.9999999 magnetization       1.0000000
 augmentation part       92.4295499 magnetization       0.0785450

 Broyden mixing:
  rms(total) = 0.11310E-01    rms(broyden)= 0.11310E-01
  rms(prec ) = 0.17386E-01
  weight for this iteration     100.00

 eigenvalues of (default mixing * dielectric matrix)
  average eigenvalue GAMMA=   1.1332
  2.3518  2.3518  1.2939  1.0556  0.7340  0.7340  0.7057  0.5086  0.4633

 Free energy of the ion-electron system (eV)
  ---------------------------------------------------
  alpha Z        PSCENC =        41.16232785
  Ewald energy   TEWEN  =     16187.30787828
  -Hartree energ DENC   =    -33156.90172487
  -exchange      EXHF   =         0.00000000
  -V(xc)+E(xc)   XCENC  =       615.40445692
  PAW double counting   =     17678.79838805   -19077.28182617
  entropy T*S    EENTRO =         0.00921994
  eigenvalues    EBANDS =      -999.48349884
  atomic energy  EATOM  =     18662.21924712
  Solvation  Ediel_sol  =         0.00000000
  ---------------------------------------------------
  free energy    TOTEN  =       -48.76553172 eV

  energy without entropy =      -48.77475165  energy(sigma->0) =      -48.76860503


--------------------------------------------------------------------------------------------------------




--------------------------------------- Iteration      1(  15)  ---------------------------------------


    POTLOK:  cpu time    1.1562: real time    1.1584
    SETDIJ:  cpu time    0.0171: real time    0.0171
    EDDIAG:  cpu time    1.1139: real time    1.1151
  RMM-DIIS:  cpu time    6.8787: real time    6.8854
    ORTHCH:  cpu time    0.0590: real time    0.0590
       DOS:  cpu time    0.0005: real time    0.0005
    CHARGE:  cpu time    0.7067: real time    0.7073
    MIXING:  cpu time    0.0290: real time    0.0291
    --------------------------------------------
      LOOP:  cpu time    9.9610: real time    9.9719

 eigenvalue-minimisations  :   414
 total energy-change (2. order) :-0.1216783E-02  (-0.1506307E-03)
 number of electron     152.9999999 magnetization       1.0000000
 augmentation part       92.4250940 magnetization       0.0788944

 Broyden mixing:
  rms(total) = 0.73504E-02    rms(broyden)= 0.73503E-02
  rms(prec ) = 0.11684E-01
  weight for this iteration     100.00

 eigenvalues of (default mixing * dielectric matrix)
  average eigenvalue GAMMA=   1.1888
  2.6640  2.6640  1.3574  1.3574  0.8360  0.7342  0.7342  0.5829  0.4944  0.4632

 Free energy of the ion-electron system (eV)
  ---------------------------------------------------
  alpha Z        PSCENC =        41.16232785
  Ewald energy   TEWEN  =     16187.30787828
  -Hartree energ DENC   =    -33160.59792537
  -exchange      EXHF   =         0.00000000
  -V(xc)+E(xc)   XCENC  =       615.44106034
  PAW double counting   =     17673.02713495   -19071.38333844
  entropy T*S    EENTRO =         0.00921522
  eigenvalues    EBANDS =      -995.95234844
  atomic energy  EATOM  =     18662.21924712
  Solvation  Ediel_sol  =         0.00000000
  ---------------------------------------------------
  free energy    TOTEN  =       -48.76674850 eV

  energy without entropy =      -48.77596372  energy(sigma->0) =      -48.76982024


--------------------------------------------------------------------------------------------------------




--------------------------------------- Iteration      1(  16)  ---------------------------------------


    POTLOK:  cpu time    1.1543: real time    1.1554
    SETDIJ:  cpu time    0.0169: real time    0.0169
    EDDIAG:  cpu time    1.1122: real time    1.1133
  RMM-DIIS:  cpu time    6.5293: real time    6.5374
    ORTHCH:  cpu time    0.0580: real time    0.0580
       DOS:  cpu time    0.0005: real time    0.0005
    CHARGE:  cpu time    0.7086: real time    0.7093
    MIXING:  cpu time    0.0301: real time    0.0301
    --------------------------------------------
      LOOP:  cpu time    9.6098: real time    9.6209

 eigenvalue-minimisations  :   396
 total energy-change (2. order) :-0.1453710E-02  (-0.1362930E-03)
 number of electron     152.9999999 magnetization       1.0000000
 augmentation part       92.4140507 magnetization       0.0792004

 Broyden mixing:
  rms(total) = 0.56197E-02    rms(broyden)= 0.56191E-02
  rms(prec ) = 0.80840E-02
  weight for this iteration     100.00

 eigenvalues of (default mixing * dielectric matrix)
  average eigenvalue GAMMA=   1.2209
  3.1452  2.6442  1.4753  1.4753  0.9533  0.7522  0.7522  0.7397  0.4581  0.5172
  0.5172

 Free energy of the ion-electron system (eV)
  ---------------------------------------------------
  alpha Z        PSCENC =        41.16232785
  Ewald energy   TEWEN  =     16187.30787828
  -Hartree energ DENC   =    -33163.70965139
  -exchange      EXHF   =         0.00000000
  -V(xc)+E(xc)   XCENC  =       615.47586485
  PAW double counting   =     17669.31769660   -19067.67500542
  entropy T*S    EENTRO =         0.00923171
  eigenvalues    EBANDS =      -992.87579180
  atomic energy  EATOM  =     18662.21924712
  Solvation  Ediel_sol  =         0.00000000
  ---------------------------------------------------
  free energy    TOTEN  =       -48.76820221 eV

  energy without entropy =      -48.77743392  energy(sigma->0) =      -48.77127945


--------------------------------------------------------------------------------------------------------




--------------------------------------- Iteration      1(  17)  ---------------------------------------


    POTLOK:  cpu time    1.1581: real time    1.1612
    SETDIJ:  cpu time    0.0174: real time    0.0174
    EDDIAG:  cpu time    1.1122: real time    1.1133
  RMM-DIIS:  cpu time    6.9415: real time    6.9486
    ORTHCH:  cpu time    0.0575: real time    0.0575
       DOS:  cpu time    0.0005: real time    0.0005
    CHARGE:  cpu time    0.7077: real time    0.7085
    MIXING:  cpu time    0.0309: real time    0.0309
    --------------------------------------------
      LOOP:  cpu time   10.0257: real time   10.0378

 eigenvalue-minimisations  :   393
 total energy-change (2. order) :-0.1683119E-02  (-0.5238605E-04)
 number of electron     152.9999999 magnetization       1.0000000
 augmentation part       92.4169106 magnetization       0.0791544

 Broyden mixing:
  rms(total) = 0.25658E-02    rms(broyden)= 0.25657E-02
  rms(prec ) = 0.41872E-02
  weight for this iteration     100.00

 eigenvalues of (default mixing * dielectric matrix)
  average eigenvalue GAMMA=   1.3366
  4.3816  2.5584  2.0162  1.4757  1.1363  0.7570  0.7570  0.8231  0.6561  0.5306
  0.4595  0.4878

 Free energy of the ion-electron system (eV)
  ---------------------------------------------------
  alpha Z        PSCENC =        41.16232785
  Ewald energy   TEWEN  =     16187.30787828
  -Hartree energ DENC   =    -33165.59736635
  -exchange      EXHF   =         0.00000000
  -V(xc)+E(xc)   XCENC  =       615.48427169
  PAW double counting   =     17666.94442122   -19065.25108271
  entropy T*S    EENTRO =         0.00923513
  eigenvalues    EBANDS =      -991.04881756
  atomic energy  EATOM  =     18662.21924712
  Solvation  Ediel_sol  =         0.00000000
  ---------------------------------------------------
  free energy    TOTEN  =       -48.76988533 eV

  energy without entropy =      -48.77912047  energy(sigma->0) =      -48.77296371


--------------------------------------------------------------------------------------------------------




--------------------------------------- Iteration      1(  18)  ---------------------------------------


    POTLOK:  cpu time    1.1553: real time    1.1571
    SETDIJ:  cpu time    0.0174: real time    0.0174
    EDDIAG:  cpu time    1.1121: real time    1.1134
  RMM-DIIS:  cpu time    6.4943: real time    6.5283
    ORTHCH:  cpu time    0.0577: real time    0.0578
       DOS:  cpu time    0.0005: real time    0.0005
    CHARGE:  cpu time    0.7077: real time    0.7082
    MIXING:  cpu time    0.0322: real time    0.0322
    --------------------------------------------
      LOOP:  cpu time    9.5771: real time    9.6149

 eigenvalue-minimisations  :   404
 total energy-change (2. order) :-0.8867831E-03  (-0.2088306E-04)
 number of electron     152.9999999 magnetization       1.0000000
 augmentation part       92.4179534 magnetization       0.0792038

 Broyden mixing:
  rms(total) = 0.13658E-02    rms(broyden)= 0.13657E-02
  rms(prec ) = 0.25901E-02
  weight for this iteration     100.00

 eigenvalues of (default mixing * dielectric matrix)
  average eigenvalue GAMMA=   1.3729
  5.1206  2.6281  2.1958  1.2925  1.2925  0.8907  0.8523  0.7547  0.7547  0.5986
  0.5212  0.4601  0.4858

 Free energy of the ion-electron system (eV)
  ---------------------------------------------------
  alpha Z        PSCENC =        41.16232785
  Ewald energy   TEWEN  =     16187.30787828
  -Hartree energ DENC   =    -33166.51199293
  -exchange      EXHF   =         0.00000000
  -V(xc)+E(xc)   XCENC  =       615.48543265
  PAW double counting   =     17666.51078212   -19064.81296014
  entropy T*S    EENTRO =         0.00923352
  eigenvalues    EBANDS =      -990.14072057
  atomic energy  EATOM  =     18662.21924712
  Solvation  Ediel_sol  =         0.00000000
  ---------------------------------------------------
  free energy    TOTEN  =       -48.77077211 eV

  energy without entropy =      -48.78000563  energy(sigma->0) =      -48.77384995


--------------------------------------------------------------------------------------------------------




--------------------------------------- Iteration      1(  19)  ---------------------------------------


    POTLOK:  cpu time    1.1585: real time    1.1595
    SETDIJ:  cpu time    0.0160: real time    0.0160
    EDDIAG:  cpu time    1.1119: real time    1.1132
  RMM-DIIS:  cpu time    7.6595: real time    7.6672
    ORTHCH:  cpu time    0.0579: real time    0.0579
       DOS:  cpu time    0.0004: real time    0.0004
    CHARGE:  cpu time    0.7075: real time    0.7084
    MIXING:  cpu time    0.0337: real time    0.0338
    --------------------------------------------
      LOOP:  cpu time   10.7454: real time   10.7564

 eigenvalue-minimisations  :   467
 total energy-change (2. order) :-0.8084168E-03  (-0.1224287E-04)
 number of electron     152.9999999 magnetization       1.0000000
 augmentation part       92.4170662 magnetization       0.0792246

 Broyden mixing:
  rms(total) = 0.10567E-02    rms(broyden)= 0.10567E-02
  rms(prec ) = 0.18529E-02
  weight for this iteration     100.00

 eigenvalues of (default mixing * dielectric matrix)
  average eigenvalue GAMMA=   1.4395
  5.8391  2.7666  2.1990  1.5823  1.5823  1.0559  0.9137  0.7490  0.7490  0.6798
  0.5753  0.4592  0.5135  0.4876

 Free energy of the ion-electron system (eV)
  ---------------------------------------------------
  alpha Z        PSCENC =        41.16232785
  Ewald energy   TEWEN  =     16187.30787828
  -Hartree energ DENC   =    -33167.09413247
  -exchange      EXHF   =         0.00000000
  -V(xc)+E(xc)   XCENC  =       615.48495997
  PAW double counting   =     17666.78583181   -19065.10529823
  entropy T*S    EENTRO =         0.00923168
  eigenvalues    EBANDS =      -989.54162653
  atomic energy  EATOM  =     18662.21924712
  Solvation  Ediel_sol  =         0.00000000
  ---------------------------------------------------
  free energy    TOTEN  =       -48.77158053 eV

  energy without entropy =      -48.78081221  energy(sigma->0) =      -48.77465776


--------------------------------------------------------------------------------------------------------




--------------------------------------- Iteration      1(  20)  ---------------------------------------


    POTLOK:  cpu time    1.1586: real time    1.1620
    SETDIJ:  cpu time    0.0173: real time    0.0173
    EDDIAG:  cpu time    1.1134: real time    1.1144
  RMM-DIIS:  cpu time    6.4876: real time    6.4940
    ORTHCH:  cpu time    0.0579: real time    0.0580
       DOS:  cpu time    0.0005: real time    0.0005
    CHARGE:  cpu time    0.7075: real time    0.7083
    MIXING:  cpu time    0.0352: real time    0.0352
    --------------------------------------------
      LOOP:  cpu time    9.5781: real time    9.5897

 eigenvalue-minimisations  :   407
 total energy-change (2. order) :-0.5489718E-03  (-0.4333020E-05)
 number of electron     152.9999999 magnetization       1.0000000
 augmentation part       92.4170269 magnetization       0.0792202

 Broyden mixing:
  rms(total) = 0.69860E-03    rms(broyden)= 0.69860E-03
  rms(prec ) = 0.12386E-02
  weight for this iteration     100.00

 eigenvalues of (default mixing * dielectric matrix)
  average eigenvalue GAMMA=   1.4671
  6.3617  2.8775  2.2785  2.0315  1.3897  1.0764  1.0055  0.8289  0.7560  0.7560
  0.6382  0.4595  0.5307  0.5307  0.4854

 Free energy of the ion-electron system (eV)
  ---------------------------------------------------
  alpha Z        PSCENC =        41.16232785
  Ewald energy   TEWEN  =     16187.30787828
  -Hartree energ DENC   =    -33167.25581748
  -exchange      EXHF   =         0.00000000
  -V(xc)+E(xc)   XCENC  =       615.48407023
  PAW double counting   =     17667.07627768   -19065.40566038
  entropy T*S    EENTRO =         0.00923006
  eigenvalues    EBANDS =      -989.36968285
  atomic energy  EATOM  =     18662.21924712
  Solvation  Ediel_sol  =         0.00000000
  ---------------------------------------------------
  free energy    TOTEN  =       -48.77212950 eV

  energy without entropy =      -48.78135956  energy(sigma->0) =      -48.77520619


--------------------------------------------------------------------------------------------------------




--------------------------------------- Iteration      1(  21)  ---------------------------------------


    POTLOK:  cpu time    1.1579: real time    1.1590
    SETDIJ:  cpu time    0.0171: real time    0.0175
    EDDIAG:  cpu time    1.1117: real time    1.1129
  RMM-DIIS:  cpu time    6.5714: real time    6.5777
    ORTHCH:  cpu time    0.0577: real time    0.0578
       DOS:  cpu time    0.0005: real time    0.0005
    CHARGE:  cpu time    0.7074: real time    0.7079
    MIXING:  cpu time    0.0366: real time    0.0366
    --------------------------------------------
      LOOP:  cpu time    9.6601: real time    9.6699

 eigenvalue-minimisations  :   403
 total energy-change (2. order) :-0.3962774E-03  (-0.3053093E-05)
 number of electron     152.9999999 magnetization       1.0000000
 augmentation part       92.4181083 magnetization       0.0792144

 Broyden mixing:
  rms(total) = 0.59264E-03    rms(broyden)= 0.59259E-03
  rms(prec ) = 0.91464E-03
  weight for this iteration     100.00

 eigenvalues of (default mixing * dielectric matrix)
  average eigenvalue GAMMA=   1.4980
  6.6730  3.2202  2.4325  2.1496  1.3735  1.3735  0.9539  0.9539  0.7540  0.7540
  0.7116  0.6216  0.4597  0.5360  0.5167  0.4848

 Free energy of the ion-electron system (eV)
  ---------------------------------------------------
  alpha Z        PSCENC =        41.16232785
  Ewald energy   TEWEN  =     16187.30787828
  -Hartree energ DENC   =    -33167.22405382
  -exchange      EXHF   =         0.00000000
  -V(xc)+E(xc)   XCENC  =       615.48239635
  PAW double counting   =     17667.25645221   -19065.58278537
  entropy T*S    EENTRO =         0.00923040
  eigenvalues    EBANDS =      -989.40321880
  atomic energy  EATOM  =     18662.21924712
  Solvation  Ediel_sol  =         0.00000000
  ---------------------------------------------------
  free energy    TOTEN  =       -48.77252578 eV

  energy without entropy =      -48.78175618  energy(sigma->0) =      -48.77560258


--------------------------------------------------------------------------------------------------------




--------------------------------------- Iteration      1(  22)  ---------------------------------------


    POTLOK:  cpu time    1.1579: real time    1.1607
    SETDIJ:  cpu time    0.0168: real time    0.0168
    EDDIAG:  cpu time    1.1110: real time    1.1122
  RMM-DIIS:  cpu time    6.3604: real time    6.3673
    ORTHCH:  cpu time    0.0575: real time    0.0577
       DOS:  cpu time    0.0004: real time    0.0004
    CHARGE:  cpu time    0.7059: real time    0.7065
    MIXING:  cpu time    0.0383: real time    0.0383
    --------------------------------------------
      LOOP:  cpu time    9.4480: real time    9.4599

 eigenvalue-minimisations  :   401
 total energy-change (2. order) :-0.2522428E-03  (-0.1869238E-05)
 number of electron     152.9999999 magnetization       1.0000000
 augmentation part       92.4180564 magnetization       0.0792129

 Broyden mixing:
  rms(total) = 0.36050E-03    rms(broyden)= 0.36049E-03
  rms(prec ) = 0.59575E-03
  weight for this iteration     100.00

 eigenvalues of (default mixing * dielectric matrix)
  average eigenvalue GAMMA=   1.5575
  7.1487  3.9503  2.5045  1.9919  1.7614  1.4649  1.0545  1.0545  0.7630  0.7630
  0.7654  0.6882  0.4593  0.5705  0.4861  0.5375  0.5135

 Free energy of the ion-electron system (eV)
  ---------------------------------------------------
  alpha Z        PSCENC =        41.16232785
  Ewald energy   TEWEN  =     16187.30787828
  -Hartree energ DENC   =    -33167.28151412
  -exchange      EXHF   =         0.00000000
  -V(xc)+E(xc)   XCENC  =       615.48169788
  PAW double counting   =     17667.43166283   -19065.75958229
  entropy T*S    EENTRO =         0.00923162
  eigenvalues    EBANDS =      -989.34372719
  atomic energy  EATOM  =     18662.21924712
  Solvation  Ediel_sol  =         0.00000000
  ---------------------------------------------------
  free energy    TOTEN  =       -48.77277802 eV

  energy without entropy =      -48.78200964  energy(sigma->0) =      -48.77585523


--------------------------------------------------------------------------------------------------------




--------------------------------------- Iteration      1(  23)  ---------------------------------------


    POTLOK:  cpu time    1.1575: real time    1.1593
    SETDIJ:  cpu time    0.0165: real time    0.0165
    EDDIAG:  cpu time    1.1115: real time    1.1126
  RMM-DIIS:  cpu time    6.6858: real time    6.6941
    ORTHCH:  cpu time    0.0577: real time    0.0579
       DOS:  cpu time    0.0005: real time    0.0005
    CHARGE:  cpu time    0.7052: real time    0.7060
    MIXING:  cpu time    0.0405: real time    0.0406
    --------------------------------------------
      LOOP:  cpu time    9.7752: real time    9.7874

 eigenvalue-minimisations  :   406
 total energy-change (2. order) :-0.1232090E-03  (-0.7925267E-06)
 number of electron     152.9999999 magnetization       1.0000000
 augmentation part       92.4177593 magnetization       0.0792085

 Broyden mixing:
  rms(total) = 0.20029E-03    rms(broyden)= 0.20027E-03
  rms(prec ) = 0.33623E-03
  weight for this iteration     100.00

 eigenvalues of (default mixing * dielectric matrix)
  average eigenvalue GAMMA=   1.5670
  7.4103  4.2925  2.4794  2.1713  1.8270  1.2986  1.2986  0.9701  0.9701  0.7589
  0.7589  0.7568  0.6636  0.5717  0.4594  0.4845  0.5167  0.5167

 Free energy of the ion-electron system (eV)
  ---------------------------------------------------
  alpha Z        PSCENC =        41.16232785
  Ewald energy   TEWEN  =     16187.30787828
  -Hartree energ DENC   =    -33167.35565334
  -exchange      EXHF   =         0.00000000
  -V(xc)+E(xc)   XCENC  =       615.48151707
  PAW double counting   =     17667.45565378   -19065.78401743
  entropy T*S    EENTRO =         0.00923140
  eigenvalues    EBANDS =      -989.26908596
  atomic energy  EATOM  =     18662.21924712
  Solvation  Ediel_sol  =         0.00000000
  ---------------------------------------------------
  free energy    TOTEN  =       -48.77290123 eV

  energy without entropy =      -48.78213264  energy(sigma->0) =      -48.77597837


--------------------------------------------------------------------------------------------------------




--------------------------------------- Iteration      1(  24)  ---------------------------------------


    POTLOK:  cpu time    1.1566: real time    1.1605
    SETDIJ:  cpu time    0.0167: real time    0.0170
    EDDIAG:  cpu time    1.1110: real time    1.1125
  RMM-DIIS:  cpu time    6.2595: real time    6.2656
    ORTHCH:  cpu time    0.0574: real time    0.0574
       DOS:  cpu time    0.0004: real time    0.0004
    CHARGE:  cpu time    0.7061: real time    0.7066
    MIXING:  cpu time    0.0424: real time    0.0424
    --------------------------------------------
      LOOP:  cpu time    9.3500: real time    9.3625

 eigenvalue-minimisations  :   392
 total energy-change (2. order) :-0.9289596E-04  (-0.5858450E-06)
 number of electron     152.9999999 magnetization       1.0000000
 augmentation part       92.4174054 magnetization       0.0792095

 Broyden mixing:
  rms(total) = 0.16425E-03    rms(broyden)= 0.16424E-03
  rms(prec ) = 0.25757E-03
  weight for this iteration     100.00

 eigenvalues of (default mixing * dielectric matrix)
  average eigenvalue GAMMA=   1.5944
  7.7025  4.6485  2.4439  2.4439  1.7814  1.5113  1.5113  1.0430  1.0430  0.7716
  0.7716  0.7309  0.7309  0.6087  0.5735  0.4594  0.4851  0.5168  0.5168

 Free energy of the ion-electron system (eV)
  ---------------------------------------------------
  alpha Z        PSCENC =        41.16232785
  Ewald energy   TEWEN  =     16187.30787828
  -Hartree energ DENC   =    -33167.38603233
  -exchange      EXHF   =         0.00000000
  -V(xc)+E(xc)   XCENC  =       615.48205856
  PAW double counting   =     17667.40301670   -19065.73351817
  entropy T*S    EENTRO =         0.00923130
  eigenvalues    EBANDS =      -989.23720343
  atomic energy  EATOM  =     18662.21924712
  Solvation  Ediel_sol  =         0.00000000
  ---------------------------------------------------
  free energy    TOTEN  =       -48.77299413 eV

  energy without entropy =      -48.78222543  energy(sigma->0) =      -48.77607123


--------------------------------------------------------------------------------------------------------




--------------------------------------- Iteration      1(  25)  ---------------------------------------


    POTLOK:  cpu time    1.1572: real time    1.1582
    SETDIJ:  cpu time    0.0168: real time    0.0168
    EDDIAG:  cpu time    1.1086: real time    1.1095
  RMM-DIIS:  cpu time    6.3091: real time    6.3153
    ORTHCH:  cpu time    0.0561: real time    0.0562
       DOS:  cpu time    0.0004: real time    0.0004
    CHARGE:  cpu time    0.7066: real time    0.7072
    MIXING:  cpu time    0.0450: real time    0.0450
    --------------------------------------------
      LOOP:  cpu time    9.3998: real time    9.4086

 eigenvalue-minimisations  :   391
 total energy-change (2. order) :-0.6592000E-04  (-0.5498300E-06)
 number of electron     152.9999999 magnetization       1.0000000
 augmentation part       92.4174744 magnetization       0.0792104

 Broyden mixing:
  rms(total) = 0.11567E-03    rms(broyden)= 0.11566E-03
  rms(prec ) = 0.17449E-03
  weight for this iteration     100.00

 eigenvalues of (default mixing * dielectric matrix)
  average eigenvalue GAMMA=   1.6293
  7.9817  5.0232  2.6557  2.6557  1.8272  1.8272  1.2790  1.2790  0.9552  0.9552
  0.7572  0.7572  0.7753  0.6883  0.6189  0.5700  0.4594  0.4848  0.5174  0.5174

 Free energy of the ion-electron system (eV)
  ---------------------------------------------------
  alpha Z        PSCENC =        41.16232785
  Ewald energy   TEWEN  =     16187.30787828
  -Hartree energ DENC   =    -33167.38210066
  -exchange      EXHF   =         0.00000000
  -V(xc)+E(xc)   XCENC  =       615.48210541
  PAW double counting   =     17667.30378028   -19065.63204451
  entropy T*S    EENTRO =         0.00923147
  eigenvalues    EBANDS =      -989.24348528
  atomic energy  EATOM  =     18662.21924712
  Solvation  Ediel_sol  =         0.00000000
  ---------------------------------------------------
  free energy    TOTEN  =       -48.77306005 eV

  energy without entropy =      -48.78229152  energy(sigma->0) =      -48.77613720


--------------------------------------------------------------------------------------------------------




--------------------------------------- Iteration      1(  26)  ---------------------------------------


    POTLOK:  cpu time    1.1578: real time    1.1593
    SETDIJ:  cpu time    0.0171: real time    0.0171
    EDDIAG:  cpu time    1.1095: real time    1.1111
  RMM-DIIS:  cpu time    6.0282: real time    6.0341
    ORTHCH:  cpu time    0.0560: real time    0.0560
       DOS:  cpu time    0.0005: real time    0.0005
    CHARGE:  cpu time    0.7073: real time    0.7080
    MIXING:  cpu time    0.0481: real time    0.0481
    --------------------------------------------
      LOOP:  cpu time    9.1243: real time    9.1341

 eigenvalue-minimisations  :   370
 total energy-change (2. order) :-0.3405165E-04  (-0.3153436E-06)
 number of electron     152.9999999 magnetization       1.0000000
 augmentation part       92.4177090 magnetization       0.0792142

 Broyden mixing:
  rms(total) = 0.63011E-04    rms(broyden)= 0.63007E-04
  rms(prec ) = 0.96015E-04
  weight for this iteration     100.00

 eigenvalues of (default mixing * dielectric matrix)
  average eigenvalue GAMMA=   1.6444
  8.1314  5.3757  3.0514  2.5506  1.8966  1.8966  1.3515  1.3515  1.0194  1.0194
  0.7876  0.7876  0.7402  0.7402  0.6426  0.6426  0.5703  0.4594  0.4849  0.5160
  0.5160

 Free energy of the ion-electron system (eV)
  ---------------------------------------------------
  alpha Z        PSCENC =        41.16232785
  Ewald energy   TEWEN  =     16187.30787828
  -Hartree energ DENC   =    -33167.37041095
  -exchange      EXHF   =         0.00000000
  -V(xc)+E(xc)   XCENC  =       615.48172396
  PAW double counting   =     17667.23975835   -19065.56437248
  entropy T*S    EENTRO =         0.00923142
  eigenvalues    EBANDS =      -989.25847765
  atomic energy  EATOM  =     18662.21924712
  Solvation  Ediel_sol  =         0.00000000
  ---------------------------------------------------
  free energy    TOTEN  =       -48.77309410 eV

  energy without entropy =      -48.78232552  energy(sigma->0) =      -48.77617124


--------------------------------------------------------------------------------------------------------




--------------------------------------- Iteration      1(  27)  ---------------------------------------


    POTLOK:  cpu time    1.1557: real time    1.1568
    SETDIJ:  cpu time    0.0170: real time    0.0170
    EDDIAG:  cpu time    1.1101: real time    1.1115
  RMM-DIIS:  cpu time    4.8790: real time    4.8847
    ORTHCH:  cpu time    0.0558: real time    0.0559
       DOS:  cpu time    0.0005: real time    0.0005
    CHARGE:  cpu time    0.7070: real time    0.7076
    MIXING:  cpu time    0.0518: real time    0.0519
    --------------------------------------------
      LOOP:  cpu time    7.9771: real time    7.9858

 eigenvalue-minimisations  :   292
 total energy-change (2. order) :-0.1239756E-04  (-0.1176399E-06)
 number of electron     152.9999999 magnetization       1.0000000
 augmentation part       92.4177914 magnetization       0.0792130

 Broyden mixing:
  rms(total) = 0.80309E-04    rms(broyden)= 0.80307E-04
  rms(prec ) = 0.10282E-03
  weight for this iteration     100.00

 eigenvalues of (default mixing * dielectric matrix)
  average eigenvalue GAMMA=   1.6406
  8.2032  5.6602  3.2704  2.4694  1.9759  1.9759  1.4215  1.4215  1.0024  1.0024
  0.8919  0.8919  0.7527  0.7527  0.6490  0.5981  0.5981  0.5815  0.4594  0.4848
  0.5148  0.5148

 Free energy of the ion-electron system (eV)
  ---------------------------------------------------
  alpha Z        PSCENC =        41.16232785
  Ewald energy   TEWEN  =     16187.30787828
  -Hartree energ DENC   =    -33167.36778567
  -exchange      EXHF   =         0.00000000
  -V(xc)+E(xc)   XCENC  =       615.48155994
  PAW double counting   =     17667.23920585   -19065.56336479
  entropy T*S    EENTRO =         0.00923141
  eigenvalues    EBANDS =      -989.26140648
  atomic energy  EATOM  =     18662.21924712
  Solvation  Ediel_sol  =         0.00000000
  ---------------------------------------------------
  free energy    TOTEN  =       -48.77310650 eV

  energy without entropy =      -48.78233790  energy(sigma->0) =      -48.77618363


--------------------------------------------------------------------------------------------------------




--------------------------------------- Iteration      1(  28)  ---------------------------------------


    POTLOK:  cpu time    1.1585: real time    1.1622
    SETDIJ:  cpu time    0.0167: real time    0.0167
    EDDIAG:  cpu time    1.1098: real time    1.1109
  RMM-DIIS:  cpu time    4.5293: real time    4.5336
    ORTHCH:  cpu time    0.0562: real time    0.0564
       DOS:  cpu time    0.0004: real time    0.0004
    CHARGE:  cpu time    0.7073: real time    0.7078
    MIXING:  cpu time    0.0553: real time    0.0553
[...]
     66      -4.9047      1.00000
     67      -4.8780      1.00000
     68      -4.8714      1.00000
     69      -4.8599      1.00000
     70      -4.8165      1.00000
     71      -4.8070      1.00000
     72      -4.7592      1.00000
     73      -4.7157      1.00000
     74      -4.5360      1.00000
     75      -4.1725      1.00000
     76      -4.0863      1.00000
     77      -3.5515      1.00000
     78      -3.0210     -0.00000
     79      -2.8825     -0.00000
     80      -2.5328     -0.00000
     81      -2.3367     -0.00000
     82      -1.9698     -0.00000
     83      -1.8685     -0.00000
     84      -1.7511     -0.00000
     85      -1.3640     -0.00000
     86      -1.0562     -0.00000
     87      -0.9253     -0.00000
     88      -0.6801      0.00000
     89      -0.3943      0.00000
     90      -0.2326      0.00000
     91      -0.1036      0.00000
     92       0.2109      0.00000

 spin component 2

 k-point     1 :       0.0000    0.0000    0.0000
  band No.  band energies     occupation 
      1     -28.6336      1.00000
      2     -13.8745      1.00000
      3     -11.5025      1.00000
      4     -11.2587      1.00000
      5     -11.0763      1.00000
      6     -10.0579      1.00000
      7      -8.4908      1.00000
      8      -8.1181      1.00000
      9      -7.6330      1.00000
     10      -7.4280      1.00000
     11      -7.3420      1.00000
     12      -7.2922      1.00000
     13      -7.2319      1.00000
     14      -7.1084      1.00000
     15      -6.9636      1.00000
     16      -6.9039      1.00000
     17      -6.7494      1.00000
     18      -6.7091      1.00000
     19      -6.6601      1.00000
     20      -6.6044      1.00000
     21      -6.5721      1.00000
     22      -6.5526      1.00000
     23      -6.4706      1.00000
     24      -6.4369      1.00000
     25      -6.3892      1.00000
     26      -6.3769      1.00000
     27      -6.3541      1.00000
     28      -6.2880      1.00000
     29      -6.2383      1.00000
     30      -6.1901      1.00000
     31      -6.1452      1.00000
     32      -6.1242      1.00000
     33      -6.0695      1.00000
     34      -6.0201      1.00000
     35      -5.9617      1.00000
     36      -5.7952      1.00000
     37      -5.7755      1.00000
     38      -5.6842      1.00000
     39      -5.6473      1.00000
     40      -5.5984      1.00000
     41      -5.5399      1.00000
     42      -5.4993      1.00000
     43      -5.4780      1.00000
     44      -5.4645      1.00000
     45      -5.4165      1.00000
     46      -5.3704      1.00000
     47      -5.3465      1.00000
     48      -5.3223      1.00000
     49      -5.3137      1.00000
     50      -5.2963      1.00000
     51      -5.2657      1.00000
     52      -5.2289      1.00000
     53      -5.1954      1.00000
     54      -5.1804      1.00000
     55      -5.1678      1.00000
     56      -5.1268      1.00000
     57      -5.1197      1.00000
     58      -5.1109      1.00000
     59      -5.0879      1.00000
     60      -5.0537      1.00000
     61      -5.0340      1.00000
     62      -5.0000      1.00000
     63      -4.9682      1.00000
     64      -4.9373      1.00000
     65      -4.8877      1.00000
     66      -4.8800      1.00000
     67      -4.8472      1.00000
     68      -4.8362      1.00000
     69      -4.8301      1.00000
     70      -4.7868      1.00000
     71      -4.7692      1.00000
     72      -4.7345      1.00000
     73      -4.6859      1.00000
     74      -4.4936      1.00000
     75      -4.1103      1.03344
     76      -4.0473      0.96656
     77      -3.3434     -0.00000
     78      -2.9683     -0.00000
     79      -2.8302     -0.00000
     80      -2.4601     -0.00000
     81      -2.2469     -0.00000
     82      -1.9303     -0.00000
     83      -1.8014     -0.00000
     84      -1.6837     -0.00000
     85      -1.2525     -0.00000
     86      -0.9444      0.00000
     87      -0.8466      0.00000
     88      -0.5997      0.00000
     89      -0.2870      0.00000
     90      -0.1777      0.00000
     91      -0.0477      0.00000
     92       0.1339      0.00000


--------------------------------------------------------------------------------------------------------


 soft charge-density along one line, spin component           1
         0         1         2         3         4         5         6         7         8         9
 total charge-density along one line
 
 soft charge-density along one line, spin component           2
         0         1         2         3         4         5         6         7         8         9
 total charge-density along one line
 
 pseudopotential strength for first ion, spin component:           1
-10.518   0.003  -0.020   0.001  -0.011   1.021  -0.002   0.017
  0.003 -10.494  -0.007   0.011   0.004  -0.002   1.003   0.005
 -0.020  -0.007 -10.475   0.004  -0.013   0.017   0.005   0.987
  0.001   0.011   0.004 -10.478  -0.003  -0.001  -0.010  -0.003
 -0.011   0.004  -0.013  -0.003 -10.500   0.008  -0.003   0.011
  1.021  -0.002   0.017  -0.001   0.008   6.290   0.001  -0.013
 -0.002   1.003   0.005  -0.010  -0.003   0.001   6.300  -0.004
  0.017   0.005   0.987  -0.003   0.011  -0.013  -0.004   6.312
 -0.001  -0.010  -0.003   0.989   0.002   0.000   0.009   0.002
  0.008  -0.003   0.011   0.002   1.007  -0.005   0.002  -0.008
 -0.008   0.001  -0.005  -0.000  -0.005   0.005   0.000  -0.000
 -0.015   0.001  -0.010  -0.001  -0.008   0.009   0.000  -0.001
 -0.012  -0.001   0.004  -0.000   0.009   0.009   0.001  -0.003
 -0.000  -0.007  -0.001  -0.012  -0.000   0.000   0.004   0.001
 -0.006  -0.000   0.008  -0.001  -0.013   0.002   0.000  -0.006
 -0.013  -0.001   0.005  -0.000   0.010   0.009   0.001  -0.003
 -0.000  -0.007  -0.001  -0.012  -0.000   0.001   0.004   0.001
 -0.005  -0.000   0.008  -0.001  -0.014   0.001   0.001  -0.006
 pseudopotential strength for first ion, spin component:           2
-10.475   0.002  -0.011  -0.008   0.003   0.986  -0.001   0.009
  0.002 -10.480  -0.008   0.010   0.002  -0.001   0.991   0.006
 -0.011  -0.008 -10.461   0.001  -0.009   0.009   0.006   0.975
 -0.008   0.010   0.001 -10.463  -0.005   0.006  -0.008  -0.001
  0.003   0.002  -0.009  -0.005 -10.484  -0.003  -0.002   0.008
  0.986  -0.001   0.009   0.006  -0.003   6.312   0.001  -0.006
 -0.001   0.991   0.006  -0.008  -0.002   0.001   6.307  -0.004
  0.009   0.006   0.975  -0.001   0.008  -0.006  -0.004   6.318
  0.006  -0.008  -0.001   0.976   0.004  -0.004   0.006   0.001
 -0.003  -0.002   0.008   0.004   0.993   0.002   0.001  -0.005
 -0.003   0.002  -0.002  -0.000  -0.003   0.000   0.000  -0.002
 -0.006   0.003  -0.004  -0.001  -0.005   0.001   0.000  -0.003
 -0.014  -0.001   0.005   0.000   0.008   0.012   0.000  -0.004
  0.000  -0.008  -0.000  -0.014   0.000  -0.000   0.006  -0.001
 -0.009   0.000   0.008   0.000  -0.014   0.006  -0.000  -0.007
 -0.016  -0.001   0.006   0.000   0.009   0.014  -0.000  -0.005
  0.000  -0.009  -0.000  -0.015   0.001  -0.001   0.006  -0.001
 -0.010   0.000   0.009   0.000  -0.016   0.007  -0.001  -0.009
 total augmentation occupancy for first ion, spin component:           1
  1.932   0.005  -0.007   0.000  -0.004  -0.012  -0.002   0.008   0.000   0.004  -0.018   0.013   0.039  -0.002   0.028  -0.020
  0.005   1.926  -0.007   0.008  -0.001  -0.002  -0.020   0.005  -0.002   0.001  -0.005  -0.000   0.002   0.034  -0.005  -0.001
 -0.007  -0.007   1.946   0.003  -0.005   0.008   0.005  -0.028  -0.003   0.004  -0.013   0.010  -0.005   0.001  -0.020   0.005
  0.000   0.008   0.003   1.937  -0.005   0.000  -0.002  -0.003  -0.023   0.003   0.004   0.002   0.005   0.058   0.003  -0.000
 -0.004  -0.001  -0.005  -0.005   1.937   0.004   0.001   0.004   0.003  -0.016  -0.010   0.007  -0.005   0.007   0.034   0.010
 -0.012  -0.002   0.008   0.000   0.004   0.014   0.000   0.002   0.000   0.001  -0.030   0.000   0.022  -0.000   0.005  -0.001
 -0.002  -0.020   0.005  -0.002   0.001   0.000   0.008   0.000   0.001  -0.001   0.007  -0.001   0.001   0.011   0.001  -0.000
  0.008   0.005  -0.028  -0.003   0.004   0.002   0.000   0.007  -0.000   0.001  -0.038   0.005  -0.004  -0.001  -0.008   0.000
  0.000  -0.002  -0.003  -0.023   0.003   0.000   0.001  -0.000   0.009  -0.001  -0.005   0.001  -0.002   0.020  -0.001  -0.000
  0.004   0.001   0.004   0.003  -0.016   0.001  -0.001   0.001  -0.001   0.012  -0.017   0.000  -0.017  -0.003   0.020   0.001
 -0.018  -0.005  -0.013   0.004  -0.010  -0.030   0.007  -0.038  -0.005  -0.017   1.629  -0.113   0.093   0.003   0.185  -0.014
  0.013  -0.000   0.010   0.002   0.007   0.000  -0.001   0.005   0.001   0.000  -0.113   0.013  -0.016   0.001  -0.026   0.002
  0.039   0.002  -0.005   0.005  -0.005   0.022   0.001  -0.004  -0.002  -0.017   0.093  -0.016   0.182   0.002  -0.040  -0.011
 -0.002   0.034   0.001   0.058   0.007  -0.000   0.011  -0.001   0.020  -0.003   0.003   0.001   0.002   0.086  -0.007  -0.001
  0.028  -0.005  -0.020   0.003   0.034   0.005   0.001  -0.008  -0.001   0.020   0.185  -0.026  -0.040  -0.007   0.136   0.001
 -0.020  -0.001   0.005  -0.000   0.010  -0.001  -0.000   0.000  -0.000   0.001  -0.014   0.002  -0.011  -0.001   0.001   0.001
  0.000  -0.012  -0.001  -0.022   0.000  -0.000  -0.001   0.000  -0.001   0.000  -0.000  -0.000  -0.001  -0.005   0.000   0.000
 -0.011   0.000   0.010  -0.001  -0.020   0.000  -0.000   0.001   0.000  -0.001  -0.025   0.002   0.001   0.000  -0.010   0.000
 total augmentation occupancy for first ion, spin component:           2
  0.018  -0.001   0.003  -0.005   0.008  -0.003  -0.000  -0.002   0.001  -0.002   0.035   0.006  -0.011   0.006  -0.018  -0.001
 -0.001   0.000  -0.000   0.001  -0.001  -0.000   0.001   0.000   0.001   0.000  -0.002  -0.001   0.002  -0.002   0.001   0.000
  0.003  -0.000   0.002  -0.002   0.001  -0.002   0.000   0.002   0.000  -0.001   0.006   0.001  -0.001   0.003  -0.001   0.000
 -0.005   0.001  -0.002   0.003  -0.002   0.001   0.001   0.000   0.002   0.000  -0.010  -0.002   0.002  -0.006   0.006   0.000
  0.008  -0.001   0.001  -0.002   0.003  -0.002   0.000  -0.001   0.000   0.002   0.015   0.003  -0.002   0.002  -0.010  -0.000
 -0.003  -0.000  -0.002   0.001  -0.002   0.001  -0.000   0.000  -0.000   0.000  -0.008  -0.001   0.002  -0.002   0.004   0.000
 -0.000   0.001   0.000   0.001   0.000  -0.000  -0.000   0.000  -0.000  -0.000   0.000   0.000   0.000   0.000  -0.000  -0.000
 -0.002   0.000   0.002   0.000  -0.001   0.000   0.000   0.000  -0.000   0.000  -0.002  -0.000   0.001  -0.000   0.001   0.000
  0.001   0.001   0.000   0.002   0.000  -0.000  -0.000  -0.000  -0.000  -0.000   0.002   0.000  -0.001   0.000  -0.001  -0.000
 -0.002   0.000  -0.001   0.000   0.002   0.000  -0.000   0.000  -0.000  -0.000  -0.003  -0.000   0.001  -0.001   0.001  -0.000
  0.035  -0.002   0.006  -0.010   0.015  -0.008   0.000  -0.002   0.002  -0.003   0.087   0.005  -0.019   0.016  -0.039  -0.000
  0.006  -0.001   0.001  -0.002   0.003  -0.001   0.000  -0.000   0.000  -0.000   0.005   0.001  -0.001   0.001  -0.002  -0.000
 -0.011   0.002  -0.001   0.002  -0.002   0.002   0.000   0.001  -0.001   0.001  -0.019  -0.001   0.004  -0.003   0.006   0.000
  0.006  -0.002   0.003  -0.006   0.002  -0.002   0.000  -0.000   0.000  -0.001   0.016   0.001  -0.003   0.003  -0.005  -0.000
 -0.018   0.001  -0.001   0.006  -0.010   0.004  -0.000   0.001  -0.001   0.001  -0.039  -0.002   0.006  -0.005   0.013   0.000
 -0.001   0.000   0.000   0.000  -0.000   0.000  -0.000   0.000  -0.000  -0.000  -0.000  -0.000   0.000  -0.000   0.000   0.000
  0.000  -0.000   0.000  -0.001   0.000   0.000  -0.000  -0.000   0.000   0.000  -0.000   0.000   0.000   0.000   0.000  -0.000
 -0.001   0.000   0.000   0.001  -0.001   0.000   0.000   0.000  -0.000   0.000  -0.000  -0.000   0.000  -0.000   0.000   0.000


------------------------ aborting loop because EDIFF is reached ----------------------------------------


    CHARGE:  cpu time    0.7136: real time    0.7144
    FORLOC:  cpu time    0.0648: real time    0.0648
    FORNL :  cpu time    1.5306: real time    1.5314
    STRESS:  cpu time    6.1303: real time    6.1350
    FORCOR:  cpu time    1.1636: real time    1.1643
    FORHAR:  cpu time    0.1864: real time    0.1865
    MIXING:  cpu time    0.1228: real time    0.1229
    OFIELD:  cpu time    0.0001: real time    0.0001

  FORCE on cell =-STRESS in cart. coord.  units (eV):
  Direction    XX          YY          ZZ          XY          YZ          ZX
  --------------------------------------------------------------------------------------
  Alpha Z    41.16233    41.16233    41.16233
  Ewald   10157.59496  7338.23884 -1308.54177  -794.91523   369.32349   167.82304
  Hartree 15265.22722 12837.51944  5064.63242  -709.67804   331.20174   103.29278
  E(xc)    -876.28347  -877.82937  -879.44747    -0.11227     0.04330     0.26723
  Local  -26814.03336-21607.72270 -5193.80807  1505.23177  -699.51645  -263.68341
  n-local  -330.13565  -322.98081  -328.83792    -1.60456    -0.25303     0.76164
  augment  1221.91938  1226.79121  1232.53618     0.30056    -0.51586    -2.07052
  Kinetic  1336.25047  1364.11545  1370.45238    -0.07537    -0.65437    -4.45555
  Fock        0.00000     0.00000     0.00000     0.00000     0.00000     0.00000
  -------------------------------------------------------------------------------------
  Total       1.70186    -0.70561    -1.85193    -0.85315    -0.37118     1.93520
  in kB       0.80791    -0.33497    -0.87914    -0.40500    -0.17621     0.91868
  external pressure =       -0.14 kB  Pullay stress =        0.00 kB


 VOLUME and BASIS-vectors are now :
 -----------------------------------------------------------------------------
  energy-cutoff  :      600.00
  volume of cell :     3375.00
      direct lattice vectors                 reciprocal lattice vectors
    15.000000000  0.000000000  0.000000000     0.066666667  0.000000000  0.000000000
     0.000000000 15.000000000  0.000000000     0.000000000  0.066666667  0.000000000
     0.000000000  0.000000000 15.000000000     0.000000000  0.000000000  0.066666667

  length of vectors
    15.000000000 15.000000000 15.000000000     0.066666667  0.066666667  0.066666667


 FORCES acting on ions
    electron-ion (+dipol)            ewald-force                    non-local-force                 convergence-correction
 -----------------------------------------------------------------------------------------------
   0.108E+04 0.674E+03 -.172E+02   -.108E+04 -.672E+03 0.176E+02   -.503E+01 -.232E+01 -.367E+00   -.142E-05 0.843E-05 -.371E-05
   0.466E+03 -.314E+03 0.901E+03   -.465E+03 0.312E+03 -.901E+03   -.184E+01 0.253E+01 0.517E+00   0.359E-05 -.136E-04 -.198E-04
   0.286E+03 0.126E+04 -.194E+03   -.284E+03 -.125E+04 0.192E+03   -.144E+01 -.895E+01 0.192E+01   0.969E-05 -.622E-05 -.435E-06
   -.860E+03 -.131E+03 0.862E+03   0.858E+03 0.130E+03 -.857E+03   0.211E+01 0.107E+01 -.408E+01   -.289E-05 0.148E-06 0.573E-05
   -.816E+03 0.990E+03 0.158E+03   0.811E+03 -.983E+03 -.157E+03   0.490E+01 -.607E+01 -.101E+01   0.946E-05 0.123E-05 0.267E-05
   -.157E+03 0.508E+03 -.963E+03   0.156E+03 -.505E+03 0.962E+03   0.152E+01 -.348E+01 0.483E+00   0.406E-05 0.109E-04 0.186E-04
   0.173E+03 0.631E+03 0.121E+04   -.172E+03 -.627E+03 -.120E+04   -.137E+01 -.507E+01 -.600E+01   0.320E-05 0.154E-04 0.412E-05
   0.126E+04 -.349E+03 0.157E+03   -.125E+04 0.346E+03 -.154E+03   -.898E+01 0.270E+01 -.321E+01   -.895E-05 -.508E-07 -.808E-05
   0.573E+03 -.186E+03 -.122E+04   -.569E+03 0.186E+03 0.121E+04   -.294E+01 0.156E+00 0.738E+01   0.133E-04 -.171E-05 0.256E-06
   0.453E+03 -.126E+04 -.155E+03   -.450E+03 0.125E+04 0.153E+03   -.304E+01 0.693E+01 0.175E+01   -.125E-05 0.183E-04 0.501E-05
   -.476E+03 -.104E+04 0.728E+03   0.472E+03 0.104E+04 -.721E+03   0.440E+01 0.594E+01 -.713E+01   -.224E-05 -.180E-05 0.137E-04
   -.807E+03 0.154E+02 -.368E+03   0.805E+03 -.157E+02 0.365E+03   -.202E+00 0.100E+00 0.266E+01   0.302E-04 0.207E-05 0.753E-05
   -.569E+03 -.757E+03 -.832E+03   0.566E+03 0.753E+03 0.828E+03   0.272E+01 0.389E+01 0.320E+01   0.586E-05 -.108E-04 0.211E-05
   -.121E+03 -.214E+02 -.137E+03   0.100E+03 0.211E+02 0.136E+03   0.198E+02 0.167E+00 0.107E+01   0.922E-05 -.618E-07 0.124E-05
   -.435E+03 -.122E+02 -.127E+03   0.497E+03 0.128E+02 0.132E+03   -.603E+02 -.416E+00 -.519E+01   0.800E-05 -.232E-06 -.380E-05
 -----------------------------------------------------------------------------------------------
   0.497E+02 0.284E+01 0.802E+01   0.171E-12 0.201E-12 0.313E-12   -.497E+02 -.284E+01 -.802E+01   0.798E-04 0.220E-04 0.251E-04
 
 
 POSITION                                       TOTAL-FORCE (eV/Angst)
 -----------------------------------------------------------------------------------
      4.39235      6.24331      8.31883         0.070838      0.335588      0.008338
      5.65030      8.18438      7.35401        -0.333427      0.066773      0.160136
      5.89433      4.39393      8.42365         0.284286      0.014004      0.005274
      7.97003      7.54650      7.23613         0.380203      0.208240      0.228111
      8.23232      5.17735      7.92746        -0.097078      0.419111      0.142510
      6.69362      6.58951      9.25656         0.282033     -0.394306     -0.443198
      6.29337      6.00188      6.61632        -0.201843     -0.383457      0.428443
      3.40470      8.51656      8.26641        -0.278868      0.164287     -0.386958
      4.93182      8.16851      9.91506         0.734825     -0.043502     -0.159669
      5.30852     10.22030      8.52118        -0.252325      0.045178      0.144320
      7.27200      9.99424      7.09884         0.070829     -0.098301      0.051554
      9.45551      7.32004      9.12146        -1.712595     -0.230746     -0.547238
      7.27016      8.90768      9.21683         0.039164     -0.123929     -0.006488
     11.07350      7.47930      9.78159        -0.466273     -0.095528      0.131447
     12.21290      7.49144      9.88371         1.480231      0.116590      0.243418
 -----------------------------------------------------------------------------------
    total drift:                               -0.001847      0.000337      0.000726


--------------------------------------------------------------------------------------------------------



  FREE ENERGIE OF THE ION-ELECTRON SYSTEM (eV)
  ---------------------------------------------------
  free  energy   TOTEN  =       -48.77311979 eV

  energy  without entropy=      -48.78235116  energy(sigma->0) =      -48.77619691
 


--------------------------------------------------------------------------------------------------------


    POTLOK:  cpu time    1.1765: real time    1.1775


--------------------------------------------------------------------------------------------------------


     LOOP+:  cpu time  351.8478: real time  352.2825
    4ORBIT:  cpu time    0.0000: real time    0.0000

 total amount of memory used by VASP MPI-rank0   158680. kBytes
=======================================================================

   base      :      30000. kBytes
   nonl-proj :      12601. kBytes
   fftplans  :      27994. kBytes
   grid      :      74150. kBytes
   one-center:         93. kBytes
   wavefun   :      13842. kBytes
 
  
  
 General timing and accounting informations for this job:
 ========================================================
  
                  Total CPU time used (sec):      355.852
                            User time (sec):      343.710
                          System time (sec):       12.142
                         Elapsed time (sec):      356.329
  
                   Maximum memory used (kb):      279216.
                   Average memory used (kb):           0.
  
                          Minor page faults:       300478
                          Major page faults:            0
                 Voluntary context switches:          770
