<?xml version="1.0" encoding="ISO-8859-1"?>
<modeling>
 <generator>
  <i name="program" type="string">vasp </i>
  <i name="version" type="string">5.4.4.18Apr17-6-g9f103f2a35  </i>
  <i name="subversion" type="string">(build May 08 2019 13:49:07) complex            parallel </i>
  <i name="platform" type="string">LinuxIFC </i>
  <i name="date" type="string">2019 11 13 </i>
  <i name="time" type="string">13:16:08 </i>
 </generator>
 <incar>
  <i type="string" name="SYSTEM"> CuCO</i>
  <i type="int" name="ISTART">     0</i>
  <i type="string" name="PREC">accurate</i>
  <i type="string" name="ALGO"> Fast</i>
  <i type="int" name="ISPIN">     2</i>
  <i type="int" name="INIWAV">     1</i>
  <i type="int" name="NELM">   300</i>
  <i type="int" name="NELMIN">     3</i>
  <i type="int" name="IBRION">    -1</i>
  <i name="EDIFF">      0.00000010</i>
  <i name="EDIFFG">     -0.00100000</i>
  <i type="int" name="NSW">     0</i>
  <i type="int" name="ISYM">     0</i>
  <i name="ENCUT">    600.00000000</i>
  <i name="NUPDOWN">      1.00000000</i>
  <i type="logical" name="LREAL"> F  </i>
  <i type="int" name="ISMEAR">     1</i>
  <i name="SIGMA">      0.10000000</i>
  <i name="KSPACING">      0.50000000</i>
  <i type="logical" name="KGAMMA"> F  </i>
  <i type="logical" name="LWAVE"> F  </i>
  <i type="logical" name="LCHARG"> F  </i>
  <v type="int" name="KPOINT_BSE">    -1     0     0     0</v>
  <i type="int" name="NELM">   300</i>
  <i type="string" name="GGA"> PE</i>
 </incar>
 <structure name="primitive_cell" >
  <crystal>
   <varray name="basis" >
    <v>      15.00000000       0.00000000       0.00000000 </v>
    <v>       0.00000000      15.00000000       0.00000000 </v>
    <v>       0.00000000       0.00000000      15.00000000 </v>
   </varray>
   <i name="volume">   3375.00000000 </i>
   <varray name="rec_basis" >
    <v>       0.06666667       0.00000000       0.00000000 </v>
    <v>       0.00000000       0.06666667       0.00000000 </v>
    <v>       0.00000000       0.00000000       0.06666667 </v>
   </varray>
  </crystal>
  <varray name="positions" >
   <v>       0.29381000       0.42284667      -0.44031133 </v>
   <v>       0.33103867      -0.46155800      -0.34217133 </v>
   <v>       0.37772800      -0.45433600       0.49561333 </v>
   <v>       0.44437467       0.43706933      -0.37936067 </v>
   <v>       0.40983200       0.39480267       0.44834400 </v>
   <v>       0.21922800      -0.43155933      -0.44294467 </v>
   <v>       0.40569867       0.29370267      -0.42955200 </v>
   <v>       0.34451800      -0.32522000      -0.42385267 </v>
   <v>       0.48286733      -0.40965933      -0.38963133 </v>
   <v>      -0.47137000      -0.49968000       0.47094467 </v>
   <v>      -0.44800067       0.35089200      -0.47157467 </v>
   <v>       0.49477067      -0.32754000       0.46729600 </v>
   <v>      -0.37054533       0.49694000      -0.40445667 </v>
   <v>      -0.25230667       0.49674600      -0.37193267 </v>
   <v>      -0.17708667       0.49122800      -0.35015067 </v>
  </varray>
 </structure>
 <varray name="primitive_index" >
  <v type="int" >        1 </v>
  <v type="int" >        9 </v>
  <v type="int" >        2 </v>
  <v type="int" >        6 </v>
  <v type="int" >        7 </v>
  <v type="int" >        8 </v>
  <v type="int" >        3 </v>
  <v type="int" >       10 </v>
  <v type="int" >       13 </v>
  <v type="int" >        4 </v>
  <v type="int" >        5 </v>
  <v type="int" >       11 </v>
  <v type="int" >       12 </v>
  <v type="int" >       14 </v>
  <v type="int" >       15 </v>
 </varray>
 <kpoints>
  <generation param="Monkhorst-Pack">
   <v type="int" name="divisions">       1        1        1 </v>
   <v name="usershift">      0.00000000       0.00000000       0.00000000 </v>
   <v name="genvec1">      1.00000000       0.00000000       0.00000000 </v>
   <v name="genvec2">      0.00000000       1.00000000       0.00000000 </v>
   <v name="genvec3">      0.00000000       0.00000000       1.00000000 </v>
   <v name="shift">      0.00000000       0.00000000       0.00000000 </v>
  </generation>
  <varray name="kpointlist" >
   <v>       0.00000000       0.00000000       0.00000000 </v>
  </varray>
  <varray name="weights" >
   <v>       1.00000000 </v>
  </varray>
 </kpoints>
 <parameters>
  <separator name="general" >
   <i type="string" name="SYSTEM">CuCO</i>
   <i type="logical" name="LCOMPAT"> F  </i>
  </separator>
  <separator name="electronic" >
   <i type="string" name="PREC">accura</i>
   <i name="ENMAX">    600.00000000</i>
   <i name="ENAUG">    644.87300000</i>
   <i name="EDIFF">      0.00000010</i>
   <i type="int" name="IALGO">    68</i>
   <i type="int" name="IWAVPR">    10</i>
   <i type="int" name="NBANDS">    92</i>
   <i name="NELECT">    153.00000000</i>
   <i type="int" name="TURBO">     0</i>
   <i type="int" name="IRESTART">     0</i>
   <i type="int" name="NREBOOT">     0</i>
   <i type="int" name="NMIN">     0</i>
   <i name="EREF">      0.00000000</i>
   <separator name="electronic smearing" >
    <i type="int" name="ISMEAR">     1</i>
    <i name="SIGMA">      0.10000000</i>
    <i name="KSPACING">      0.50000000</i>
    <i type="logical" name="KGAMMA"> F  </i>
   </separator>
   <separator name="electronic projectors" >
    <i type="logical" name="LREAL"> F  </i>
    <v name="ROPT">      0.00000000      0.00000000      0.00000000</v>
    <i type="int" name="LMAXPAW">  -100</i>
    <i type="int" name="LMAXMIX">     2</i>
    <i type="logical" name="NLSPLINE"> F  </i>
   </separator>
   <separator name="electronic startup" >
    <i type="int" name="ISTART">     0</i>
    <i type="int" name="ICHARG">     2</i>
    <i type="int" name="INIWAV">     1</i>
   </separator>
   <separator name="electronic spin" >
    <i type="int" name="ISPIN">     2</i>
    <i type="logical" name="LNONCOLLINEAR"> F  </i>
    <v name="MAGMOM">      0.06666667      0.06666667      0.06666667      0.06666667      0.06666667      0.06666667      0.06666667      0.06666667      0.06666667      0.06666667      0.06666667      0.06666667      0.06666667      0.06666667      0.06666667</v>
    <i name="NUPDOWN">      1.00000000</i>
    <i type="logical" name="LSORBIT"> F  </i>
    <v name="SAXIS">      0.00000000      0.00000000      1.00000000</v>
    <i type="logical" name="LSPIRAL"> F  </i>
    <v name="QSPIRAL">      0.00000000      0.00000000      0.00000000</v>
    <i type="logical" name="LZEROZ"> F  </i>
   </separator>
   <separator name="electronic exchange-correlation" >
    <i type="logical" name="LASPH"> F  </i>
    <i type="logical" name="LMETAGGA"> F  </i>
   </separator>
   <separator name="electronic convergence" >
    <i type="int" name="NELM">   300</i>
    <i type="int" name="NELMDL">    -5</i>
    <i type="int" name="NELMIN">     3</i>
    <i name="ENINI">    600.00000000</i>
    <separator name="electronic convergence detail" >
     <i type="logical" name="LDIAG"> T  </i>
     <i type="logical" name="LSUBROT"> F  </i>
     <i name="WEIMIN">      0.00000000</i>
     <i name="EBREAK">      0.00000000</i>
     <i name="DEPER">      0.30000000</i>
     <i type="int" name="NRMM">     4</i>
     <i name="TIME">      0.40000000</i>
    </separator>
   </separator>
   <separator name="electronic mixer" >
    <i name="AMIX">      0.40000000</i>
    <i name="BMIX">      1.00000000</i>
    <i name="AMIN">      0.10000000</i>
    <i name="AMIX_MAG">      1.60000000</i>
    <i name="BMIX_MAG">      1.00000000</i>
    <separator name="electronic mixer details" >
     <i type="int" name="IMIX">     4</i>
     <i type="logical" name="MIXFIRST"> F  </i>
     <i type="int" name="MAXMIX">   -45</i>
     <i name="WC">    100.00000000</i>
     <i type="int" name="INIMIX">     1</i>
     <i type="int" name="MIXPRE">     1</i>
     <i type="int" name="MREMOVE">     5</i>
    </separator>
   </separator>
   <separator name="electronic dipolcorrection" >
    <i type="logical" name="LDIPOL"> F  </i>
    <i type="logical" name="LMONO"> F  </i>
    <i type="int" name="IDIPOL">     0</i>
    <i name="EPSILON">      1.00000000</i>
    <v name="DIPOL">   -100.00000000   -100.00000000   -100.00000000</v>
    <i name="EFIELD">      0.00000000</i>
   </separator>
  </separator>
  <separator name="grids" >
   <i type="int" name="NGX">   120</i>
   <i type="int" name="NGY">   120</i>
   <i type="int" name="NGZ">   120</i>
   <i type="int" name="NGXF">   240</i>
   <i type="int" name="NGYF">   240</i>
   <i type="int" name="NGZF">   240</i>
   <i type="logical" name="ADDGRID"> F  </i>
  </separator>
  <separator name="ionic" >
   <i type="int" name="NSW">     0</i>
   <i type="int" name="IBRION">    -1</i>
   <i type="int" name="MDALGO">     0</i>
   <i type="int" name="ISIF">     2</i>
   <i name="PSTRESS">      0.00000000</i>
   <i name="EDIFFG">     -0.00100000</i>
   <i type="int" name="NFREE">     0</i>
   <i name="POTIM">      0.50000000</i>
   <i name="SMASS">     -3.00000000</i>
   <i name="SCALEE">      1.00000000</i>
  </separator>
  <separator name="ionic md" >
   <i name="TEBEG">      0.00010000</i>
   <i name="TEEND">      0.00010000</i>
   <i type="int" name="NBLOCK">     1</i>
   <i type="int" name="KBLOCK">     1</i>
   <i type="int" name="NPACO">   256</i>
   <i name="APACO">     16.00000000</i>
  </separator>
  <separator name="symmetry" >
   <i type="int" name="ISYM">     0</i>
   <i name="SYMPREC">      0.00001000</i>
  </separator>
  <separator name="dos" >
   <i type="int" name="LORBIT">     0</i>
   <v name="RWIGS">     -1.00000000     -1.00000000     -1.00000000</v>
   <i type="int" name="NEDOS">   301</i>
   <i name="EMIN">     10.00000000</i>
   <i name="EMAX">    -10.00000000</i>
   <i name="EFERMI">      0.00000000</i>
  </separator>
  <separator name="writing" >
   <i type="int" name="NWRITE">     2</i>
   <i type="logical" name="LWAVE"> F  </i>
   <i type="logical" name="LDOWNSAMPLE"> F  </i>
   <i type="logical" name="LCHARG"> F  </i>
   <i type="logical" name="LPARD"> F  </i>
   <i type="logical" name="LVTOT"> F  </i>
   <i type="logical" name="LVHAR"> F  </i>
   <i type="logical" name="LELF"> F  </i>
   <i type="logical" name="LOPTICS"> F  </i>
   <v name="STM">      0.00000000      0.00000000      0.00000000      0.00000000      0.00000000      0.00000000      0.00000000</v>
  </separator>
  <separator name="performance" >
   <i type="int" name="NPAR">     4</i>
   <i type="int" name="NSIM">     4</i>
   <i type="int" name="NBLK">    -1</i>
   <i type="logical" name="LPLANE"> T  </i>
   <i type="logical" name="LSCALAPACK"> T  </i>
   <i type="logical" name="LSCAAWARE"> F  </i>
   <i type="logical" name="LSCALU"> F  </i>
   <i type="logical" name="LASYNC"> F  </i>
   <i type="logical" name="LORBITALREAL"> F  </i>
  </separator>
  <separator name="miscellaneous" >
   <i type="int" name="IDIOT">     3</i>
   <i type="int" name="ISPECIAL">     0</i>
   <i type="logical" name="LMUSIC"> F  </i>
   <v name="POMASS">     63.54600000     12.01100000     16.00000000</v>
   <v name="DARWINR">      0.00000000      0.00000000      0.00000000</v>
   <v name="DARWINV">      1.00000000      1.00000000      1.00000000</v>
   <i type="logical" name="LCORR"> T  </i>
  </separator>
  <i type="logical" name="GGA_COMPAT"> T  </i>
  <i type="logical" name="LBERRY"> F  </i>
  <i type="int" name="ICORELEVEL">     0</i>
  <i type="logical" name="LDAU"> F  </i>
  <i type="int" name="I_CONSTRAINED_M">     0</i>
  <separator name="electronic exchange-correlation" >
   <i type="string" name="GGA">PE</i>
   <i type="int" name="VOSKOWN">     0</i>
   <i type="logical" name="LHFCALC"> F  </i>
   <i type="string" name="PRECFOCK"></i>
   <i type="logical" name="LSYMGRAD"> F  </i>
   <i type="logical" name="LHFONE"> F  </i>
   <i type="logical" name="LRHFCALC"> F  </i>
   <i type="logical" name="LTHOMAS"> F  </i>
   <i type="logical" name="LMODELHF"> F  </i>
   <i name="ENCUT4O">     -1.00000000</i>
   <i type="int" name="EXXOEP">     0</i>
   <i type="int" name="FOURORBIT">     0</i>
   <i name="AEXX">      0.00000000</i>
   <i name="HFALPHA">      0.00000000</i>
   <i name="MCALPHA">      0.00000000</i>
   <i name="ALDAX">      1.00000000</i>
   <i name="AGGAX">      1.00000000</i>
   <i name="ALDAC">      1.00000000</i>
   <i name="AGGAC">      1.00000000</i>
   <i type="int" name="NKREDX">     1</i>
   <i type="int" name="NKREDY">     1</i>
   <i type="int" name="NKREDZ">     1</i>
   <i type="logical" name="SHIFTRED"> F  </i>
   <i type="logical" name="ODDONLY"> F  </i>
   <i type="logical" name="EVENONLY"> F  </i>
   <i type="int" name="LMAXFOCK">     0</i>
   <i type="int" name="NMAXFOCKAE">     0</i>
   <i type="logical" name="LFOCKAEDFT"> F  </i>
   <i name="HFSCREEN">      0.00000000</i>
   <i name="HFSCREENC">      0.00000000</i>
   <i type="int" name="NBANDSGWLOW">     0</i>
  </separator>
  <separator name="vdW DFT" >
   <i type="logical" name="LUSE_VDW"> F  </i>
   <i name="Zab_VDW">     -0.84910000</i>
   <i name="PARAM1">      0.12340000</i>
   <i name="PARAM2">      1.00000000</i>
   <i name="PARAM3">      0.00000000</i>
  </separator>
  <separator name="model GW" >
   <i type="int" name="MODEL_GW">     0</i>
   <i name="MODEL_EPS0">    135.00000000</i>
   <i name="MODEL_ALPHA">      1.00000000</i>
  </separator>
  <separator name="linear response parameters" >
   <i type="logical" name="LEPSILON"> F  </i>
   <i type="logical" name="LRPA"> F  </i>
   <i type="logical" name="LNABLA"> F  </i>
   <i type="logical" name="LVEL"> F  </i>
   <i type="int" name="KINTER">     0</i>
   <i name="CSHIFT">      0.10000000</i>
   <i name="OMEGAMAX">     -1.00000000</i>
   <i name="DEG_THRESHOLD">      0.00200000</i>
   <i name="RTIME">     -0.10000000</i>
   <i name="WPLASMAI">      0.00000000</i>
   <v name="DFIELD">      0.00000000      0.00000000      0.00000000</v>
   <v name="WPLASMA">      0.00000000      0.00000000      0.00000000      0.00000000      0.00000000      0.00000000      0.00000000      0.00000000      0.00000000</v>
  </separator>
  <separator name="orbital magnetization" >
   <i type="logical" name="NUCIND"> F  </i>
   <v name="MAGPOS">      0.00000000      0.00000000      0.00000000</v>
   <i type="logical" name="LNICSALL"> T  </i>
   <i type="logical" name="ORBITALMAG"> F  </i>
   <i type="logical" name="LMAGBLOCH"> F  </i>
   <i type="logical" name="LCHIMAG"> F  </i>
   <i type="logical" name="LGAUGE"> T  </i>
   <i type="int" name="MAGATOM">     0</i>
   <v name="MAGDIPOL">      0.00000000      0.00000000      0.00000000</v>
   <v name="AVECCONST">      0.00000000      0.00000000      0.00000000</v>
  </separator>
  <separator name="response functions" >
   <i type="logical" name="LADDER"> F  </i>
   <i type="logical" name="LRPAFORCE"> F  </i>
   <i type="logical" name="LFXC"> F  </i>
   <i type="logical" name="LHARTREE"> T  </i>
   <i type="int" name="IBSE">     0</i>
   <v type="int" name="KPOINT">    -1     0     0     0</v>
   <i type="logical" name="LTCTE"> F  </i>
   <i type="logical" name="LTETE"> F  </i>
   <i type="logical" name="LTRIPLET"> F  </i>
   <i type="logical" name="LFXCEPS"> F  </i>
   <i type="logical" name="LFXHEG"> F  </i>
   <i type="int" name="NATURALO">     2</i>
   <i type="logical" name="L2ORDER"> F  </i>
   <i type="logical" name="LMP2LT"> F  </i>
   <i type="logical" name="LUSEW"> F  </i>
   <i name="ENCUTGW">     -2.00000000</i>
   <i name="ENCUTGWSOFT">     -2.00000000</i>
   <i name="ENCUTLF">     -1.00000000</i>
   <i type="int" name="LMAXMP2">    -1</i>
   <i name="SCISSOR">      0.00000000</i>
   <i type="int" name="NOMEGA">     0</i>
   <i type="int" name="NOMEGAR">     0</i>
   <i type="int" name="NBANDSGW">    -1</i>
   <i type="int" name="NBANDSO">    -1</i>
   <i type="int" name="NBANDSV">    -1</i>
   <i type="int" name="NELM">   300</i>
   <i type="int" name="NELMHF">     1</i>
   <i type="int" name="DIM">     3</i>
   <i type="int" name="ANTIRES">     0</i>
   <i name="OMEGAMAX">    -30.00000000</i>
   <i name="OMEGAMIN">    -30.00000000</i>
   <i name="OMEGATL">   -200.00000000</i>
   <i type="int" name="OMEGAGRID">   140</i>
   <i name="CSHIFT">     -0.10000000</i>
   <i type="logical" name="SELFENERGY"> F  </i>
   <i type="logical" name="LSPECTRAL"> F  </i>
   <i type="logical" name="LSPECTRALGW"> F  </i>
   <i type="logical" name="LSINGLES"> F  </i>
   <i type="logical" name="LFERMIGW"> F  </i>
   <i type="logical" name="ODDONLYGW"> F  </i>
   <i type="logical" name="EVENONLYGW"> F  </i>
   <i type="int" name="NKREDLFX">     1</i>
   <i type="int" name="NKREDLFY">     1</i>
   <i type="int" name="NKREDLFZ">     1</i>
   <i type="int" name="MAXMEM">  2800</i>
   <i type="int" name="TELESCOPE">     0</i>
   <i type="int" name="TAUPAR">     1</i>
   <i type="int" name="OMEGAPAR">    -1</i>
   <i name="LAMBDA">      1.00000000</i>
  </separator>
  <separator name="External order field" >
   <i name="OFIELD_KAPPA">      0.00000000</i>
   <v name="OFIELD_K">      0.00000000      0.00000000      0.00000000</v>
   <i name="OFIELD_Q6_NEAR">      0.00000000</i>
   <i name="OFIELD_Q6_FAR">      0.00000000</i>
   <i name="OFIELD_A">      0.00000000</i>
  </separator>
 </parameters>
 <atominfo>
  <atoms>      15 </atoms>
  <types>       3 </types>
  <array name="atoms" >
   <dimension dim="1">ion</dimension>
   <field type="string">element</field>
   <field type="int">atomtype</field>
   <set>
    <rc><c>Cu</c><c>   1</c></rc>
    <rc><c>Cu</c><c>   1</c></rc>
    <rc><c>Cu</c><c>   1</c></rc>
    <rc><c>Cu</c><c>   1</c></rc>
    <rc><c>Cu</c><c>   1</c></rc>
    <rc><c>Cu</c><c>   1</c></rc>
    <rc><c>Cu</c><c>   1</c></rc>
    <rc><c>Cu</c><c>   1</c></rc>
    <rc><c>Cu</c><c>   1</c></rc>
    <rc><c>Cu</c><c>   1</c></rc>
    <rc><c>Cu</c><c>   1</c></rc>
    <rc><c>Cu</c><c>   1</c></rc>
    <rc><c>Cu</c><c>   1</c></rc>
    <rc><c>C </c><c>   2</c></rc>
    <rc><c>O </c><c>   3</c></rc>
   </set>
  </array>
  <array name="atomtypes" >
   <dimension dim="1">type</dimension>
   <field type="int">atomspertype</field>
   <field type="string">element</field>
   <field>mass</field>
   <field>valence</field>
   <field type="string">pseudopotential</field>
   <set>
    <rc><c>  13</c><c>Cu</c><c>     63.54600000</c><c>     11.00000000</c><c>  PAW_PBE Cu 22Jun2005                  </c></rc>
    <rc><c>   1</c><c>C </c><c>     12.01100000</c><c>      4.00000000</c><c>  PAW_PBE C 08Apr2002                   </c></rc>
    <rc><c>   1</c><c>O </c><c>     16.00000000</c><c>      6.00000000</c><c>  PAW_PBE O 08Apr2002                   </c></rc>
   </set>
  </array>
 </atominfo>
 <structure name="initialpos" >
  <crystal>
   <varray name="basis" >
    <v>      15.00000000       0.00000000       0.00000000 </v>
    <v>       0.00000000      15.00000000       0.00000000 </v>
    <v>       0.00000000       0.00000000      15.00000000 </v>
   </varray>
   <i name="volume">   3375.00000000 </i>
   <varray name="rec_basis" >
    <v>       0.06666667       0.00000000       0.00000000 </v>
    <v>       0.00000000       0.06666667       0.00000000 </v>
    <v>       0.00000000       0.00000000       0.06666667 </v>
   </varray>
  </crystal>
  <varray name="positions" >
   <v>       0.29381000       0.42284667       0.55968867 </v>
   <v>       0.37772800       0.54566400       0.49561333 </v>
   <v>       0.40569867       0.29370267       0.57044800 </v>
   <v>       0.52863000       0.50032000       0.47094467 </v>
   <v>       0.55199933       0.35089200       0.52842533 </v>
   <v>       0.44437467       0.43706933       0.62063933 </v>
   <v>       0.40983200       0.39480267       0.44834400 </v>
   <v>       0.21922800       0.56844067       0.55705533 </v>
   <v>       0.33103867       0.53844200       0.65782867 </v>
   <v>       0.34451800       0.67478000       0.57614733 </v>
   <v>       0.49477067       0.67246000       0.46729600 </v>
   <v>       0.62945467       0.49694000       0.59554333 </v>
   <v>       0.48286733       0.59034067       0.61036867 </v>
   <v>       0.74769333       0.49674600       0.62806733 </v>
   <v>       0.82291333       0.49122800       0.64984933 </v>
  </varray>
 </structure>
 <calculation>
  <scstep>
   <time name="dav">    7.46    7.46</time>
   <time name="total">    8.66    8.67</time>
   <energy>
    <i name="alphaZ">     41.16232785 </i>
    <i name="ewald">  16232.99990971 </i>
    <i name="hartreedc"> -33258.24622219 </i>
    <i name="XCdc">    623.24465600 </i>
    <i name="pawpsdc">  16421.75059358 </i>
    <i name="pawaedc"> -17800.06104309 </i>
    <i name="eentropy">     -0.00669784 </i>
    <i name="bandstr">    194.65806338 </i>
    <i name="atom">  18662.21924712 </i>
    <i name="e_fr_energy">   1117.72083453 </i>
    <i name="e_wo_entrp">   1117.72753237 </i>
    <i name="e_0_energy">   1117.72306714 </i>
   </energy>
  </scstep>
  <scstep>
   <time name="dav">    7.36    7.36</time>
   <time name="total">    7.36    7.36</time>
   <energy>
    <i name="e_fr_energy">     87.59936981 </i>
    <i name="e_wo_entrp">     87.59280134 </i>
    <i name="e_0_energy">     87.59718032 </i>
   </energy>
  </scstep>
  <scstep>
   <time name="dav">   11.35   11.36</time>
   <time name="total">   11.35   11.36</time>
   <energy>
    <i name="e_fr_energy">    -33.93988342 </i>
    <i name="e_wo_entrp">    -33.94923552 </i>
    <i name="e_0_energy">    -33.94300078 </i>
   </energy>
  </scstep>
  <scstep>
   <time name="dav">   10.16   10.17</time>
   <time name="total">   10.16   10.17</time>
   <energy>
    <i name="e_fr_energy">    -55.36146533 </i>
    <i name="e_wo_entrp">    -55.36914731 </i>
    <i name="e_0_energy">    -55.36402599 </i>
   </energy>
  </scstep>
  <scstep>
   <time name="dav">   12.39   12.39</time>
   <time name="total">   13.07   13.07</time>
   <energy>
    <i name="e_fr_energy">    -56.88824311 </i>
    <i name="e_wo_entrp">    -56.89690464 </i>
    <i name="e_0_energy">    -56.89113029 </i>
   </energy>
  </scstep>
  <scstep>
   <time name="diag">    1.08    1.08</time>
   <time name="diis">    6.85    6.85</time>
   <time name="orth">    0.06    0.06</time>
   <time name="total">    9.83    9.84</time>
   <energy>
    <i name="e_fr_energy">    -56.66085184 </i>
    <i name="e_wo_entrp">    -56.66703984 </i>
    <i name="e_0_energy">    -56.66291450 </i>
   </energy>
  </scstep>
  <scstep>
   <time name="diag">    1.08    1.08</time>
   <time name="diis">    6.31    6.32</time>
   <time name="orth">    0.06    0.06</time>
   <time name="total">    9.30    9.31</time>
   <energy>
    <i name="e_fr_energy">    -48.93180226 </i>
    <i name="e_wo_entrp">    -48.93913029 </i>
    <i name="e_0_energy">    -48.93424494 </i>
   </energy>
  </scstep>
  <scstep>
   <time name="diag">    1.08    1.08</time>
   <time name="diis">    6.77    6.77</time>
   <time name="orth">    0.06    0.06</time>
   <time name="total">    9.77    9.78</time>
   <energy>
    <i name="e_fr_energy">    -48.69023857 </i>
    <i name="e_wo_entrp">    -48.69775730 </i>
    <i name="e_0_energy">    -48.69274481 </i>
   </energy>
  </scstep>
  <scstep>
   <time name="diag">    1.08    1.08</time>
   <time name="diis">    6.66    6.66</time>
   <time name="orth">    0.06    0.06</time>
   <time name="total">    9.66    9.67</time>
   <energy>
    <i name="e_fr_energy">    -48.61501476 </i>
    <i name="e_wo_entrp">    -48.62202525 </i>
    <i name="e_0_energy">    -48.61735159 </i>
   </energy>
  </scstep>
  <scstep>
   <time name="diag">    1.08    1.08</time>
   <time name="diis">    7.39    7.39</time>
   <time name="orth">    0.06    0.06</time>
   <time name="total">   10.40   10.40</time>
   <energy>
    <i name="e_fr_energy">    -48.54733726 </i>
    <i name="e_wo_entrp">    -48.55421248 </i>
    <i name="e_0_energy">    -48.54962900 </i>
   </energy>
  </scstep>
  <scstep>
   <time name="diag">    1.08    1.08</time>
   <time name="diis">    7.18    7.19</time>
   <time name="orth">    0.06    0.06</time>
   <time name="total">   10.18   10.19</time>
   <energy>
    <i name="e_fr_energy">    -48.53140847 </i>
    <i name="e_wo_entrp">    -48.53832291 </i>
    <i name="e_0_energy">    -48.53371329 </i>
   </energy>
  </scstep>
  <scstep>
   <time name="diag">    1.08    1.08</time>
   <time name="diis">    7.24    7.24</time>
   <time name="orth">    0.06    0.06</time>
   <time name="total">   10.24   10.24</time>
   <energy>
    <i name="e_fr_energy">    -48.52954833 </i>
    <i name="e_wo_entrp">    -48.53633870 </i>
    <i name="e_0_energy">    -48.53181179 </i>
   </energy>
  </scstep>
  <scstep>
   <time name="diag">    1.08    1.08</time>
   <time name="diis">    6.75    6.76</time>
   <time name="orth">    0.06    0.06</time>
   <time name="total">    9.75    9.76</time>
   <energy>
    <i name="e_fr_energy">    -48.52830530 </i>
    <i name="e_wo_entrp">    -48.53511409 </i>
    <i name="e_0_energy">    -48.53057490 </i>
   </energy>
  </scstep>
  <scstep>
   <time name="diag">    1.08    1.08</time>
   <time name="diis">    6.63    6.63</time>
   <time name="orth">    0.06    0.06</time>
   <time name="total">    9.64    9.64</time>
   <energy>
    <i name="e_fr_energy">    -48.52940453 </i>
    <i name="e_wo_entrp">    -48.53617157 </i>
    <i name="e_0_energy">    -48.53166021 </i>
   </energy>
  </scstep>
  <scstep>
   <time name="diag">    1.08    1.08</time>
   <time name="diis">    6.73    6.74</time>
   <time name="orth">    0.06    0.06</time>
   <time name="total">    9.74    9.74</time>
   <energy>
    <i name="e_fr_energy">    -48.53076036 </i>
    <i name="e_wo_entrp">    -48.53751019 </i>
    <i name="e_0_energy">    -48.53301030 </i>
   </energy>
  </scstep>
  <scstep>
   <time name="diag">    1.07    1.08</time>
   <time name="diis">    6.48    6.49</time>
   <time name="orth">    0.06    0.06</time>
   <time name="total">    9.48    9.49</time>
   <energy>
    <i name="e_fr_energy">    -48.53225112 </i>
    <i name="e_wo_entrp">    -48.53901487 </i>
    <i name="e_0_energy">    -48.53450570 </i>
   </energy>
  </scstep>
  <scstep>
   <time name="diag">    1.08    1.08</time>
   <time name="diis">    6.69    6.70</time>
   <time name="orth">    0.06    0.06</time>
   <time name="total">    9.69    9.70</time>
   <energy>
    <i name="e_fr_energy">    -48.53395527 </i>
    <i name="e_wo_entrp">    -48.54072491 </i>
    <i name="e_0_energy">    -48.53621181 </i>
   </energy>
  </scstep>
  <scstep>
   <time name="diag">    1.08    1.08</time>
   <time name="diis">    7.06    7.06</time>
   <time name="orth">    0.06    0.06</time>
   <time name="total">   10.06   10.07</time>
   <energy>
    <i name="e_fr_energy">    -48.53475758 </i>
    <i name="e_wo_entrp">    -48.54152404 </i>
    <i name="e_0_energy">    -48.53701307 </i>
   </energy>
  </scstep>
  <scstep>
   <time name="diag">    1.08    1.08</time>
   <time name="diis">    6.74    6.75</time>
   <time name="orth">    0.06    0.06</time>
   <time name="total">    9.74    9.75</time>
   <energy>
    <i name="e_fr_energy">    -48.53553891 </i>
    <i name="e_wo_entrp">    -48.54230278 </i>
    <i name="e_0_energy">    -48.53779353 </i>
   </energy>
  </scstep>
  <scstep>
   <time name="diag">    1.07    1.08</time>
   <time name="diis">    6.77    6.79</time>
   <time name="orth">    0.06    0.06</time>
   <time name="total">    9.77    9.80</time>
   <energy>
    <i name="e_fr_energy">    -48.53607931 </i>
    <i name="e_wo_entrp">    -48.54284188 </i>
    <i name="e_0_energy">    -48.53833350 </i>
   </energy>
  </scstep>
  <scstep>
   <time name="diag">    1.08    1.08</time>
   <time name="diis">    6.71    6.71</time>
   <time name="orth">    0.06    0.06</time>
   <time name="total">    9.72    9.73</time>
   <energy>
    <i name="e_fr_energy">    -48.53649749 </i>
    <i name="e_wo_entrp">    -48.54326166 </i>
    <i name="e_0_energy">    -48.53875221 </i>
   </energy>
  </scstep>
  <scstep>
   <time name="diag">    1.08    1.08</time>
   <time name="diis">    6.72    6.72</time>
   <time name="orth">    0.06    0.06</time>
   <time name="total">    9.73    9.73</time>
   <energy>
    <i name="e_fr_energy">    -48.53672454 </i>
    <i name="e_wo_entrp">    -48.54349049 </i>
    <i name="e_0_energy">    -48.53897986 </i>
   </energy>
  </scstep>
  <scstep>
   <time name="diag">    1.08    1.08</time>
   <time name="diis">    6.91    6.91</time>
   <time name="orth">    0.06    0.06</time>
   <time name="total">    9.92    9.93</time>
   <energy>
    <i name="e_fr_energy">    -48.53682176 </i>
    <i name="e_wo_entrp">    -48.54358684 </i>
    <i name="e_0_energy">    -48.53907679 </i>
   </energy>
  </scstep>
  <scstep>
   <time name="diag">    1.08    1.08</time>
   <time name="diis">    6.63    6.63</time>
   <time name="orth">    0.06    0.06</time>
   <time name="total">    9.64    9.65</time>
   <energy>
    <i name="e_fr_energy">    -48.53692170 </i>
    <i name="e_wo_entrp">    -48.54368711 </i>
    <i name="e_0_energy">    -48.53917684 </i>
   </energy>
  </scstep>
  <scstep>
   <time name="diag">    1.08    1.08</time>
   <time name="diis">    6.24    6.25</time>
   <time name="orth">    0.06    0.06</time>
   <time name="total">    9.26    9.27</time>
   <energy>
    <i name="e_fr_energy">    -48.53698369 </i>
    <i name="e_wo_entrp">    -48.54374926 </i>
    <i name="e_0_energy">    -48.53923888 </i>
   </energy>
  </scstep>
  <scstep>
   <time name="diag">    1.08    1.08</time>
   <time name="diis">    5.23    5.23</time>
   <time name="orth">    0.06    0.06</time>
   <time name="total">    8.25    8.26</time>
   <energy>
    <i name="e_fr_energy">    -48.53700505 </i>
    <i name="e_wo_entrp">    -48.54377054 </i>
    <i name="e_0_energy">    -48.53926021 </i>
   </energy>
  </scstep>
  <scstep>
   <time name="diag">    1.07    1.07</time>
   <time name="diis">    4.58    4.59</time>
   <time name="orth">    0.06    0.06</time>
   <time name="total">    7.60    7.61</time>
   <energy>
    <i name="e_fr_energy">    -48.53701443 </i>
    <i name="e_wo_entrp">    -48.54377976 </i>
    <i name="e_0_energy">    -48.53926954 </i>
   </energy>
  </scstep>
  <scstep>
   <time name="diag">    1.08    1.08</time>
   <time name="diis">    4.43    4.44</time>
   <time name="orth">    0.06    0.06</time>
   <time name="total">    7.46    7.47</time>
   <energy>
    <i name="e_fr_energy">    -48.53701880 </i>
    <i name="e_wo_entrp">    -48.54378420 </i>
    <i name="e_0_energy">    -48.53927393 </i>
   </energy>
  </scstep>
  <scstep>
   <time name="diag">    1.08    1.08</time>
   <time name="diis">    4.15    4.15</time>
   <time name="orth">    0.06    0.06</time>
   <time name="total">    7.18    7.18</time>
   <energy>
    <i name="e_fr_energy">    -48.53702151 </i>
    <i name="e_wo_entrp">    -48.54378696 </i>
    <i name="e_0_energy">    -48.53927666 </i>
   </energy>
  </scstep>
  <scstep>
   <time name="diag">    1.07    1.07</time>
   <time name="diis">    4.64    4.64</time>
   <time name="orth">    0.06    0.06</time>
   <time name="total">    7.67    7.68</time>
   <energy>
    <i name="e_fr_energy">    -48.53702281 </i>
    <i name="e_wo_entrp">    -48.54378831 </i>
    <i name="e_0_energy">    -48.53927798 </i>
   </energy>
  </scstep>
  <scstep>
   <time name="diag">    1.07    1.08</time>
   <time name="diis">    4.34    4.34</time>
   <time name="orth">    0.06    0.06</time>
   <time name="total">    7.39    7.39</time>
   <energy>
    <i name="e_fr_energy">    -48.53702354 </i>
    <i name="e_wo_entrp">    -48.54378906 </i>
    <i name="e_0_energy">    -48.53927871 </i>
   </energy>
  </scstep>
  <scstep>
   <time name="diag">    1.08    1.08</time>
   <time name="diis">    4.26    4.27</time>
   <time name="orth">    0.06    0.06</time>
   <time name="total">    7.32    7.32</time>
   <energy>
    <i name="e_fr_energy">    -48.53702410 </i>
    <i name="e_wo_entrp">    -48.54378959 </i>
    <i name="e_0_energy">    -48.53927926 </i>
   </energy>
  </scstep>
  <scstep>
   <time name="diag">    1.08    1.08</time>
   <time name="diis">    4.07    4.08</time>
   <time name="orth">    0.06    0.06</time>
   <time name="total">    7.13    7.14</time>
   <energy>
    <i name="e_fr_energy">    -48.53702466 </i>
    <i name="e_wo_entrp">    -48.54379015 </i>
    <i name="e_0_energy">    -48.53927982 </i>
   </energy>
  </scstep>
  <scstep>
   <time name="diag">    1.07    1.08</time>
   <time name="diis">    4.22    4.22</time>
   <time name="orth">    0.06    0.06</time>
   <time name="total">    7.28    7.28</time>
   <energy>
    <i name="e_fr_energy">    -48.53702502 </i>
    <i name="e_wo_entrp">    -48.54379050 </i>
    <i name="e_0_energy">    -48.53928018 </i>
   </energy>
  </scstep>
  <scstep>
   <time name="diag">    1.07    1.07</time>
   <time name="diis">    3.93    3.93</time>
   <time name="orth">    0.06    0.06</time>
   <time name="total">    6.99    7.00</time>
   <energy>
    <i name="e_fr_energy">    -48.53702522 </i>
    <i name="e_wo_entrp">    -48.54379070 </i>
    <i name="e_0_energy">    -48.53928038 </i>
   </energy>
  </scstep>
  <scstep>
   <time name="diag">    1.08    1.08</time>
   <time name="diis">    3.40    3.40</time>
   <time name="orth">    0.06    0.06</time>
   <time name="total">    6.47    6.48</time>
   <energy>
    <i name="e_fr_energy">    -48.53702540 </i>
    <i name="e_wo_entrp">    -48.54379088 </i>
    <i name="e_0_energy">    -48.53928056 </i>
   </energy>
  </scstep>
  <scstep>
   <time name="diag">    1.07    1.07</time>
   <time name="diis">    3.35    3.35</time>
   <time name="orth">    0.06    0.06</time>
   <time name="total">    5.67    5.68</time>
   <energy>
    <i name="alphaZ">     41.16232785 </i>
    <i name="ewald">  16232.99990971 </i>
    <i name="hartreedc"> -33214.59941817 </i>
    <i name="XCdc">    615.23293858 </i>
    <i name="pawpsdc">  17607.03859194 </i>
    <i name="pawaedc"> -19005.54823016 </i>
    <i name="eentropy">      0.00676548 </i>
    <i name="bandstr">   -987.04915783 </i>
    <i name="atom">  18662.21924712 </i>
    <i name="e_fr_energy">    -48.53702549 </i>
    <i name="e_wo_entrp">    -48.54379097 </i>
    <i name="e_0_energy">    -48.53928065 </i>
   </energy>
  </scstep>
  <structure>
   <crystal>
    <varray name="basis" >
     <v>      15.00000000       0.00000000       0.00000000 </v>
     <v>       0.00000000      15.00000000       0.00000000 </v>
     <v>       0.00000000       0.00000000      15.00000000 </v>
    </varray>
    <i name="volume">   3375.00000000 </i>
    <varray name="rec_basis" >
     <v>       0.06666667       0.00000000       0.00000000 </v>
     <v>       0.00000000       0.06666667       0.00000000 </v>
     <v>       0.00000000       0.00000000       0.06666667 </v>
    </varray>
   </crystal>
   <varray name="positions" >
    <v>       0.29381000       0.42284667       0.55968867 </v>
    <v>       0.37772800       0.54566400       0.49561333 </v>
    <v>       0.40569867       0.29370267       0.57044800 </v>
    <v>       0.52863000       0.50032000       0.47094467 </v>
    <v>       0.55199933       0.35089200       0.52842533 </v>
    <v>       0.44437467       0.43706933       0.62063933 </v>
    <v>       0.40983200       0.39480267       0.44834400 </v>
    <v>       0.21922800       0.56844067       0.55705533 </v>
    <v>       0.33103867       0.53844200       0.65782867 </v>
    <v>       0.34451800       0.67478000       0.57614733 </v>
    <v>       0.49477067       0.67246000       0.46729600 </v>
    <v>       0.62945467       0.49694000       0.59554333 </v>
    <v>       0.48286733       0.59034067       0.61036867 </v>
    <v>       0.74769333       0.49674600       0.62806733 </v>
    <v>       0.82291333       0.49122800       0.64984933 </v>
   </varray>
  </structure>
  <varray name="forces" >
   <v>      -0.27510466      -0.66308834      -0.20414587 </v>
   <v>      -0.31660418       0.26658913      -0.38829040 </v>
   <v>      -0.21632918      -0.30673617       0.04251791 </v>
   <v>       0.14119008       0.43801336       0.28527195 </v>
   <v>      -0.08887302       0.31706590       0.09313884 </v>
   <v>       0.90839957      -0.30224680      -0.43934814 </v>
   <v>       0.17818736      -0.09020220       0.22322195 </v>
   <v>      -0.07791617       0.09462543      -0.29508823 </v>
   <v>       0.29771068       0.42664713       0.56231919 </v>
   <v>       0.22187845       0.52892134      -0.15551316 </v>
   <v>      -0.49562708      -0.70345166       0.66208073 </v>
   <v>      -0.24717953      -0.31790064      -0.22701722 </v>
   <v>       0.34631084       0.24337782      -0.28913952 </v>
   <v>       1.75347574      -0.07691255       0.92257427 </v>
   <v>      -2.12951892       0.14529827      -0.79258229 </v>
  </varray>
  <varray name="stress" >
   <v>      -2.20008055      -0.05015701       0.42182340 </v>
   <v>      -0.05015701       0.81937070       0.33218324 </v>
   <v>       0.42182341       0.33218324      -0.71848293 </v>
  </varray>
  <energy>
   <i name="e_fr_energy">    -48.53702549 </i>
   <i name="e_wo_entrp">    -48.53928065 </i>
   <i name="e_0_energy">      0.00676548 </i>
  </energy>
  <time name="totalsc">  343.29  343.51</time>
  <eigenvalues>
   <array>
    <dimension dim="1">band</dimension>
    <dimension dim="2">kpoint</dimension>
    <dimension dim="3">spin</dimension>
    <field>eigene</field>
    <field>occ</field>
    <set>
     <set comment="spin 1">
      <set comment="kpoint 1">
       <r>  -28.2681    1.0000 </r>
       <r>  -13.9682    1.0000 </r>
       <r>  -11.2168    1.0000 </r>
       <r>  -11.0639    1.0000 </r>
       <r>  -11.0320    1.0000 </r>
       <r>  -10.1711    1.0000 </r>
       <r>   -8.5695    1.0000 </r>
       <r>   -8.1773    1.0000 </r>
       <r>   -7.7325    1.0000 </r>
       <r>   -7.4898    1.0000 </r>
       <r>   -7.4418    1.0000 </r>
       <r>   -7.3383    1.0000 </r>
       <r>   -7.1902    1.0000 </r>
       <r>   -7.1245    1.0000 </r>
       <r>   -7.0854    1.0000 </r>
       <r>   -6.9770    1.0000 </r>
       <r>   -6.8855    1.0000 </r>
       <r>   -6.7765    1.0000 </r>
       <r>   -6.7149    1.0000 </r>
       <r>   -6.6889    1.0000 </r>
       <r>   -6.5991    1.0000 </r>
       <r>   -6.5868    1.0000 </r>
       <r>   -6.5575    1.0000 </r>
       <r>   -6.4610    1.0000 </r>
       <r>   -6.4129    1.0000 </r>
       <r>   -6.3952    1.0000 </r>
       <r>   -6.3720    1.0000 </r>
       <r>   -6.3140    1.0000 </r>
       <r>   -6.2421    1.0000 </r>
       <r>   -6.2190    1.0000 </r>
       <r>   -6.1501    1.0000 </r>
       <r>   -6.0925    1.0000 </r>
       <r>   -6.0689    1.0000 </r>
       <r>   -5.9810    1.0000 </r>
       <r>   -5.9200    1.0000 </r>
       <r>   -5.8011    1.0000 </r>
       <r>   -5.7460    1.0000 </r>
       <r>   -5.6793    1.0000 </r>
       <r>   -5.6507    1.0000 </r>
       <r>   -5.6226    1.0000 </r>
       <r>   -5.5263    1.0000 </r>
       <r>   -5.5091    1.0000 </r>
       <r>   -5.4834    1.0000 </r>
       <r>   -5.4708    1.0000 </r>
       <r>   -5.4468    1.0000 </r>
       <r>   -5.4070    1.0000 </r>
       <r>   -5.3460    1.0000 </r>
       <r>   -5.3356    1.0000 </r>
       <r>   -5.3150    1.0000 </r>
       <r>   -5.3016    1.0000 </r>
       <r>   -5.2863    1.0000 </r>
       <r>   -5.2136    1.0000 </r>
       <r>   -5.1986    1.0000 </r>
       <r>   -5.1896    1.0000 </r>
       <r>   -5.1660    1.0000 </r>
       <r>   -5.1487    1.0000 </r>
       <r>   -5.1410    1.0000 </r>
       <r>   -5.1195    1.0000 </r>
       <r>   -5.0903    1.0000 </r>
       <r>   -5.0661    1.0000 </r>
       <r>   -5.0369    1.0000 </r>
       <r>   -5.0185    1.0000 </r>
       <r>   -4.9806    1.0000 </r>
       <r>   -4.9472    1.0000 </r>
       <r>   -4.9284    1.0000 </r>
       <r>   -4.9204    1.0000 </r>
       <r>   -4.8952    1.0000 </r>
       <r>   -4.8728    1.0000 </r>
       <r>   -4.8520    1.0000 </r>
       <r>   -4.8100    1.0000 </r>
       <r>   -4.7879    1.0000 </r>
       <r>   -4.7396    1.0000 </r>
       <r>   -4.7264    1.0000 </r>
       <r>   -4.5365    1.0000 </r>
       <r>   -4.1789    1.0000 </r>
       <r>   -4.0509    1.0000 </r>
       <r>   -3.5803    1.0000 </r>
       <r>   -3.0520   -0.0000 </r>
       <r>   -2.9780   -0.0000 </r>
       <r>   -2.5765   -0.0000 </r>
       <r>   -2.4805   -0.0000 </r>
       <r>   -1.9830   -0.0000 </r>
       <r>   -1.8247   -0.0000 </r>
       <r>   -1.7187   -0.0000 </r>
       <r>   -1.4559   -0.0000 </r>
       <r>   -1.2233   -0.0000 </r>
       <r>   -0.9313   -0.0000 </r>
       <r>   -0.6531    0.0000 </r>
       <r>   -0.4927    0.0000 </r>
       <r>   -0.2282    0.0000 </r>
       <r>   -0.1519    0.0000 </r>
       <r>    0.1551    0.0000 </r>
      </set>
     </set>
     <set comment="spin 2">
      <set comment="kpoint 1">
       <r>  -28.2587    1.0000 </r>
       <r>  -13.9470    1.0000 </r>
       <r>  -11.1889    1.0000 </r>
       <r>  -11.0440    1.0000 </r>
       <r>  -11.0258    1.0000 </r>
       <r>  -10.1290    1.0000 </r>
       <r>   -8.5431    1.0000 </r>
       <r>   -8.1283    1.0000 </r>
       <r>   -7.6895    1.0000 </r>
       <r>   -7.4666    1.0000 </r>
       <r>   -7.4090    1.0000 </r>
       <r>   -7.2851    1.0000 </r>
       <r>   -7.1629    1.0000 </r>
       <r>   -7.0953    1.0000 </r>
       <r>   -7.0526    1.0000 </r>
       <r>   -6.9526    1.0000 </r>
       <r>   -6.8649    1.0000 </r>
       <r>   -6.7407    1.0000 </r>
       <r>   -6.6830    1.0000 </r>
       <r>   -6.6663    1.0000 </r>
       <r>   -6.5770    1.0000 </r>
       <r>   -6.5582    1.0000 </r>
       <r>   -6.5359    1.0000 </r>
       <r>   -6.4346    1.0000 </r>
       <r>   -6.3798    1.0000 </r>
       <r>   -6.3690    1.0000 </r>
       <r>   -6.3432    1.0000 </r>
       <r>   -6.2939    1.0000 </r>
       <r>   -6.2158    1.0000 </r>
       <r>   -6.1966    1.0000 </r>
       <r>   -6.1231    1.0000 </r>
       <r>   -6.0747    1.0000 </r>
       <r>   -6.0404    1.0000 </r>
       <r>   -5.9581    1.0000 </r>
       <r>   -5.8982    1.0000 </r>
       <r>   -5.7748    1.0000 </r>
       <r>   -5.7202    1.0000 </r>
       <r>   -5.6541    1.0000 </r>
       <r>   -5.6173    1.0000 </r>
       <r>   -5.5967    1.0000 </r>
       <r>   -5.5019    1.0000 </r>
       <r>   -5.4812    1.0000 </r>
       <r>   -5.4513    1.0000 </r>
       <r>   -5.4425    1.0000 </r>
       <r>   -5.4208    1.0000 </r>
       <r>   -5.3793    1.0000 </r>
       <r>   -5.3133    1.0000 </r>
       <r>   -5.3079    1.0000 </r>
       <r>   -5.2854    1.0000 </r>
       <r>   -5.2728    1.0000 </r>
       <r>   -5.2567    1.0000 </r>
       <r>   -5.1909    1.0000 </r>
       <r>   -5.1702    1.0000 </r>
       <r>   -5.1641    1.0000 </r>
       <r>   -5.1420    1.0000 </r>
       <r>   -5.1172    1.0000 </r>
       <r>   -5.1097    1.0000 </r>
       <r>   -5.0877    1.0000 </r>
       <r>   -5.0643    1.0000 </r>
       <r>   -5.0385    1.0000 </r>
       <r>   -5.0128    1.0000 </r>
       <r>   -4.9885    1.0000 </r>
       <r>   -4.9624    1.0000 </r>
       <r>   -4.9134    1.0000 </r>
       <r>   -4.8967    1.0000 </r>
       <r>   -4.8796    1.0000 </r>
       <r>   -4.8673    1.0000 </r>
       <r>   -4.8435    1.0000 </r>
       <r>   -4.8189    1.0000 </r>
       <r>   -4.7781    1.0000 </r>
       <r>   -4.7482    1.0000 </r>
       <r>   -4.7138    1.0000 </r>
       <r>   -4.6995    1.0000 </r>
       <r>   -4.4914    1.0000 </r>
       <r>   -4.1292    1.0065 </r>
       <r>   -4.0044    0.9935 </r>
       <r>   -3.3720   -0.0000 </r>
       <r>   -3.0046   -0.0000 </r>
       <r>   -2.9321   -0.0000 </r>
       <r>   -2.5038   -0.0000 </r>
       <r>   -2.4242   -0.0000 </r>
       <r>   -1.9426   -0.0000 </r>
       <r>   -1.7587   -0.0000 </r>
       <r>   -1.6563   -0.0000 </r>
       <r>   -1.3582   -0.0000 </r>
       <r>   -1.0486    0.0000 </r>
       <r>   -0.8777    0.0000 </r>
       <r>   -0.5750    0.0000 </r>
       <r>   -0.3818    0.0000 </r>
       <r>   -0.1653    0.0000 </r>
       <r>   -0.1008    0.0000 </r>
       <r>    0.2058    0.0000 </r>
      </set>
     </set>
    </set>
   </array>
  </eigenvalues>
  <separator name="orbital magnetization" >
   <v name="MAGDIPOLOUT">      0.00000000      0.00000000      0.00000000</v>
  </separator>
  <dos>
   <i name="efermi">     -3.92297265 </i>
   <total>
    <array>
     <dimension dim="1">gridpoints</dimension>
     <dimension dim="2">spin</dimension>
     <field>energy</field>
     <field>total</field>
     <field>integrated</field>
     <set>
      <set comment="spin 1">
       <r>   -29.6918     0.0000     0.0000 </r>
       <r>   -29.5874     0.0000     0.0000 </r>
       <r>   -29.4830     0.0000     0.0000 </r>
       <r>   -29.3786     0.0000     0.0000 </r>
       <r>   -29.2741     0.0000     0.0000 </r>
       <r>   -29.1697    -0.0000    -0.0000 </r>
       <r>   -29.0653    -0.0000    -0.0000 </r>
       <r>   -28.9609    -0.0000    -0.0000 </r>
       <r>   -28.8565    -0.0000    -0.0000 </r>
       <r>   -28.7521    -0.0000    -0.0000 </r>
       <r>   -28.6477    -0.0000    -0.0000 </r>
       <r>   -28.5433    -0.0067    -0.0007 </r>
       <r>   -28.4389    -0.3416    -0.0364 </r>
       <r>   -28.3345     1.3670     0.1064 </r>
       <r>   -28.2301    14.2500     1.5941 </r>
       <r>   -28.1257     4.4791     2.0617 </r>
       <r>   -28.0213    -0.5658     2.0027 </r>
       <r>   -27.9169    -0.0255     2.0000 </r>
       <r>   -27.8125    -0.0001     2.0000 </r>
       <r>   -27.7081    -0.0000     2.0000 </r>
       <r>   -27.6037    -0.0000     2.0000 </r>
       <r>   -27.4993     0.0000     2.0000 </r>
       <r>   -27.3949     0.0000     2.0000 </r>
       <r>   -27.2905     0.0000     2.0000 </r>
       <r>   -27.1861     0.0000     2.0000 </r>
       <r>   -27.0817     0.0000     2.0000 </r>
       <r>   -26.9773     0.0000     2.0000 </r>
       <r>   -26.8729     0.0000     2.0000 </r>
       <r>   -26.7684     0.0000     2.0000 </r>
       <r>   -26.6640     0.0000     2.0000 </r>
       <r>   -26.5596     0.0000     2.0000 </r>
       <r>   -26.4552     0.0000     2.0000 </r>
       <r>   -26.3508     0.0000     2.0000 </r>
       <r>   -26.2464     0.0000     2.0000 </r>
       <r>   -26.1420     0.0000     2.0000 </r>
       <r>   -26.0376     0.0000     2.0000 </r>
       <r>   -25.9332     0.0000     2.0000 </r>
       <r>   -25.8288     0.0000     2.0000 </r>
       <r>   -25.7244     0.0000     2.0000 </r>
       <r>   -25.6200     0.0000     2.0000 </r>
       <r>   -25.5156     0.0000     2.0000 </r>
       <r>   -25.4112     0.0000     2.0000 </r>
       <r>   -25.3068     0.0000     2.0000 </r>
       <r>   -25.2024     0.0000     2.0000 </r>
       <r>   -25.0980     0.0000     2.0000 </r>
       <r>   -24.9936     0.0000     2.0000 </r>
       <r>   -24.8892     0.0000     2.0000 </r>
       <r>   -24.7848     0.0000     2.0000 </r>
       <r>   -24.6804     0.0000     2.0000 </r>
       <r>   -24.5760     0.0000     2.0000 </r>
       <r>   -24.4716     0.0000     2.0000 </r>
       <r>   -24.3672     0.0000     2.0000 </r>
       <r>   -24.2627     0.0000     2.0000 </r>
       <r>   -24.1583     0.0000     2.0000 </r>
       <r>   -24.0539     0.0000     2.0000 </r>
       <r>   -23.9495     0.0000     2.0000 </r>
       <r>   -23.8451     0.0000     2.0000 </r>
       <r>   -23.7407     0.0000     2.0000 </r>
       <r>   -23.6363     0.0000     2.0000 </r>
       <r>   -23.5319     0.0000     2.0000 </r>
       <r>   -23.4275     0.0000     2.0000 </r>
       <r>   -23.3231     0.0000     2.0000 </r>
       <r>   -23.2187     0.0000     2.0000 </r>
       <r>   -23.1143     0.0000     2.0000 </r>
       <r>   -23.0099     0.0000     2.0000 </r>
       <r>   -22.9055     0.0000     2.0000 </r>
       <r>   -22.8011     0.0000     2.0000 </r>
       <r>   -22.6967     0.0000     2.0000 </r>
       <r>   -22.5923     0.0000     2.0000 </r>
       <r>   -22.4879     0.0000     2.0000 </r>
       <r>   -22.3835     0.0000     2.0000 </r>
       <r>   -22.2791     0.0000     2.0000 </r>
       <r>   -22.1747     0.0000     2.0000 </r>
       <r>   -22.0703     0.0000     2.0000 </r>
       <r>   -21.9659     0.0000     2.0000 </r>
       <r>   -21.8615     0.0000     2.0000 </r>
       <r>   -21.7570     0.0000     2.0000 </r>
       <r>   -21.6526     0.0000     2.0000 </r>
       <r>   -21.5482     0.0000     2.0000 </r>
       <r>   -21.4438     0.0000     2.0000 </r>
       <r>   -21.3394     0.0000     2.0000 </r>
       <r>   -21.2350     0.0000     2.0000 </r>
       <r>   -21.1306     0.0000     2.0000 </r>
       <r>   -21.0262     0.0000     2.0000 </r>
       <r>   -20.9218     0.0000     2.0000 </r>
       <r>   -20.8174     0.0000     2.0000 </r>
       <r>   -20.7130     0.0000     2.0000 </r>
       <r>   -20.6086     0.0000     2.0000 </r>
       <r>   -20.5042     0.0000     2.0000 </r>
       <r>   -20.3998     0.0000     2.0000 </r>
       <r>   -20.2954     0.0000     2.0000 </r>
       <r>   -20.1910     0.0000     2.0000 </r>
       <r>   -20.0866     0.0000     2.0000 </r>
       <r>   -19.9822     0.0000     2.0000 </r>
       <r>   -19.8778     0.0000     2.0000 </r>
       <r>   -19.7734     0.0000     2.0000 </r>
       <r>   -19.6690     0.0000     2.0000 </r>
       <r>   -19.5646     0.0000     2.0000 </r>
       <r>   -19.4602     0.0000     2.0000 </r>
       <r>   -19.3557     0.0000     2.0000 </r>
       <r>   -19.2513     0.0000     2.0000 </r>
       <r>   -19.1469     0.0000     2.0000 </r>
       <r>   -19.0425     0.0000     2.0000 </r>
       <r>   -18.9381     0.0000     2.0000 </r>
       <r>   -18.8337     0.0000     2.0000 </r>
       <r>   -18.7293     0.0000     2.0000 </r>
       <r>   -18.6249     0.0000     2.0000 </r>
       <r>   -18.5205     0.0000     2.0000 </r>
       <r>   -18.4161     0.0000     2.0000 </r>
       <r>   -18.3117     0.0000     2.0000 </r>
       <r>   -18.2073     0.0000     2.0000 </r>
       <r>   -18.1029     0.0000     2.0000 </r>
       <r>   -17.9985     0.0000     2.0000 </r>
       <r>   -17.8941     0.0000     2.0000 </r>
       <r>   -17.7897     0.0000     2.0000 </r>
       <r>   -17.6853     0.0000     2.0000 </r>
       <r>   -17.5809     0.0000     2.0000 </r>
       <r>   -17.4765     0.0000     2.0000 </r>
       <r>   -17.3721     0.0000     2.0000 </r>
       <r>   -17.2677     0.0000     2.0000 </r>
       <r>   -17.1633     0.0000     2.0000 </r>
       <r>   -17.0589     0.0000     2.0000 </r>
       <r>   -16.9545     0.0000     2.0000 </r>
       <r>   -16.8500     0.0000     2.0000 </r>
       <r>   -16.7456     0.0000     2.0000 </r>
       <r>   -16.6412     0.0000     2.0000 </r>
       <r>   -16.5368     0.0000     2.0000 </r>
       <r>   -16.4324     0.0000     2.0000 </r>
       <r>   -16.3280     0.0000     2.0000 </r>
       <r>   -16.2236     0.0000     2.0000 </r>
       <r>   -16.1192     0.0000     2.0000 </r>
       <r>   -16.0148     0.0000     2.0000 </r>
       <r>   -15.9104     0.0000     2.0000 </r>
       <r>   -15.8060     0.0000     2.0000 </r>
       <r>   -15.7016     0.0000     2.0000 </r>
       <r>   -15.5972     0.0000     2.0000 </r>
       <r>   -15.4928     0.0000     2.0000 </r>
       <r>   -15.3884     0.0000     2.0000 </r>
       <r>   -15.2840     0.0000     2.0000 </r>
       <r>   -15.1796     0.0000     2.0000 </r>
       <r>   -15.0752     0.0000     2.0000 </r>
       <r>   -14.9708     0.0000     2.0000 </r>
       <r>   -14.8664    -0.0000     2.0000 </r>
       <r>   -14.7620    -0.0000     2.0000 </r>
       <r>   -14.6576    -0.0000     2.0000 </r>
       <r>   -14.5532    -0.0000     2.0000 </r>
       <r>   -14.4488    -0.0000     2.0000 </r>
       <r>   -14.3443    -0.0000     2.0000 </r>
       <r>   -14.2399    -0.0079     1.9992 </r>
       <r>   -14.1355    -0.3696     1.9606 </r>
       <r>   -14.0311     1.6641     2.1343 </r>
       <r>   -13.9267    14.4136     3.6392 </r>
       <r>   -13.8223     4.0205     4.0589 </r>
       <r>   -13.7179    -0.5423     4.0023 </r>
       <r>   -13.6135    -0.0219     4.0000 </r>
       <r>   -13.5091    -0.0001     4.0000 </r>
       <r>   -13.4047    -0.0000     4.0000 </r>
       <r>   -13.3003    -0.0000     4.0000 </r>
       <r>   -13.1959     0.0000     4.0000 </r>
       <r>   -13.0915     0.0000     4.0000 </r>
       <r>   -12.9871     0.0000     4.0000 </r>
       <r>   -12.8827     0.0000     4.0000 </r>
       <r>   -12.7783     0.0000     4.0000 </r>
       <r>   -12.6739     0.0000     4.0000 </r>
       <r>   -12.5695     0.0000     4.0000 </r>
       <r>   -12.4651     0.0000     4.0000 </r>
       <r>   -12.3607     0.0000     4.0000 </r>
       <r>   -12.2563     0.0000     4.0000 </r>
       <r>   -12.1519     0.0000     4.0000 </r>
       <r>   -12.0475    -0.0000     4.0000 </r>
       <r>   -11.9431    -0.0000     4.0000 </r>
       <r>   -11.8386    -0.0000     4.0000 </r>
       <r>   -11.7342    -0.0000     4.0000 </r>
       <r>   -11.6298    -0.0000     4.0000 </r>
       <r>   -11.5254    -0.0011     3.9999 </r>
       <r>   -11.4210    -0.1321     3.9861 </r>
       <r>   -11.3166    -0.3692     3.9476 </r>
       <r>   -11.2122     9.9973     4.9913 </r>
       <r>   -11.1078    13.8475     6.4371 </r>
       <r>   -11.0034    27.5865     9.3172 </r>
       <r>   -10.8990     7.5907    10.1097 </r>
       <r>   -10.7946    -1.0035    10.0049 </r>
       <r>   -10.6902    -0.0470    10.0000 </r>
       <r>   -10.5858    -0.0002    10.0000 </r>
       <r>   -10.4814    -0.0010     9.9999 </r>
       <r>   -10.3770    -0.1251     9.9868 </r>
       <r>   -10.2726    -0.3832     9.9468 </r>
       <r>   -10.1682    10.5629    11.0496 </r>
       <r>   -10.0638     9.6997    12.0623 </r>
       <r>    -9.9594    -0.4941    12.0107 </r>
       <r>    -9.8550    -0.1022    12.0001 </r>
       <r>    -9.7506    -0.0007    12.0000 </r>
       <r>    -9.6462    -0.0000    12.0000 </r>
       <r>    -9.5418    -0.0000    12.0000 </r>
       <r>    -9.4374    -0.0000    12.0000 </r>
       <r>    -9.3329    -0.0000    12.0000 </r>
       <r>    -9.2285    -0.0000    12.0000 </r>
       <r>    -9.1241    -0.0000    12.0000 </r>
       <r>    -9.0197    -0.0000    12.0000 </r>
       <r>    -8.9153    -0.0001    12.0000 </r>
       <r>    -8.8109    -0.0322    11.9966 </r>
       <r>    -8.7065    -0.5964    11.9344 </r>
       <r>    -8.6021     5.2247    12.4798 </r>
       <r>    -8.4977    13.9107    13.9322 </r>
       <r>    -8.3933     0.8663    14.0226 </r>
       <r>    -8.2889    -0.8509    13.9338 </r>
       <r>    -8.1845     9.0441    14.8780 </r>
       <r>    -8.0801    11.1667    16.0439 </r>
       <r>    -7.9757    -0.3047    16.0121 </r>
       <r>    -7.8713    -0.7312    15.9357 </r>
       <r>    -7.7669     4.9607    16.4536 </r>
       <r>    -7.6625    13.6358    17.8773 </r>
       <r>    -7.5581     1.6351    18.0480 </r>
       <r>    -7.4537    21.5679    20.2998 </r>
       <r>    -7.3493    24.4714    22.8547 </r>
       <r>    -7.2449    12.3767    24.1469 </r>
       <r>    -7.1405    23.9847    26.6510 </r>
       <r>    -7.0361    31.2576    29.9144 </r>
       <r>    -6.9316    19.9945    32.0019 </r>
       <r>    -6.8272    19.0559    33.9914 </r>
       <r>    -6.7228    28.5469    36.9718 </r>
       <r>    -6.6184    41.1375    41.2668 </r>
       <r>    -6.5140    42.2838    45.6814 </r>
       <r>    -6.4096    41.2594    49.9890 </r>
       <r>    -6.3052    50.3102    55.2416 </r>
       <r>    -6.2008    37.7878    59.1868 </r>
       <r>    -6.0964    39.4499    63.3055 </r>
       <r>    -5.9920    34.7028    66.9287 </r>
       <r>    -5.8876    24.6787    69.5052 </r>
       <r>    -5.7832    20.2877    71.6233 </r>
       <r>    -5.6788    38.0462    75.5955 </r>
       <r>    -5.5744    41.9273    79.9729 </r>
       <r>    -5.4700    60.0700    86.2445 </r>
       <r>    -5.3656    67.5611    93.2981 </r>
       <r>    -5.2612    74.3826   101.0640 </r>
       <r>    -5.1568    88.1985   110.2723 </r>
       <r>    -5.0524    93.2015   120.0029 </r>
       <r>    -4.9480    76.6167   128.0020 </r>
       <r>    -4.8436    86.7797   137.0622 </r>
       <r>    -4.7392    63.4063   143.6821 </r>
       <r>    -4.6348    23.5519   146.1410 </r>
       <r>    -4.5304     9.5335   147.1363 </r>
       <r>    -4.4259     8.8801   148.0634 </r>
       <r>    -4.3215    -1.1137   147.9472 </r>
       <r>    -4.2171     3.9705   148.3617 </r>
       <r>    -4.1127    16.0286   150.0352 </r>
       <r>    -4.0083    15.8472   151.6897 </r>
       <r>    -3.9039     3.5338   152.0586 </r>
       <r>    -3.7995    -0.6189   151.9940 </r>
       <r>    -3.6951    -0.6029   151.9311 </r>
       <r>    -3.5907     8.5525   152.8240 </r>
       <r>    -3.4863    11.6020   154.0353 </r>
       <r>    -3.3819    -0.1768   154.0168 </r>
       <r>    -3.2775    -0.2233   153.9935 </r>
       <r>    -3.1731    -0.7952   153.9105 </r>
       <r>    -3.0687     7.5345   154.6971 </r>
       <r>    -2.9643    24.3934   157.2439 </r>
       <r>    -2.8599     8.1067   158.0903 </r>
       <r>    -2.7555    -1.0841   157.9771 </r>
       <r>    -2.6511     0.3541   158.0140 </r>
       <r>    -2.5467    15.0893   159.5894 </r>
       <r>    -2.4423    19.8734   161.6643 </r>
       <r>    -2.3379     3.8415   162.0654 </r>
       <r>    -2.2335    -0.6222   162.0004 </r>
       <r>    -2.1291    -0.5673   161.9412 </r>
       <r>    -2.0247     3.8351   162.3416 </r>
       <r>    -1.9202    14.0509   163.8085 </r>
       <r>    -1.8158    12.7934   165.1442 </r>
       <r>    -1.7114    19.5835   167.1888 </r>
       <r>    -1.6070     7.9719   168.0211 </r>
       <r>    -1.5026     2.7244   168.3056 </r>
       <r>    -1.3982    14.1786   169.7859 </r>
       <r>    -1.2938     3.2053   170.1205 </r>
       <r>    -1.1894    13.5714   171.5374 </r>
       <r>    -1.0850     4.5540   172.0129 </r>
       <r>    -0.9806     2.4644   172.2702 </r>
       <r>    -0.8762    14.5200   173.7861 </r>
       <r>    -0.7718     1.8148   173.9756 </r>
       <r>    -0.6674     7.2186   174.7293 </r>
       <r>    -0.5630    13.1402   176.1012 </r>
       <r>    -0.4586    13.9232   177.5548 </r>
       <r>    -0.3542     4.0674   177.9794 </r>
       <r>    -0.2498     5.9540   178.6011 </r>
       <r>    -0.1454    23.9691   181.1035 </r>
       <r>    -0.0410     9.2727   182.0717 </r>
       <r>     0.0634    -0.8643   181.9814 </r>
       <r>     0.1678    11.8045   183.2139 </r>
       <r>     0.2722     8.2001   184.0700 </r>
       <r>     0.3766    -0.5984   184.0075 </r>
       <r>     0.4810    -0.0714   184.0000 </r>
       <r>     0.5855    -0.0004   184.0000 </r>
       <r>     0.6899    -0.0000   184.0000 </r>
       <r>     0.7943    -0.0000   184.0000 </r>
       <r>     0.8987     0.0000   184.0000 </r>
       <r>     1.0031     0.0000   184.0000 </r>
       <r>     1.1075     0.0000   184.0000 </r>
       <r>     1.2119     0.0000   184.0000 </r>
       <r>     1.3163     0.0000   184.0000 </r>
       <r>     1.4207     0.0000   184.0000 </r>
       <r>     1.5251     0.0000   184.0000 </r>
       <r>     1.6295     0.0000   184.0000 </r>
      </set>
      <set comment="spin 2">
       <r>   -29.6918     0.0000     0.0000 </r>
       <r>   -29.5874     0.0000     0.0000 </r>
       <r>   -29.4830     0.0000     0.0000 </r>
       <r>   -29.3786     0.0000     0.0000 </r>
       <r>   -29.2741     0.0000     0.0000 </r>
       <r>   -29.1697     0.0000     0.0000 </r>
       <r>   -29.0653    -0.0000    -0.0000 </r>
       <r>   -28.9609    -0.0000    -0.0000 </r>
       <r>   -28.8565    -0.0000    -0.0000 </r>
       <r>   -28.7521    -0.0000    -0.0000 </r>
       <r>   -28.6477    -0.0000    -0.0000 </r>
       <r>   -28.5433    -0.0041    -0.0004 </r>
       <r>   -28.4389    -0.2710    -0.0287 </r>
       <r>   -28.3345     0.6879     0.0431 </r>
       <r>   -28.2301    13.6016     1.4632 </r>
       <r>   -28.1257     5.7928     2.0680 </r>
       <r>   -28.0213    -0.6127     2.0040 </r>
       <r>   -27.9169    -0.0380     2.0000 </r>
       <r>   -27.8125    -0.0001     2.0000 </r>
       <r>   -27.7081    -0.0000     2.0000 </r>
       <r>   -27.6037    -0.0000     2.0000 </r>
       <r>   -27.4993     0.0000     2.0000 </r>
       <r>   -27.3949     0.0000     2.0000 </r>
       <r>   -27.2905     0.0000     2.0000 </r>
       <r>   -27.1861     0.0000     2.0000 </r>
       <r>   -27.0817     0.0000     2.0000 </r>
       <r>   -26.9773     0.0000     2.0000 </r>
       <r>   -26.8729     0.0000     2.0000 </r>
       <r>   -26.7684     0.0000     2.0000 </r>
       <r>   -26.6640     0.0000     2.0000 </r>
       <r>   -26.5596     0.0000     2.0000 </r>
       <r>   -26.4552     0.0000     2.0000 </r>
       <r>   -26.3508     0.0000     2.0000 </r>
       <r>   -26.2464     0.0000     2.0000 </r>
       <r>   -26.1420     0.0000     2.0000 </r>
       <r>   -26.0376     0.0000     2.0000 </r>
       <r>   -25.9332     0.0000     2.0000 </r>
       <r>   -25.8288     0.0000     2.0000 </r>
       <r>   -25.7244     0.0000     2.0000 </r>
       <r>   -25.6200     0.0000     2.0000 </r>
       <r>   -25.5156     0.0000     2.0000 </r>
       <r>   -25.4112     0.0000     2.0000 </r>
       <r>   -25.3068     0.0000     2.0000 </r>
       <r>   -25.2024     0.0000     2.0000 </r>
       <r>   -25.0980     0.0000     2.0000 </r>
       <r>   -24.9936     0.0000     2.0000 </r>
       <r>   -24.8892     0.0000     2.0000 </r>
       <r>   -24.7848     0.0000     2.0000 </r>
       <r>   -24.6804     0.0000     2.0000 </r>
       <r>   -24.5760     0.0000     2.0000 </r>
       <r>   -24.4716     0.0000     2.0000 </r>
       <r>   -24.3672     0.0000     2.0000 </r>
       <r>   -24.2627     0.0000     2.0000 </r>
       <r>   -24.1583     0.0000     2.0000 </r>
       <r>   -24.0539     0.0000     2.0000 </r>
       <r>   -23.9495     0.0000     2.0000 </r>
       <r>   -23.8451     0.0000     2.0000 </r>
       <r>   -23.7407     0.0000     2.0000 </r>
       <r>   -23.6363     0.0000     2.0000 </r>
       <r>   -23.5319     0.0000     2.0000 </r>
       <r>   -23.4275     0.0000     2.0000 </r>
       <r>   -23.3231     0.0000     2.0000 </r>
       <r>   -23.2187     0.0000     2.0000 </r>
       <r>   -23.1143     0.0000     2.0000 </r>
       <r>   -23.0099     0.0000     2.0000 </r>
       <r>   -22.9055     0.0000     2.0000 </r>
       <r>   -22.8011     0.0000     2.0000 </r>
       <r>   -22.6967     0.0000     2.0000 </r>
       <r>   -22.5923     0.0000     2.0000 </r>
       <r>   -22.4879     0.0000     2.0000 </r>
       <r>   -22.3835     0.0000     2.0000 </r>
       <r>   -22.2791     0.0000     2.0000 </r>
       <r>   -22.1747     0.0000     2.0000 </r>
       <r>   -22.0703     0.0000     2.0000 </r>
       <r>   -21.9659     0.0000     2.0000 </r>
       <r>   -21.8615     0.0000     2.0000 </r>
       <r>   -21.7570     0.0000     2.0000 </r>
       <r>   -21.6526     0.0000     2.0000 </r>
       <r>   -21.5482     0.0000     2.0000 </r>
       <r>   -21.4438     0.0000     2.0000 </r>
       <r>   -21.3394     0.0000     2.0000 </r>
       <r>   -21.2350     0.0000     2.0000 </r>
       <r>   -21.1306     0.0000     2.0000 </r>
       <r>   -21.0262     0.0000     2.0000 </r>
       <r>   -20.9218     0.0000     2.0000 </r>
       <r>   -20.8174     0.0000     2.0000 </r>
       <r>   -20.7130     0.0000     2.0000 </r>
       <r>   -20.6086     0.0000     2.0000 </r>
       <r>   -20.5042     0.0000     2.0000 </r>
       <r>   -20.3998     0.0000     2.0000 </r>
       <r>   -20.2954     0.0000     2.0000 </r>
       <r>   -20.1910     0.0000     2.0000 </r>
       <r>   -20.0866     0.0000     2.0000 </r>
       <r>   -19.9822     0.0000     2.0000 </r>
       <r>   -19.8778     0.0000     2.0000 </r>
       <r>   -19.7734     0.0000     2.0000 </r>
       <r>   -19.6690     0.0000     2.0000 </r>
       <r>   -19.5646     0.0000     2.0000 </r>
       <r>   -19.4602     0.0000     2.0000 </r>
       <r>   -19.3557     0.0000     2.0000 </r>
       <r>   -19.2513     0.0000     2.0000 </r>
       <r>   -19.1469     0.0000     2.0000 </r>
       <r>   -19.0425     0.0000     2.0000 </r>
       <r>   -18.9381     0.0000     2.0000 </r>
       <r>   -18.8337     0.0000     2.0000 </r>
       <r>   -18.7293     0.0000     2.0000 </r>
       <r>   -18.6249     0.0000     2.0000 </r>
       <r>   -18.5205     0.0000     2.0000 </r>
       <r>   -18.4161     0.0000     2.0000 </r>
       <r>   -18.3117     0.0000     2.0000 </r>
       <r>   -18.2073     0.0000     2.0000 </r>
       <r>   -18.1029     0.0000     2.0000 </r>
       <r>   -17.9985     0.0000     2.0000 </r>
       <r>   -17.8941     0.0000     2.0000 </r>
       <r>   -17.7897     0.0000     2.0000 </r>
       <r>   -17.6853     0.0000     2.0000 </r>
       <r>   -17.5809     0.0000     2.0000 </r>
       <r>   -17.4765     0.0000     2.0000 </r>
       <r>   -17.3721     0.0000     2.0000 </r>
       <r>   -17.2677     0.0000     2.0000 </r>
       <r>   -17.1633     0.0000     2.0000 </r>
       <r>   -17.0589     0.0000     2.0000 </r>
       <r>   -16.9545     0.0000     2.0000 </r>
       <r>   -16.8500     0.0000     2.0000 </r>
       <r>   -16.7456     0.0000     2.0000 </r>
       <r>   -16.6412     0.0000     2.0000 </r>
       <r>   -16.5368     0.0000     2.0000 </r>
       <r>   -16.4324     0.0000     2.0000 </r>
       <r>   -16.3280     0.0000     2.0000 </r>
       <r>   -16.2236     0.0000     2.0000 </r>
       <r>   -16.1192     0.0000     2.0000 </r>
       <r>   -16.0148     0.0000     2.0000 </r>
       <r>   -15.9104     0.0000     2.0000 </r>
       <r>   -15.8060     0.0000     2.0000 </r>
       <r>   -15.7016     0.0000     2.0000 </r>
       <r>   -15.5972     0.0000     2.0000 </r>
       <r>   -15.4928     0.0000     2.0000 </r>
       <r>   -15.3884     0.0000     2.0000 </r>
       <r>   -15.2840     0.0000     2.0000 </r>
       <r>   -15.1796     0.0000     2.0000 </r>
       <r>   -15.0752     0.0000     2.0000 </r>
       <r>   -14.9708     0.0000     2.0000 </r>
       <r>   -14.8664     0.0000     2.0000 </r>
       <r>   -14.7620    -0.0000     2.0000 </r>
       <r>   -14.6576    -0.0000     2.0000 </r>
       <r>   -14.5532    -0.0000     2.0000 </r>
       <r>   -14.4488    -0.0000     2.0000 </r>
       <r>   -14.3443    -0.0000     2.0000 </r>
       <r>   -14.2399    -0.0026     1.9997 </r>
       <r>   -14.1355    -0.2151     1.9773 </r>
       <r>   -14.0311     0.2194     2.0002 </r>
       <r>   -13.9267    12.7867     3.3352 </r>
       <r>   -13.8223     7.0459     4.0708 </r>
       <r>   -13.7179    -0.6242     4.0056 </r>
       <r>   -13.6135    -0.0534     4.0000 </r>
       <r>   -13.5091    -0.0002     4.0000 </r>
       <r>   -13.4047    -0.0000     4.0000 </r>
       <r>   -13.3003    -0.0000     4.0000 </r>
       <r>   -13.1959     0.0000     4.0000 </r>
       <r>   -13.0915     0.0000     4.0000 </r>
       <r>   -12.9871     0.0000     4.0000 </r>
       <r>   -12.8827     0.0000     4.0000 </r>
       <r>   -12.7783     0.0000     4.0000 </r>
       <r>   -12.6739     0.0000     4.0000 </r>
       <r>   -12.5695     0.0000     4.0000 </r>
       <r>   -12.4651     0.0000     4.0000 </r>
       <r>   -12.3607     0.0000     4.0000 </r>
       <r>   -12.2563     0.0000     4.0000 </r>
       <r>   -12.1519     0.0000     4.0000 </r>
       <r>   -12.0475    -0.0000     4.0000 </r>
       <r>   -11.9431    -0.0000     4.0000 </r>
       <r>   -11.8386    -0.0000     4.0000 </r>
       <r>   -11.7342    -0.0000     4.0000 </r>
       <r>   -11.6298    -0.0000     4.0000 </r>
       <r>   -11.5254    -0.0002     4.0000 </r>
       <r>   -11.4210    -0.0472     3.9950 </r>
       <r>   -11.3166    -0.6347     3.9288 </r>
       <r>   -11.2122     5.9860     4.5537 </r>
       <r>   -11.1078    15.0289     6.1228 </r>
       <r>   -11.0034    27.7682     9.0219 </r>
       <r>   -10.8990    10.6160    10.1303 </r>
       <r>   -10.7946    -1.1760    10.0075 </r>
       <r>   -10.6902    -0.0718    10.0000 </r>
       <r>   -10.5858    -0.0003    10.0000 </r>
       <r>   -10.4814    -0.0001    10.0000 </r>
       <r>   -10.3770    -0.0242     9.9975 </r>
       <r>   -10.2726    -0.5580     9.9392 </r>
       <r>   -10.1682     4.3190    10.3901 </r>
       <r>   -10.0638    14.3113    11.8843 </r>
       <r>    -9.9594     1.4666    12.0374 </r>
       <r>    -9.8550    -0.3512    12.0007 </r>
       <r>    -9.7506    -0.0071    12.0000 </r>
       <r>    -9.6462    -0.0000    12.0000 </r>
       <r>    -9.5418    -0.0000    12.0000 </r>
       <r>    -9.4374    -0.0000    12.0000 </r>
       <r>    -9.3329    -0.0000    12.0000 </r>
       <r>    -9.2285    -0.0000    12.0000 </r>
       <r>    -9.1241    -0.0000    12.0000 </r>
       <r>    -9.0197    -0.0000    12.0000 </r>
       <r>    -8.9153    -0.0000    12.0000 </r>
       <r>    -8.8109    -0.0096    11.9990 </r>
       <r>    -8.7065    -0.4020    11.9570 </r>
       <r>    -8.6021     2.0284    12.1688 </r>
       <r>    -8.4977    14.5447    13.6873 </r>
       <r>    -8.3933     3.5154    14.0543 </r>
       <r>    -8.2889    -0.9383    13.9564 </r>
       <r>    -8.1845     2.2862    14.1951 </r>
       <r>    -8.0801    14.6022    15.7196 </r>
       <r>    -7.9757     3.1893    16.0526 </r>
       <r>    -7.8713    -0.7510    15.9742 </r>
       <r>    -7.7669     0.5691    16.0336 </r>
       <r>    -7.6625    13.2678    17.4188 </r>
       <r>    -7.5581     5.4155    17.9842 </r>
       <r>    -7.4537    14.5646    19.5048 </r>
       <r>    -7.3493    23.9567    22.0060 </r>
       <r>    -7.2449    15.3380    23.6074 </r>
       <r>    -7.1405    20.1049    25.7064 </r>
       <r>    -7.0361    32.9677    29.1484 </r>
       <r>    -6.9316    22.9408    31.5435 </r>
       <r>    -6.8272    19.2081    33.5489 </r>
       <r>    -6.7228    21.6907    35.8135 </r>
       <r>    -6.6184    41.6587    40.1628 </r>
       <r>    -6.5140    44.8805    44.8485 </r>
       <r>    -6.4096    34.7347    48.4750 </r>
       <r>    -6.3052    54.6988    54.1858 </r>
       <r>    -6.2008    39.0010    58.2576 </r>
       <r>    -6.0964    39.0458    62.3342 </r>
       <r>    -5.9920    37.2350    66.2217 </r>
       <r>    -5.8876    27.2797    69.0698 </r>
       <r>    -5.7832    18.1050    70.9600 </r>
       <r>    -5.6788    32.7502    74.3793 </r>
       <r>    -5.5744    43.2606    78.8959 </r>
       <r>    -5.4700    50.7512    84.1945 </r>
       <r>    -5.3656    68.9916    91.3975 </r>
       <r>    -5.2612    72.0569    98.9206 </r>
       <r>    -5.1568    82.0304   107.4849 </r>
       <r>    -5.0524    98.5290   117.7717 </r>
       <r>    -4.9480    75.4444   125.6485 </r>
       <r>    -4.8436    83.7239   134.3896 </r>
       <r>    -4.7392    72.7831   141.9884 </r>
       <r>    -4.6348    38.1479   145.9713 </r>
       <r>    -4.5304     4.7680   146.4691 </r>
       <r>    -4.4259    13.5829   147.8872 </r>
       <r>    -4.3215     1.2418   148.0168 </r>
       <r>    -4.2171    -0.4003   147.9750 </r>
       <r>    -4.1127    11.8370   149.2109 </r>
       <r>    -4.0083    17.1706   151.0035 </r>
       <r>    -3.9039    10.0962   152.0576 </r>
       <r>    -3.7995    -0.4211   152.0137 </r>
       <r>    -3.6951    -0.1303   152.0001 </r>
       <r>    -3.5907    -0.0805   151.9917 </r>
       <r>    -3.4863    -0.5775   151.9314 </r>
       <r>    -3.3819     8.6359   152.8330 </r>
       <r>    -3.2775    11.5229   154.0360 </r>
       <r>    -3.1731    -0.5870   153.9748 </r>
       <r>    -3.0687     0.8058   154.0589 </r>
       <r>    -2.9643    19.6467   156.1101 </r>
       <r>    -2.8599    18.0531   157.9949 </r>
       <r>    -2.7555     0.3527   158.0317 </r>
       <r>    -2.6511    -0.9101   157.9367 </r>
       <r>    -2.5467     3.2158   158.2724 </r>
       <r>    -2.4423    21.8435   160.5530 </r>
       <r>    -2.3379    14.3349   162.0496 </r>
       <r>    -2.2335    -0.2655   162.0219 </r>
       <r>    -2.1291    -0.4386   161.9761 </r>
       <r>    -2.0247     0.3096   162.0084 </r>
       <r>    -1.9202    12.5754   163.3214 </r>
       <r>    -1.8158     8.5157   164.2104 </r>
       <r>    -1.7114    16.3841   165.9210 </r>
       <r>    -1.6070    17.8415   167.7837 </r>
       <r>    -1.5026     2.0103   167.9936 </r>
       <r>    -1.3982     3.7050   168.3804 </r>
       <r>    -1.2938    14.3099   169.8745 </r>
       <r>    -1.1894     0.9641   169.9751 </r>
       <r>    -1.0850     4.2159   170.4153 </r>
       <r>    -0.9806    13.7399   171.8498 </r>
       <r>    -0.8762    11.5940   173.0602 </r>
       <r>    -0.7718     9.4169   174.0434 </r>
       <r>    -0.6674    -0.6056   173.9802 </r>
       <r>    -0.5630    11.4287   175.1734 </r>
       <r>    -0.4586     8.9396   176.1067 </r>
       <r>    -0.3542    12.6894   177.4315 </r>
       <r>    -0.2498     5.5523   178.0112 </r>
       <r>    -0.1454    15.7571   179.6563 </r>
       <r>    -0.0410    21.5498   181.9062 </r>
       <r>     0.0634     0.7663   181.9862 </r>
       <r>     0.1678     4.0293   182.4069 </r>
       <r>     0.2722    14.2404   183.8936 </r>
       <r>     0.3766     1.3670   184.0364 </r>
       <r>     0.4810    -0.3416   184.0007 </r>
       <r>     0.5855    -0.0067   184.0000 </r>
       <r>     0.6899    -0.0000   184.0000 </r>
       <r>     0.7943    -0.0000   184.0000 </r>
       <r>     0.8987    -0.0000   184.0000 </r>
       <r>     1.0031     0.0000   184.0000 </r>
       <r>     1.1075     0.0000   184.0000 </r>
       <r>     1.2119     0.0000   184.0000 </r>
       <r>     1.3163     0.0000   184.0000 </r>
       <r>     1.4207     0.0000   184.0000 </r>
       <r>     1.5251     0.0000   184.0000 </r>
       <r>     1.6295     0.0000   184.0000 </r>
      </set>
     </set>
    </array>
   </total>
  </dos>
 </calculation>
 <structure name="finalpos" >
  <crystal>
   <varray name="basis" >
    <v>      15.00000000       0.00000000       0.00000000 </v>
    <v>       0.00000000      15.00000000       0.00000000 </v>
    <v>       0.00000000       0.00000000      15.00000000 </v>
   </varray>
   <i name="volume">   3375.00000000 </i>
   <varray name="rec_basis" >
    <v>       0.06666667       0.00000000       0.00000000 </v>
    <v>       0.00000000       0.06666667       0.00000000 </v>
    <v>       0.00000000       0.00000000       0.06666667 </v>
   </varray>
  </crystal>
  <varray name="positions" >
   <v>       0.29381000       0.42284667       0.55968867 </v>
   <v>       0.37772800       0.54566400       0.49561333 </v>
   <v>       0.40569867       0.29370267       0.57044800 </v>
   <v>       0.52863000       0.50032000       0.47094467 </v>
   <v>       0.55199933       0.35089200       0.52842533 </v>
   <v>       0.44437467       0.43706933       0.62063933 </v>
   <v>       0.40983200       0.39480267       0.44834400 </v>
   <v>       0.21922800       0.56844067       0.55705533 </v>
   <v>       0.33103867       0.53844200       0.65782867 </v>
   <v>       0.34451800       0.67478000       0.57614733 </v>
   <v>       0.49477067       0.67246000       0.46729600 </v>
   <v>       0.62945467       0.49694000       0.59554333 </v>
   <v>       0.48286733       0.59034067       0.61036867 </v>
   <v>       0.74769333       0.49674600       0.62806733 </v>
   <v>       0.82291333       0.49122800       0.64984933 </v>
  </varray>
 </structure>
</modeling>
