 vasp.5.4.4.18Apr17-6-g9f103f2a35 (build May 08 2019 13:49:07) complex          
  
 executed on             LinuxIFC date 2019.11.13  15:25:39
 running on   24 total cores
 distrk:  each k-point on   24 cores,    1 groups
 distr:  one band on NCORES_PER_BAND=   6 cores,    4 groups


--------------------------------------------------------------------------------------------------------


 INCAR:
 POTCAR:    PAW_PBE Cu 22Jun2005                  
 POTCAR:    PAW_PBE C 08Apr2002                   
 POTCAR:    PAW_PBE O 08Apr2002                   
 POTCAR:    PAW_PBE Cu 22Jun2005                  
   VRHFIN =Cu: d10 p1                                                           
   LEXCH  = PE                                                                  
   EATOM  =  1390.9808 eV,  102.2342 Ry                                         
                                                                                
   TITEL  = PAW_PBE Cu 22Jun2005                                                
   LULTRA =        F    use ultrasoft PP ?                                      
   IUNSCR =        1    unscreen: 0-lin 1-nonlin 2-no                           
   RPACOR =    2.000    partial core radius                                     
   POMASS =   63.546; ZVAL   =   11.000    mass and valenz                      
   RCORE  =    2.300    outmost cutoff radius                                   
   RWIGS  =    2.200; RWIGS  =    1.164    wigner-seitz radius (au A)           
   ENMAX  =  295.446; ENMIN  =  221.585 eV                                      
   ICORE  =        3    local potential                                         
   LCOR   =        T    correct aug charges                                     
   LPAW   =        T    paw PP                                                  
   EAUG   =  586.980                                                            
   DEXC   =    0.000                                                            
   RMAX   =    2.344    core radius for proj-oper                               
   RAUG   =    1.300    factor for augmentation sphere                          
   RDEP   =    2.302    radius for radial grids                                 
   RDEPT  =    1.771    core radius for aug-charge                              
                                                                                
   Atomic configuration                                                         
    9 entries                                                                   
     n  l   j            E        occ.                                          
     1  0  0.50     -8850.2468   2.0000                                         
     2  0  0.50     -1062.3498   2.0000                                         
     2  1  1.50      -916.8226   6.0000                                         
     3  0  0.50      -114.6929   2.0000                                         
     3  1  1.50       -72.1325   6.0000                                         
     3  2  2.50        -5.0394  10.0000                                         
     4  0  0.50        -4.6097   1.0000                                         
     4  1  0.50        -4.0817   0.0000                                         
     4  3  2.50        -1.3606   0.0000                                         
   Description                                                                  
     l       E           TYP  RCUT    TYP  RCUT                                 
     2     -5.0393973     23  2.200                                             
     2     10.8846608     23  2.200                                             
     0     -4.6097109     23  2.200                                             
     0      8.2520465     23  2.200                                             
     1     -2.7211652     23  2.200                                             
     1     21.7055443     23  2.200                                             
     3      2.7211652     23  2.300                                             
  local pseudopotential read in
  partial core-charges read in
  partial kinetic energy density read in
  atomic valenz-charges read in
  non local Contribution for L=           2  read in
    real space projection operators read in
  non local Contribution for L=           2  read in
    real space projection operators read in
  non local Contribution for L=           0  read in
    real space projection operators read in
  non local Contribution for L=           0  read in
    real space projection operators read in
  non local Contribution for L=           1  read in
    real space projection operators read in
  non local Contribution for L=           1  read in
    real space projection operators read in
    PAW grid and wavefunctions read in
 
   number of l-projection  operators is LMAX  =           6
   number of lm-projection operators is LMMAX =          18
 
 POTCAR:    PAW_PBE C 08Apr2002                   
   VRHFIN =C: s2p2                                                              
   LEXCH  = PE                                                                  
   EATOM  =   147.1560 eV,   10.8157 Ry                                         
                                                                                
   TITEL  = PAW_PBE C 08Apr2002                                                 
   LULTRA =        F    use ultrasoft PP ?                                      
   IUNSCR =        1    unscreen: 0-lin 1-nonlin 2-no                           
   RPACOR =    1.200    partial core radius                                     
   POMASS =   12.011; ZVAL   =    4.000    mass and valenz                      
   RCORE  =    1.500    outmost cutoff radius                                   
   RWIGS  =    1.630; RWIGS  =    0.863    wigner-seitz radius (au A)           
   ENMAX  =  400.000; ENMIN  =  300.000 eV                                      
   ICORE  =        2    local potential                                         
   LCOR   =        T    correct aug charges                                     
   LPAW   =        T    paw PP                                                  
   EAUG   =  644.873                                                            
   DEXC   =    0.000                                                            
   RMAX   =    1.529    core radius for proj-oper                               
   RAUG   =    1.300    factor for augmentation sphere                          
   RDEP   =    1.501    radius for radial grids                                 
   RDEPT  =    1.300    core radius for aug-charge                              
                                                                                
   Atomic configuration                                                         
    4 entries                                                                   
     n  l   j            E        occ.                                          
     1  0  0.50      -273.3789   2.0000                                         
     2  0  0.50       -13.7508   2.0000                                         
     2  1  0.50        -5.2854   2.0000                                         
     3  2  1.50        -5.4423   0.0000                                         
   Description                                                                  
     l       E           TYP  RCUT    TYP  RCUT                                 
     0    -13.7508458     23  1.200                                             
     0     -8.2022199     23  1.200                                             
     1     -5.2854383     23  1.500                                             
     1     34.0145650     23  1.500                                             
     2     -5.4423304      7  1.500                                             
  local pseudopotential read in
  partial core-charges read in
  partial kinetic energy density read in
  atomic valenz-charges read in
  non local Contribution for L=           0  read in
    real space projection operators read in
  non local Contribution for L=           0  read in
    real space projection operators read in
  non local Contribution for L=           1  read in
    real space projection operators read in
  non local Contribution for L=           1  read in
    real space projection operators read in
    PAW grid and wavefunctions read in
 
   number of l-projection  operators is LMAX  =           4
   number of lm-projection operators is LMMAX =           8
 
 POTCAR:    PAW_PBE O 08Apr2002                   
   VRHFIN =O: s2p4                                                              
   LEXCH  = PE                                                                  
   EATOM  =   432.3788 eV,   31.7789 Ry                                         
                                                                                
   TITEL  = PAW_PBE O 08Apr2002                                                 
   LULTRA =        F    use ultrasoft PP ?                                      
   IUNSCR =        1    unscreen: 0-lin 1-nonlin 2-no                           
   RPACOR =    1.200    partial core radius                                     
   POMASS =   16.000; ZVAL   =    6.000    mass and valenz                      
   RCORE  =    1.520    outmost cutoff radius                                   
   RWIGS  =    1.550; RWIGS  =    0.820    wigner-seitz radius (au A)           
   ENMAX  =  400.000; ENMIN  =  300.000 eV                                      
   ICORE  =        2    local potential                                         
   LCOR   =        T    correct aug charges                                     
   LPAW   =        T    paw PP                                                  
   EAUG   =  605.392                                                            
   DEXC   =    0.000                                                            
   RMAX   =    1.553    core radius for proj-oper                               
   RAUG   =    1.300    factor for augmentation sphere                          
   RDEP   =    1.550    radius for radial grids                                 
   RDEPT  =    1.329    core radius for aug-charge                              
                                                                                
   Atomic configuration                                                         
    4 entries                                                                   
     n  l   j            E        occ.                                          
     1  0  0.50      -514.6923   2.0000                                         
     2  0  0.50       -23.9615   2.0000                                         
     2  1  0.50        -9.0305   4.0000                                         
     3  2  1.50        -9.5241   0.0000                                         
   Description                                                                  
     l       E           TYP  RCUT    TYP  RCUT                                 
     0    -23.9615318     23  1.200                                             
     0     -9.5240782     23  1.200                                             
     1     -9.0304911     23  1.520                                             
     1      8.1634956     23  1.520                                             
     2     -9.5240782      7  1.500                                             
  local pseudopotential read in
  partial core-charges read in
  partial kinetic energy density read in
  kinetic energy density of atom read in
  atomic valenz-charges read in
  non local Contribution for L=           0  read in
    real space projection operators read in
  non local Contribution for L=           0  read in
    real space projection operators read in
  non local Contribution for L=           1  read in
    real space projection operators read in
  non local Contribution for L=           1  read in
    real space projection operators read in
    PAW grid and wavefunctions read in
 
   number of l-projection  operators is LMAX  =           4
   number of lm-projection operators is LMMAX =           8
 
  PAW_PBE Cu 22Jun2005                  :
 energy of atom  1       EATOM=-1390.9808
 kinetic energy error for atom=    0.0033 (will be added to EATOM!!)
  PAW_PBE C 08Apr2002                   :
 energy of atom  2       EATOM= -147.1560
 kinetic energy error for atom=    0.0057 (will be added to EATOM!!)
  PAW_PBE O 08Apr2002                   :
 energy of atom  3       EATOM= -432.3788
 kinetic energy error for atom=    0.0168 (will be added to EATOM!!)
 
 
 POSCAR: Cu13 C1 O1                              
  positions in cartesian coordinates
  No initial velocities read in
 exchange correlation table for  LEXCH =        8
   RHO(1)=    0.500       N(1)  =     2000
   RHO(2)=  100.500       N(2)  =     4000
 


--------------------------------------------------------------------------------------------------------


 ion  position               nearest neighbor table
   1  0.287  0.424  0.561-   8 2.40   9 2.43   6 2.44   2 2.50   3 2.52   7 2.55
   2  0.381  0.545  0.497-   7 2.28  10 2.32  11 2.41   8 2.42   6 2.47   1 2.50   4 2.52   9 2.59
                            13 2.59
   3  0.390  0.291  0.565-   6 2.42   7 2.45   1 2.52   5 2.68
   4  0.543  0.507  0.473-  12 2.43   5 2.44   7 2.50   2 2.52  13 2.61  11 2.64   6 2.70
   5  0.552  0.352  0.522-   4 2.44   6 2.44   7 2.48  12 2.61   3 2.68
   6  0.442  0.438  0.606-  13 2.34   3 2.42   1 2.44   7 2.44   5 2.44   2 2.47   9 2.48   4 2.70

   7  0.414  0.404  0.450-   2 2.28   6 2.44   3 2.45   5 2.48   4 2.50   1 2.55
   8  0.226  0.569  0.536-   1 2.40   2 2.42   9 2.45  10 2.51
   9  0.328  0.544  0.661-  10 2.39   1 2.43   8 2.45   6 2.48   2 2.59  13 2.64
  10  0.349  0.675  0.574-   2 2.32   9 2.39  11 2.41   8 2.51  13 2.67
  11  0.480  0.671  0.481-  10 2.41   2 2.41  13 2.48   4 2.64
  12  0.626  0.483  0.609-  14 1.84   4 2.43  13 2.49   5 2.61
  13  0.495  0.584  0.621-   6 2.34  11 2.48  12 2.49   2 2.59   4 2.61   9 2.64  10 2.67
  14  0.746  0.480  0.635-  15 1.17  12 1.84
  15  0.821  0.496  0.648-  14 1.17
 

IMPORTANT INFORMATION: All symmetrisations will be switched off!
NOSYMM: (Re-)initialisation of all symmetry stuff for point group C_1.

 
 

Automatic generation of k-mesh.
 generate k-points for:    1    1    1
Space group operators:
 irot       det(A)        alpha          n_x          n_y          n_z        tau_x        tau_y        tau_z
    1     1.000000     0.000000     1.000000     0.000000     0.000000     0.000000     0.000000     0.000000
 
 Subroutine IBZKPT returns following result:
 ===========================================
 
 Found      1 irreducible k-points:
 
 Following reciprocal coordinates:
            Coordinates               Weight
  0.000000  0.000000  0.000000      1.000000
 
 Following cartesian coordinates:
            Coordinates               Weight
  0.000000  0.000000  0.000000      1.000000
 


--------------------------------------------------------------------------------------------------------




 Dimension of arrays:
   k-points           NKPTS =      1   k-points in BZ     NKDIM =      1   number of bands    NBANDS=     92
   number of dos      NEDOS =    301   number of ions     NIONS =     15
   non local maximal  LDIM  =      6   non local SUM 2l+1 LMDIM =     18
   total plane-waves  NPLWV = ******
   max r-space proj   IRMAX =      1   max aug-charges    IRDMAX=  15028
   dimension x,y,z NGX =   120 NGY =  120 NGZ =  120
   dimension x,y,z NGXF=   240 NGYF=  240 NGZF=  240
   support grid    NGXF=   240 NGYF=  240 NGZF=  240
   ions per type =              13   1   1
   NGX,Y,Z   is equivalent  to a cutoff of  13.30, 13.30, 13.30 a.u.
   NGXF,Y,Z  is equivalent  to a cutoff of  26.60, 26.60, 26.60 a.u.

 SYSTEM =  CuCO                                    
 POSCAR =  Cu13 C1 O1                              

 Startparameter for this run:
   NWRITE =      2    write-flag & timer
   PREC   = accura    normal or accurate (medium, high low for compatibility)
   ISTART =      0    job   : 0-new  1-cont  2-samecut
   ICHARG =      2    charge: 1-file 2-atom 10-const
   ISPIN  =      2    spin polarized calculation?
   LNONCOLLINEAR =      F non collinear calculations
   LSORBIT =      F    spin-orbit coupling
   INIWAV =      1    electr: 0-lowe 1-rand  2-diag
   LASPH  =      F    aspherical Exc in radial PAW
   METAGGA=      F    non-selfconsistent MetaGGA calc.

 Electronic Relaxation 1
   ENCUT  =  600.0 eV  44.10 Ry    6.64 a.u.  29.96 29.96 29.96*2*pi/ulx,y,z
   ENINI  =  600.0     initial cutoff
   ENAUG  =  644.9 eV  augmentation charge cutoff
   NELM   =    300;   NELMIN=  3; NELMDL= -5     # of ELM steps 
   EDIFF  = 0.1E-06   stopping-criterion for ELM
   LREAL  =      F    real-space projection
   NLSPLINE    = F    spline interpolate recip. space projectors
   LCOMPAT=      F    compatible to vasp.4.4
   GGA_COMPAT  = T    GGA compatible to vasp.4.4-vasp.4.6
   LMAXPAW     = -100 max onsite density
   LMAXMIX     =    2 max onsite mixed and CHGCAR
   VOSKOWN=      0    Vosko Wilk Nusair interpolation
   ROPT   =    0.00000   0.00000   0.00000
 Ionic relaxation
   EDIFFG = -.1E-02   stopping-criterion for IOM
   NSW    =      0    number of steps for IOM
   NBLOCK =      1;   KBLOCK =      1    inner block; outer block 
   IBRION =     -1    ionic relax: 0-MD 1-quasi-New 2-CG
   NFREE  =      0    steps in history (QN), initial steepest desc. (CG)
   ISIF   =      2    stress and relaxation
   IWAVPR =     10    prediction:  0-non 1-charg 2-wave 3-comb
   ISYM   =      0    0-nonsym 1-usesym 2-fastsym
   LCORR  =      T    Harris-Foulkes like correction to forces

   POTIM  = 0.5000    time-step for ionic-motion
   TEIN   =    0.0    initial temperature
   TEBEG  =    0.0;   TEEND  =   0.0 temperature during run
   SMASS  =  -3.00    Nose mass-parameter (am)
   estimated Nose-frequenzy (Omega)   =  0.10E-29 period in steps =****** mass=  -0.514E-26a.u.
   SCALEE = 1.0000    scale energy and forces
   NPACO  =    256;   APACO  = 16.0  distance and # of slots for P.C.
   PSTRESS=    0.0 pullay stress

  Mass of Ions in am
   POMASS =  63.55 12.01 16.00
  Ionic Valenz
   ZVAL   =  11.00  4.00  6.00
  Atomic Wigner-Seitz radii
   RWIGS  =  -1.00 -1.00 -1.00
  virtual crystal weights 
   VCA    =   1.00  1.00  1.00
   NELECT =     153.0000    total number of electrons
   NUPDOWN=       1.0000    fix difference up-down

 DOS related values:
   EMIN   =  10.00;   EMAX   =-10.00  energy-range for DOS
   EFERMI =   0.00
   ISMEAR =     1;   SIGMA  =   0.10  broadening in eV -4-tet -1-fermi 0-gaus

 Electronic relaxation 2 (details)
   IALGO  =     68    algorithm
   LDIAG  =      T    sub-space diagonalisation (order eigenvalues)
   LSUBROT=      F    optimize rotation matrix (better conditioning)
   TURBO    =      0    0=normal 1=particle mesh
   IRESTART =      0    0=no restart 2=restart with 2 vectors
   NREBOOT  =      0    no. of reboots
   NMIN     =      0    reboot dimension
   EREF     =   0.00    reference energy to select bands
   IMIX   =      4    mixing-type and parameters
     AMIX     =   0.40;   BMIX     =  1.00
     AMIX_MAG =   1.60;   BMIX_MAG =  1.00
     AMIN     =   0.10
     WC   =   100.;   INIMIX=   1;  MIXPRE=   1;  MAXMIX= -45

 Intra band minimization:
   WEIMIN = 0.0000     energy-eigenvalue tresh-hold
   EBREAK =  0.27E-09  absolut break condition
   DEPER  =   0.30     relativ break condition  

   TIME   =   0.40     timestep for ELM

  volume/ion in A,a.u.               =     225.00      1518.37
  Fermi-wavevector in a.u.,A,eV,Ry     =   0.583733  1.103095  4.636102  0.340744
  Thomas-Fermi vector in A             =   1.629149
 
 Write flags
   LWAVE        =      F    write WAVECAR
   LDOWNSAMPLE  =      F    k-point downsampling of WAVECAR
   LCHARG       =      F    write CHGCAR
   LVTOT        =      F    write LOCPOT, total local potential
   LVHAR        =      F    write LOCPOT, Hartree potential only
   LELF         =      F    write electronic localiz. function (ELF)
   LORBIT       =      0    0 simple, 1 ext, 2 COOP (PROOUT), +10 PAW based schemes


 Dipole corrections
   LMONO  =      F    monopole corrections only (constant potential shift)
   LDIPOL =      F    correct potential (dipole corrections)
   IDIPOL =      0    1-x, 2-y, 3-z, 4-all directions 
   EPSILON=  1.0000000 bulk dielectric constant

 Exchange correlation treatment:
   GGA     =    PE    GGA type
   LEXCH   =     8    internal setting for exchange type
   VOSKOWN=      0    Vosko Wilk Nusair interpolation
   LHFCALC =     F    Hartree Fock is set to
   LHFONE  =     F    Hartree Fock one center treatment
   AEXX    =    0.0000 exact exchange contribution

 Linear response parameters
   LEPSILON=     F    determine dielectric tensor
   LRPA    =     F    only Hartree local field effects (RPA)
   LNABLA  =     F    use nabla operator in PAW spheres
   LVEL    =     F    velocity operator in full k-point grid
   LINTERFAST=   F  fast interpolation
   KINTER  =     0    interpolate to denser k-point grid
   CSHIFT  =0.1000    complex shift for real part using Kramers Kronig
   OMEGAMAX=  -1.0    maximum frequency
   DEG_THRESHOLD= 0.2000000E-02 threshold for treating states as degnerate
   RTIME   =   -0.100 relaxation time in fs
  (WPLASMAI=    0.000 imaginary part of plasma frequency in eV, 0.658/RTIME)
   DFIELD  = 0.0000000 0.0000000 0.0000000 field for delta impulse in time
 
 Orbital magnetization related:
   ORBITALMAG=     F  switch on orbital magnetization
   LCHIMAG   =     F  perturbation theory with respect to B field
   DQ        =  0.001000  dq finite difference perturbation B field
   LLRAUG    =     F  two centre corrections for induced B field



--------------------------------------------------------------------------------------------------------


 Static calculation
 charge density and potential will be updated during run
 spin polarized calculation
 RMM-DIIS sequential band-by-band and
  variant of blocked Davidson during initial phase
 perform sub-space diagonalisation
    before iterative eigenvector-optimisation
 modified Broyden-mixing scheme, WC =      100.0
 initial mixing is a Kerker type mixing with AMIX =  0.4000 and BMIX =      1.0000
 Hartree-type preconditioning will be used
 using additional bands           15
 reciprocal scheme for non local part
 use partial core corrections
 calculate Harris-corrections to forces 
   (improved forces if not selfconsistent)
 use gradient corrections 
 use of overlap-Matrix (Vanderbilt PP)
 Methfessel and Paxton  Order N= 1 SIGMA  =   0.10


--------------------------------------------------------------------------------------------------------


  energy-cutoff  :      600.00
  volume of cell :     3375.00
      direct lattice vectors                 reciprocal lattice vectors
    15.000000000  0.000000000  0.000000000     0.066666667  0.000000000  0.000000000
     0.000000000 15.000000000  0.000000000     0.000000000  0.066666667  0.000000000
     0.000000000  0.000000000 15.000000000     0.000000000  0.000000000  0.066666667

  length of vectors
    15.000000000 15.000000000 15.000000000     0.066666667  0.066666667  0.066666667


 
 k-points in units of 2pi/SCALE and weight: read from INCAR                         
   0.00000000  0.00000000  0.00000000       1.000
 
 k-points in reciprocal lattice and weights: read from INCAR                         
   0.00000000  0.00000000  0.00000000       1.000
 
 position of ions in fractional coordinates (direct lattice) 
   0.28703867  0.42360533  0.56117733
   0.38103533  0.54544533  0.49697867
   0.39008133  0.29127533  0.56506800
   0.54284800  0.50674333  0.47282333
   0.55236067  0.35198800  0.52243467
   0.44247000  0.43830267  0.60598533
   0.41366467  0.40449000  0.44969267
   0.22615067  0.56943200  0.53594333
   0.32820267  0.54390933  0.66128533
   0.34945867  0.67545333  0.57434933
   0.48017867  0.67094000  0.48108400
   0.62621333  0.48302600  0.60948733
   0.49501467  0.58411200  0.62115467
   0.74592667  0.47957400  0.63479333
   0.82119333  0.49610133  0.64828133
 
 position of ions in cartesian coordinates  (Angst):
   4.30558000  6.35408000  8.41766000
   5.71553000  8.18168000  7.45468000
   5.85122000  4.36913000  8.47602000
   8.14272000  7.60115000  7.09235000
   8.28541000  5.27982000  7.83652000
   6.63705000  6.57454000  9.08978000
   6.20497000  6.06735000  6.74539000
   3.39226000  8.54148000  8.03915000
   4.92304000  8.15864000  9.91928000
   5.24188000 10.13180000  8.61524000
   7.20268000 10.06410000  7.21626000
   9.39320000  7.24539000  9.14231000
   7.42522000  8.76168000  9.31732000
  11.18890000  7.19361000  9.52190000
  12.31790000  7.44152000  9.72422000
 


--------------------------------------------------------------------------------------------------------


 k-point  1 :   0.0000 0.0000 0.0000  plane waves:  112451

 maximum and minimum number of plane-waves per node :     18753    18726

 maximum number of plane-waves:    112451
 maximum index in each direction: 
   IXMAX=   29   IYMAX=   29   IZMAX=   29
   IXMIN=  -29   IYMIN=  -29   IZMIN=  -29


 parallel 3D FFT for wavefunctions:
    minimum data exchange during FFTs selected (reduces bandwidth)
 parallel 3D FFT for charge:
    minimum data exchange during FFTs selected (reduces bandwidth)


 total amount of memory used by VASP MPI-rank0   158680. kBytes
=======================================================================

   base      :      30000. kBytes
   nonl-proj :      12601. kBytes
   fftplans  :      27994. kBytes
   grid      :      74150. kBytes
   one-center:         93. kBytes
   wavefun   :      13842. kBytes
 
     INWAV:  cpu time    0.0000: real time    0.0003
 Broyden mixing: mesh for mixing (old mesh)
   NGX = 59   NGY = 59   NGZ = 59
  (NGX  =240   NGY  =240   NGZ  =240)
  gives a total of 205379 points

 initial charge density was supplied:
 charge density of overlapping atoms calculated
 number of electron     153.0000000 magnetization       1.0000000
 keeping initial charge density in first step


--------------------------------------------------------------------------------------------------------


 Maximum index for augmentation-charges          708 (set IRDMAX)


--------------------------------------------------------------------------------------------------------


 First call to EWALD:  gamma=   0.118
 Maximum number of real-space cells 3x 3x 3
 Maximum number of reciprocal cells 3x 3x 3

    FEWALD:  cpu time    0.0015: real time    0.0016


--------------------------------------- Iteration      1(   1)  ---------------------------------------


    POTLOK:  cpu time    1.1808: real time    1.1878
    SETDIJ:  cpu time    0.0172: real time    0.0172
     EDDAV:  cpu time    7.4405: real time    7.4656
       DOS:  cpu time    0.0005: real time    0.0005
    --------------------------------------------
      LOOP:  cpu time    8.6390: real time    8.6711

 eigenvalue-minimisations  :   376
 total energy-change (2. order) : 0.1115750E+04  (-0.4462478E+04)
 number of electron     153.0000000 magnetization       1.0000000
 augmentation part      153.0000000 magnetization       1.0000000

 Free energy of the ion-electron system (eV)
  ---------------------------------------------------
  alpha Z        PSCENC =        41.16232785
  Ewald energy   TEWEN  =     16298.58433721
  -Hartree energ DENC   =    -33323.86241480
  -exchange      EXHF   =         0.00000000
  -V(xc)+E(xc)   XCENC  =       623.27181731
  PAW double counting   =     16421.75059358   -17800.06104309
  entropy T*S    EENTRO =        -0.01831366
  eigenvalues    EBANDS =       192.70353567
  atomic energy  EATOM  =     18662.21924712
  Solvation  Ediel_sol  =         0.00000000
  ---------------------------------------------------
  free energy    TOTEN  =      1115.75008718 eV

  energy without entropy =     1115.76840084  energy(sigma->0) =     1115.75619173


--------------------------------------------------------------------------------------------------------




--------------------------------------- Iteration      1(   2)  ---------------------------------------


     EDDAV:  cpu time    7.3358: real time    7.3634
       DOS:  cpu time    0.0003: real time    0.0003
    --------------------------------------------
      LOOP:  cpu time    7.3362: real time    7.3637

 eigenvalue-minimisations  :   368
 total energy-change (2. order) :-0.1028762E+04  (-0.9766172E+03)
 number of electron     153.0000000 magnetization       1.0000000
 augmentation part      153.0000000 magnetization       1.0000000

 Free energy of the ion-electron system (eV)
  ---------------------------------------------------
  alpha Z        PSCENC =        41.16232785
  Ewald energy   TEWEN  =     16298.58433721
  -Hartree energ DENC   =    -33323.86241480
  -exchange      EXHF   =         0.00000000
  -V(xc)+E(xc)   XCENC  =       623.27181731
  PAW double counting   =     16421.75059358   -17800.06104309
  entropy T*S    EENTRO =         0.00665320
  eigenvalues    EBANDS =      -836.08313956
  atomic energy  EATOM  =     18662.21924712
  Solvation  Ediel_sol  =         0.00000000
  ---------------------------------------------------
  free energy    TOTEN  =        86.98837882 eV

  energy without entropy =       86.98172562  energy(sigma->0) =       86.98616108


--------------------------------------------------------------------------------------------------------




--------------------------------------- Iteration      1(   3)  ---------------------------------------


     EDDAV:  cpu time   11.3410: real time   11.3920
       DOS:  cpu time    0.0003: real time    0.0003
    --------------------------------------------
      LOOP:  cpu time   11.3413: real time   11.3923

 eigenvalue-minimisations  :   640
 total energy-change (2. order) :-0.1202942E+03  (-0.1120410E+03)
 number of electron     153.0000000 magnetization       1.0000000
 augmentation part      153.0000000 magnetization       1.0000000

 Free energy of the ion-electron system (eV)
  ---------------------------------------------------
  alpha Z        PSCENC =        41.16232785
  Ewald energy   TEWEN  =     16298.58433721
  -Hartree energ DENC   =    -33323.86241480
  -exchange      EXHF   =         0.00000000
  -V(xc)+E(xc)   XCENC  =       623.27181731
  PAW double counting   =     16421.75059358   -17800.06104309
  entropy T*S    EENTRO =         0.01556060
  eigenvalues    EBANDS =      -956.38622602
  atomic energy  EATOM  =     18662.21924712
  Solvation  Ediel_sol  =         0.00000000
  ---------------------------------------------------
  free energy    TOTEN  =       -33.30580024 eV

  energy without entropy =      -33.32136085  energy(sigma->0) =      -33.31098711


--------------------------------------------------------------------------------------------------------




--------------------------------------- Iteration      1(   4)  ---------------------------------------


     EDDAV:  cpu time   10.0543: real time   10.0686
       DOS:  cpu time    0.0004: real time    0.0004
    --------------------------------------------
      LOOP:  cpu time   10.0547: real time   10.0690

 eigenvalue-minimisations  :   552
 total energy-change (2. order) :-0.2199228E+02  (-0.2163057E+02)
 number of electron     153.0000000 magnetization       1.0000000
 augmentation part      153.0000000 magnetization       1.0000000

 Free energy of the ion-electron system (eV)
  ---------------------------------------------------
  alpha Z        PSCENC =        41.16232785
  Ewald energy   TEWEN  =     16298.58433721
  -Hartree energ DENC   =    -33323.86241480
  -exchange      EXHF   =         0.00000000
  -V(xc)+E(xc)   XCENC  =       623.27181731
  PAW double counting   =     16421.75059358   -17800.06104309
  entropy T*S    EENTRO =         0.01372137
  eigenvalues    EBANDS =      -978.37666777
  atomic energy  EATOM  =     18662.21924712
  Solvation  Ediel_sol  =         0.00000000
  ---------------------------------------------------
  free energy    TOTEN  =       -55.29808123 eV

  energy without entropy =      -55.31180260  energy(sigma->0) =      -55.30265502


--------------------------------------------------------------------------------------------------------




--------------------------------------- Iteration      1(   5)  ---------------------------------------


     EDDAV:  cpu time   12.1804: real time   12.1956
       DOS:  cpu time    0.0005: real time    0.0005
    CHARGE:  cpu time    0.7023: real time    0.7030
    MIXING:  cpu time    0.0221: real time    0.0222
    --------------------------------------------
      LOOP:  cpu time   12.9053: real time   12.9213

 eigenvalue-minimisations  :   696
 total energy-change (2. order) :-0.1729687E+01  (-0.1580801E+01)
 number of electron     153.0000001 magnetization       1.0000000
 augmentation part       87.4906612 magnetization       0.3954306

 Broyden mixing:
  rms(total) = 0.23775E+01    rms(broyden)= 0.23774E+01
  rms(prec ) = 0.27339E+01
  weight for this iteration     100.00

 Free energy of the ion-electron system (eV)
  ---------------------------------------------------
  alpha Z        PSCENC =        41.16232785
  Ewald energy   TEWEN  =     16298.58433721
  -Hartree energ DENC   =    -33323.86241480
  -exchange      EXHF   =         0.00000000
  -V(xc)+E(xc)   XCENC  =       623.27181731
  PAW double counting   =     16421.75059358   -17800.06104309
  entropy T*S    EENTRO =         0.01538207
  eigenvalues    EBANDS =      -980.10801593
  atomic energy  EATOM  =     18662.21924712
  Solvation  Ediel_sol  =         0.00000000
  ---------------------------------------------------
  free energy    TOTEN  =       -57.02776869 eV

  energy without entropy =      -57.04315076  energy(sigma->0) =      -57.03289605


--------------------------------------------------------------------------------------------------------




--------------------------------------- Iteration      1(   6)  ---------------------------------------


    POTLOK:  cpu time    1.1687: real time    1.1712
    SETDIJ:  cpu time    0.0173: real time    0.0176
    EDDIAG:  cpu time    1.1017: real time    1.1031
  RMM-DIIS:  cpu time    6.8978: real time    6.9037
    ORTHCH:  cpu time    0.0593: real time    0.0595
       DOS:  cpu time    0.0004: real time    0.0004
    CHARGE:  cpu time    0.6747: real time    0.6748
    MIXING:  cpu time    0.0229: real time    0.0229
    --------------------------------------------
      LOOP:  cpu time    9.9428: real time    9.9532

 eigenvalue-minimisations  :   428
 total energy-change (2. order) : 0.4084393E+00  (-0.1227580E+02)
 number of electron     153.0000001 magnetization       1.0000000
 augmentation part       95.7184345 magnetization       0.1057224

 Broyden mixing:
  rms(total) = 0.16015E+01    rms(broyden)= 0.16013E+01
  rms(prec ) = 0.18485E+01
  weight for this iteration     100.00

 eigenvalues of (default mixing * dielectric matrix)
  average eigenvalue GAMMA=   0.6058
  0.6058

 Free energy of the ion-electron system (eV)
  ---------------------------------------------------
  alpha Z        PSCENC =        41.16232785
  Ewald energy   TEWEN  =     16298.58433721
  -Hartree energ DENC   =    -33071.61923236
  -exchange      EXHF   =         0.00000000
  -V(xc)+E(xc)   XCENC  =       611.10910358
  PAW double counting   =     16684.67137065   -18008.34670515
  entropy T*S    EENTRO =         0.00610355
  eigenvalues    EBANDS =     -1274.40588188
  atomic energy  EATOM  =     18662.21924712
  Solvation  Ediel_sol  =         0.00000000
  ---------------------------------------------------
  free energy    TOTEN  =       -56.61932943 eV

  energy without entropy =      -56.62543298  energy(sigma->0) =      -56.62136395


--------------------------------------------------------------------------------------------------------




--------------------------------------- Iteration      1(   7)  ---------------------------------------


    POTLOK:  cpu time    1.1670: real time    1.1683
    SETDIJ:  cpu time    0.0180: real time    0.0180
    EDDIAG:  cpu time    1.1040: real time    1.1046
  RMM-DIIS:  cpu time    6.2294: real time    6.2323
    ORTHCH:  cpu time    0.0597: real time    0.0597
       DOS:  cpu time    0.0004: real time    0.0004
    CHARGE:  cpu time    0.6455: real time    0.6458
    MIXING:  cpu time    0.0242: real time    0.0242
    --------------------------------------------
      LOOP:  cpu time    9.2482: real time    9.2532

 eigenvalue-minimisations  :   376
 total energy-change (2. order) : 0.7597623E+01  (-0.2549993E+01)
 number of electron     153.0000001 magnetization       1.0000000
 augmentation part       92.9354561 magnetization       0.1272671

 Broyden mixing:
  rms(total) = 0.39860E+00    rms(broyden)= 0.39857E+00
  rms(prec ) = 0.49645E+00
  weight for this iteration     100.00

 eigenvalues of (default mixing * dielectric matrix)
  average eigenvalue GAMMA=   0.9169
  1.1607  0.6730

 Free energy of the ion-electron system (eV)
  ---------------------------------------------------
  alpha Z        PSCENC =        41.16232785
  Ewald energy   TEWEN  =     16298.58433721
  -Hartree energ DENC   =    -33205.62964637
  -exchange      EXHF   =         0.00000000
  -V(xc)+E(xc)   XCENC  =       615.46131009
  PAW double counting   =     17017.69371057   -18390.71308684
  entropy T*S    EENTRO =         0.00747469
  eigenvalues    EBANDS =     -1087.80738033
  atomic energy  EATOM  =     18662.21924712
  Solvation  Ediel_sol  =         0.00000000
  ---------------------------------------------------
  free energy    TOTEN  =       -49.02170601 eV

  energy without entropy =      -49.02918070  energy(sigma->0) =      -49.02419757


--------------------------------------------------------------------------------------------------------




--------------------------------------- Iteration      1(   8)  ---------------------------------------


    POTLOK:  cpu time    1.1699: real time    1.1713
    SETDIJ:  cpu time    0.0169: real time    0.0169
    EDDIAG:  cpu time    1.1022: real time    1.1030
  RMM-DIIS:  cpu time    6.7609: real time    6.7652
    ORTHCH:  cpu time    0.0596: real time    0.0596
       DOS:  cpu time    0.0003: real time    0.0003
    CHARGE:  cpu time    0.6566: real time    0.6567
    MIXING:  cpu time    0.0250: real time    0.0253
    --------------------------------------------
      LOOP:  cpu time    9.7914: real time    9.7984

 eigenvalue-minimisations  :   423
 total energy-change (2. order) : 0.2793282E+00  (-0.4452242E+00)
 number of electron     153.0000001 magnetization       1.0000000
 augmentation part       92.0982124 magnetization       0.1300495

 Broyden mixing:
  rms(total) = 0.31368E+00    rms(broyden)= 0.31366E+00
  rms(prec ) = 0.35508E+00
  weight for this iteration     100.00

 eigenvalues of (default mixing * dielectric matrix)
  average eigenvalue GAMMA=   0.9068
  1.3064  0.7070  0.7070

 Free energy of the ion-electron system (eV)
  ---------------------------------------------------
  alpha Z        PSCENC =        41.16232785
  Ewald energy   TEWEN  =     16298.58433721
  -Hartree energ DENC   =    -33255.53533135
  -exchange      EXHF   =         0.00000000
  -V(xc)+E(xc)   XCENC  =       615.92982388
  PAW double counting   =     17362.22817221   -18755.03079525
  entropy T*S    EENTRO =         0.00865046
  eigenvalues    EBANDS =     -1018.30880998
  atomic energy  EATOM  =     18662.21924712
  Solvation  Ediel_sol  =         0.00000000
  ---------------------------------------------------
  free energy    TOTEN  =       -48.74237786 eV

  energy without entropy =      -48.75102831  energy(sigma->0) =      -48.74526134


--------------------------------------------------------------------------------------------------------




--------------------------------------- Iteration      1(   9)  ---------------------------------------


    POTLOK:  cpu time    1.1674: real time    1.1698
    SETDIJ:  cpu time    0.0173: real time    0.0173
    EDDIAG:  cpu time    1.1017: real time    1.1029
  RMM-DIIS:  cpu time    6.7336: real time    6.7373
    ORTHCH:  cpu time    0.0597: real time    0.0597
       DOS:  cpu time    0.0004: real time    0.0004
    CHARGE:  cpu time    0.6574: real time    0.6576
    MIXING:  cpu time    0.0246: real time    0.0246
    --------------------------------------------
      LOOP:  cpu time    9.7622: real time    9.7697

 eigenvalue-minimisations  :   407
 total energy-change (2. order) : 0.4546219E-01  (-0.1072899E+00)
 number of electron     153.0000001 magnetization       1.0000000
 augmentation part       92.2961168 magnetization       0.1156990

 Broyden mixing:
  rms(total) = 0.19489E+00    rms(broyden)= 0.19488E+00
  rms(prec ) = 0.23165E+00
  weight for this iteration     100.00

 eigenvalues of (default mixing * dielectric matrix)
  average eigenvalue GAMMA=   1.0196
  2.0504  0.7696  0.7696  0.4890

 Free energy of the ion-electron system (eV)
  ---------------------------------------------------
  alpha Z        PSCENC =        41.16232785
  Ewald energy   TEWEN  =     16298.58433721
  -Hartree energ DENC   =    -33253.45482566
  -exchange      EXHF   =         0.00000000
  -V(xc)+E(xc)   XCENC  =       615.47104902
  PAW double counting   =     17461.22422105   -18855.69723827
  entropy T*S    EENTRO =         0.00888307
  eigenvalues    EBANDS =     -1018.21491706
  atomic energy  EATOM  =     18662.21924712
  Solvation  Ediel_sol  =         0.00000000
  ---------------------------------------------------
  free energy    TOTEN  =       -48.69691567 eV

  energy without entropy =      -48.70579874  energy(sigma->0) =      -48.69987669


--------------------------------------------------------------------------------------------------------




--------------------------------------- Iteration      1(  10)  ---------------------------------------


    POTLOK:  cpu time    1.1681: real time    1.1708
    SETDIJ:  cpu time    0.0174: real time    0.0174
    EDDIAG:  cpu time    1.0987: real time    1.0999
  RMM-DIIS:  cpu time    6.8256: real time    6.8296
    ORTHCH:  cpu time    0.0562: real time    0.0562
       DOS:  cpu time    0.0004: real time    0.0004
    CHARGE:  cpu time    0.6547: real time    0.6548
    MIXING:  cpu time    0.0250: real time    0.0250
    --------------------------------------------
      LOOP:  cpu time    9.8461: real time    9.8541

 eigenvalue-minimisations  :   415
 total energy-change (2. order) : 0.6812101E-01  (-0.2311280E-01)
 number of electron     153.0000001 magnetization       1.0000000
 augmentation part       92.4665856 magnetization       0.1053242

 Broyden mixing:
  rms(total) = 0.62868E-01    rms(broyden)= 0.62863E-01
  rms(prec ) = 0.81579E-01
  weight for this iteration     100.00

 eigenvalues of (default mixing * dielectric matrix)
  average eigenvalue GAMMA=   1.0250
  2.0765  1.0257  0.7749  0.7749  0.4729

 Free energy of the ion-electron system (eV)
  ---------------------------------------------------
  alpha Z        PSCENC =        41.16232785
  Ewald energy   TEWEN  =     16298.58433721
  -Hartree energ DENC   =    -33252.17263095
  -exchange      EXHF   =         0.00000000
  -V(xc)+E(xc)   XCENC  =       615.04862521
  PAW double counting   =     17565.26511194   -18961.50985485
  entropy T*S    EENTRO =         0.00855247
  eigenvalues    EBANDS =     -1017.23451066
  atomic energy  EATOM  =     18662.21924712
  Solvation  Ediel_sol  =         0.00000000
  ---------------------------------------------------
  free energy    TOTEN  =       -48.62879466 eV

  energy without entropy =      -48.63734713  energy(sigma->0) =      -48.63164549


--------------------------------------------------------------------------------------------------------




--------------------------------------- Iteration      1(  11)  ---------------------------------------


    POTLOK:  cpu time    1.1694: real time    1.1717
    SETDIJ:  cpu time    0.0174: real time    0.0174
    EDDIAG:  cpu time    1.0987: real time    1.0992
  RMM-DIIS:  cpu time    6.7937: real time    6.7964
    ORTHCH:  cpu time    0.0568: real time    0.0568
       DOS:  cpu time    0.0004: real time    0.0004
    CHARGE:  cpu time    0.6554: real time    0.6554
    MIXING:  cpu time    0.0264: real time    0.0264
    --------------------------------------------
      LOOP:  cpu time    9.8181: real time    9.8237

 eigenvalue-minimisations  :   424
 total energy-change (2. order) : 0.9741780E-02  (-0.8185488E-02)
 number of electron     153.0000001 magnetization       1.0000000
 augmentation part       92.4012400 magnetization       0.1069773

 Broyden mixing:
  rms(total) = 0.44688E-01    rms(broyden)= 0.44685E-01
  rms(prec ) = 0.57054E-01
  weight for this iteration     100.00

 eigenvalues of (default mixing * dielectric matrix)
  average eigenvalue GAMMA=   1.0268
  2.1307  1.4241  0.7704  0.7704  0.5896  0.4755

 Free energy of the ion-electron system (eV)
  ---------------------------------------------------
  alpha Z        PSCENC =        41.16232785
  Ewald energy   TEWEN  =     16298.58433721
  -Hartree energ DENC   =    -33259.74630062
  -exchange      EXHF   =         0.00000000
  -V(xc)+E(xc)   XCENC  =       615.16729085
  PAW double counting   =     17609.90178281   -19008.19635653
  entropy T*S    EENTRO =         0.00882168
  eigenvalues    EBANDS =     -1007.72020326
  atomic energy  EATOM  =     18662.21924712
  Solvation  Ediel_sol  =         0.00000000
  ---------------------------------------------------
  free energy    TOTEN  =       -48.61905288 eV

  energy without entropy =      -48.62787457  energy(sigma->0) =      -48.62199344


--------------------------------------------------------------------------------------------------------




--------------------------------------- Iteration      1(  12)  ---------------------------------------


    POTLOK:  cpu time    1.1687: real time    1.1696
    SETDIJ:  cpu time    0.0174: real time    0.0174
    EDDIAG:  cpu time    1.1005: real time    1.1010
  RMM-DIIS:  cpu time    7.1593: real time    7.1624
    ORTHCH:  cpu time    0.0560: real time    0.0560
       DOS:  cpu time    0.0004: real time    0.0004
    CHARGE:  cpu time    0.6556: real time    0.6560
    MIXING:  cpu time    0.0274: real time    0.0274
    --------------------------------------------
      LOOP:  cpu time   10.1853: real time   10.1902

 eigenvalue-minimisations  :   418
 total energy-change (2. order) : 0.3225175E-02  (-0.2127695E-02)
 number of electron     153.0000001 magnetization       1.0000000
 augmentation part       92.4068205 magnetization       0.1067972

 Broyden mixing:
  rms(total) = 0.19564E-01    rms(broyden)= 0.19563E-01
  rms(prec ) = 0.31151E-01
  weight for this iteration     100.00

 eigenvalues of (default mixing * dielectric matrix)
  average eigenvalue GAMMA=   1.0678
  2.3884  1.6747  0.9972  0.7076  0.7076  0.5473  0.4517

 Free energy of the ion-electron system (eV)
  ---------------------------------------------------
  alpha Z        PSCENC =        41.16232785
  Ewald energy   TEWEN  =     16298.58433721
  -Hartree energ DENC   =    -33262.48227169
  -exchange      EXHF   =         0.00000000
  -V(xc)+E(xc)   XCENC  =       615.20164686
  PAW double counting   =     17618.86934822   -19017.51452494
  entropy T*S    EENTRO =         0.00868217
  eigenvalues    EBANDS =     -1004.66462050
  atomic energy  EATOM  =     18662.21924712
  Solvation  Ediel_sol  =         0.00000000
  ---------------------------------------------------
  free energy    TOTEN  =       -48.61582771 eV

  energy without entropy =      -48.62450987  energy(sigma->0) =      -48.61872176


--------------------------------------------------------------------------------------------------------




--------------------------------------- Iteration      1(  13)  ---------------------------------------


    POTLOK:  cpu time    1.1703: real time    1.1707
    SETDIJ:  cpu time    0.0173: real time    0.0173
    EDDIAG:  cpu time    1.1002: real time    1.1011
  RMM-DIIS:  cpu time    7.0090: real time    7.0123
    ORTHCH:  cpu time    0.0559: real time    0.0559
       DOS:  cpu time    0.0005: real time    0.0005
    CHARGE:  cpu time    0.6566: real time    0.6569
    MIXING:  cpu time    0.0290: real time    0.0290
    --------------------------------------------
      LOOP:  cpu time   10.0388: real time   10.0437

 eigenvalue-minimisations  :   435
 total energy-change (2. order) : 0.1133911E-02  (-0.5968036E-03)
 number of electron     153.0000001 magnetization       1.0000000
 augmentation part       92.4188829 magnetization       0.1069438

 Broyden mixing:
  rms(total) = 0.95574E-02    rms(broyden)= 0.95570E-02
  rms(prec ) = 0.19695E-01
  weight for this iteration     100.00

 eigenvalues of (default mixing * dielectric matrix)
  average eigenvalue GAMMA=   1.1009
  2.4406  1.8132  1.3289  0.7614  0.7614  0.7347  0.5254  0.4418

 Free energy of the ion-electron system (eV)
  ---------------------------------------------------
  alpha Z        PSCENC =        41.16232785
  Ewald energy   TEWEN  =     16298.58433721
  -Hartree energ DENC   =    -33266.38896373
  -exchange      EXHF   =         0.00000000
  -V(xc)+E(xc)   XCENC  =       615.21547398
  PAW double counting   =     17625.03184111   -19023.78193325
  entropy T*S    EENTRO =         0.00870622
  eigenvalues    EBANDS =     -1000.66573031
  atomic energy  EATOM  =     18662.21924712
  Solvation  Ediel_sol  =         0.00000000
  ---------------------------------------------------
  free energy    TOTEN  =       -48.61469380 eV

  energy without entropy =      -48.62340002  energy(sigma->0) =      -48.61759587


--------------------------------------------------------------------------------------------------------




--------------------------------------- Iteration      1(  14)  ---------------------------------------


    POTLOK:  cpu time    1.1688: real time    1.1723
    SETDIJ:  cpu time    0.0175: real time    0.0175
    EDDIAG:  cpu time    1.1003: real time    1.1012
  RMM-DIIS:  cpu time    6.6017: real time    6.6050
    ORTHCH:  cpu time    0.0565: real time    0.0565
       DOS:  cpu time    0.0004: real time    0.0004
    CHARGE:  cpu time    0.6564: real time    0.6566
    MIXING:  cpu time    0.0290: real time    0.0290
    --------------------------------------------
      LOOP:  cpu time    9.6304: real time    9.6384

 eigenvalue-minimisations  :   410
 total energy-change (2. order) :-0.1061113E-02  (-0.3272007E-03)
 number of electron     153.0000001 magnetization       1.0000000
 augmentation part       92.4267258 magnetization       0.1072990

 Broyden mixing:
  rms(total) = 0.11310E-01    rms(broyden)= 0.11310E-01
  rms(prec ) = 0.17384E-01
  weight for this iteration     100.00

 eigenvalues of (default mixing * dielectric matrix)
  average eigenvalue GAMMA=   1.1227
  2.3387  2.3387  1.4153  0.9166  0.7340  0.7340  0.6904  0.4909  0.4461

 Free energy of the ion-electron system (eV)
  ---------------------------------------------------
  alpha Z        PSCENC =        41.16232785
  Ewald energy   TEWEN  =     16298.58433721
  -Hartree energ DENC   =    -33271.08949253
  -exchange      EXHF   =         0.00000000
  -V(xc)+E(xc)   XCENC  =       615.24490513
  PAW double counting   =     17619.45588853   -19017.94770646
  entropy T*S    EENTRO =         0.00873615
  eigenvalues    EBANDS =      -996.25399790
  atomic energy  EATOM  =     18662.21924712
  Solvation  Ediel_sol  =         0.00000000
  ---------------------------------------------------
  free energy    TOTEN  =       -48.61575491 eV

  energy without entropy =      -48.62449106  energy(sigma->0) =      -48.61866696


--------------------------------------------------------------------------------------------------------




--------------------------------------- Iteration      1(  15)  ---------------------------------------


    POTLOK:  cpu time    1.1701: real time    1.1718
    SETDIJ:  cpu time    0.0181: real time    0.0181
    EDDIAG:  cpu time    1.1006: real time    1.1016
  RMM-DIIS:  cpu time    6.7380: real time    6.7412
    ORTHCH:  cpu time    0.0557: real time    0.0557
       DOS:  cpu time    0.0004: real time    0.0004
    CHARGE:  cpu time    0.6552: real time    0.6552
    MIXING:  cpu time    0.0292: real time    0.0294
    --------------------------------------------
      LOOP:  cpu time    9.7673: real time    9.7734

 eigenvalue-minimisations  :   404
 total energy-change (2. order) :-0.1058241E-02  (-0.1535436E-03)
 number of electron     153.0000001 magnetization       1.0000000
 augmentation part       92.4216523 magnetization       0.1075230

 Broyden mixing:
  rms(total) = 0.62358E-02    rms(broyden)= 0.62356E-02
  rms(prec ) = 0.10820E-01
  weight for this iteration     100.00

 eigenvalues of (default mixing * dielectric matrix)
  average eigenvalue GAMMA=   1.1641
  2.6368  2.6368  1.3211  1.3211  0.7447  0.7447  0.7736  0.5474  0.4706  0.4448

 Free energy of the ion-electron system (eV)
  ---------------------------------------------------
  alpha Z        PSCENC =        41.16232785
  Ewald energy   TEWEN  =     16298.58433721
  -Hartree energ DENC   =    -33274.50526300
  -exchange      EXHF   =         0.00000000
  -V(xc)+E(xc)   XCENC  =       615.28065613
  PAW double counting   =     17614.31329876   -19012.69279461
  entropy T*S    EENTRO =         0.00871717
  eigenvalues    EBANDS =      -992.98733977
  atomic energy  EATOM  =     18662.21924712
  Solvation  Ediel_sol  =         0.00000000
  ---------------------------------------------------
  free energy    TOTEN  =       -48.61681315 eV

  energy without entropy =      -48.62553032  energy(sigma->0) =      -48.61971887


--------------------------------------------------------------------------------------------------------




--------------------------------------- Iteration      1(  16)  ---------------------------------------


    POTLOK:  cpu time    1.1705: real time    1.1709
    SETDIJ:  cpu time    0.0175: real time    0.0175
    EDDIAG:  cpu time    1.0991: real time    1.0995
  RMM-DIIS:  cpu time    6.1901: real time    6.1927
    ORTHCH:  cpu time    0.0557: real time    0.0558
       DOS:  cpu time    0.0005: real time    0.0005
    CHARGE:  cpu time    0.6540: real time    0.6544
    MIXING:  cpu time    0.0310: real time    0.0310
    --------------------------------------------
      LOOP:  cpu time    9.2184: real time    9.2222

 eigenvalue-minimisations  :   391
 total energy-change (2. order) :-0.1486991E-02  (-0.1152666E-03)
 number of electron     153.0000001 magnetization       1.0000000
 augmentation part       92.4164985 magnetization       0.1077019

 Broyden mixing:
  rms(total) = 0.56063E-02    rms(broyden)= 0.56059E-02
  rms(prec ) = 0.82414E-02
  weight for this iteration     100.00

 eigenvalues of (default mixing * dielectric matrix)
  average eigenvalue GAMMA=   1.2032
  3.1563  2.6086  1.4778  1.4778  0.7478  0.7478  0.8015  0.7877  0.4409  0.4946
  0.4946

 Free energy of the ion-electron system (eV)
  ---------------------------------------------------
  alpha Z        PSCENC =        41.16232785
  Ewald energy   TEWEN  =     16298.58433721
  -Hartree energ DENC   =    -33277.38929278
  -exchange      EXHF   =         0.00000000
  -V(xc)+E(xc)   XCENC  =       615.31050133
  PAW double counting   =     17609.99659987   -19008.31033827
  entropy T*S    EENTRO =         0.00876177
  eigenvalues    EBANDS =      -990.20044425
  atomic energy  EATOM  =     18662.21924712
  Solvation  Ediel_sol  =         0.00000000
  ---------------------------------------------------
  free energy    TOTEN  =       -48.61830014 eV

  energy without entropy =      -48.62706192  energy(sigma->0) =      -48.62122073


--------------------------------------------------------------------------------------------------------




--------------------------------------- Iteration      1(  17)  ---------------------------------------


    POTLOK:  cpu time    1.1725: real time    1.1728
    SETDIJ:  cpu time    0.0180: real time    0.0180
    EDDIAG:  cpu time    1.0982: real time    1.0987
  RMM-DIIS:  cpu time    6.6485: real time    6.6516
    ORTHCH:  cpu time    0.0557: real time    0.0557
       DOS:  cpu time    0.0005: real time    0.0005
    CHARGE:  cpu time    0.6526: real time    0.6531
    MIXING:  cpu time    0.0316: real time    0.0316
    --------------------------------------------
      LOOP:  cpu time    9.6776: real time    9.6819

 eigenvalue-minimisations  :   389
 total energy-change (2. order) :-0.1655925E-02  (-0.5590856E-04)
 number of electron     153.0000001 magnetization       1.0000000
 augmentation part       92.4187723 magnetization       0.1075945

 Broyden mixing:
  rms(total) = 0.28279E-02    rms(broyden)= 0.28279E-02
  rms(prec ) = 0.46098E-02
  weight for this iteration     100.00

 eigenvalues of (default mixing * dielectric matrix)
  average eigenvalue GAMMA=   1.3030
  4.1350  2.5800  1.9600  1.5194  0.9985  0.8711  0.7447  0.7447  0.6557  0.5083
  0.4430  0.4751

 Free energy of the ion-electron system (eV)
  ---------------------------------------------------
  alpha Z        PSCENC =        41.16232785
  Ewald energy   TEWEN  =     16298.58433721
  -Hartree energ DENC   =    -33279.51529047
  -exchange      EXHF   =         0.00000000
  -V(xc)+E(xc)   XCENC  =       615.32051635
  PAW double counting   =     17607.82601571   -19006.09108937
  entropy T*S    EENTRO =         0.00876322
  eigenvalues    EBANDS =      -988.13478369
  atomic energy  EATOM  =     18662.21924712
  Solvation  Ediel_sol  =         0.00000000
  ---------------------------------------------------
  free energy    TOTEN  =       -48.61995607 eV

  energy without entropy =      -48.62871929  energy(sigma->0) =      -48.62287714


--------------------------------------------------------------------------------------------------------




--------------------------------------- Iteration      1(  18)  ---------------------------------------


    POTLOK:  cpu time    1.1724: real time    1.1746
    SETDIJ:  cpu time    0.0174: real time    0.0174
    EDDIAG:  cpu time    1.1005: real time    1.1009
  RMM-DIIS:  cpu time    6.4615: real time    6.4646
    ORTHCH:  cpu time    0.0566: real time    0.0566
       DOS:  cpu time    0.0004: real time    0.0004
    CHARGE:  cpu time    0.6536: real time    0.6538
    MIXING:  cpu time    0.0329: real time    0.0329
    --------------------------------------------
      LOOP:  cpu time    9.4955: real time    9.5012

 eigenvalue-minimisations  :   397
 total energy-change (2. order) :-0.9233048E-03  (-0.2536530E-04)
 number of electron     153.0000001 magnetization       1.0000000
 augmentation part       92.4193656 magnetization       0.1076879

 Broyden mixing:
  rms(total) = 0.18782E-02    rms(broyden)= 0.18781E-02
  rms(prec ) = 0.30386E-02
  weight for this iteration     100.00

 eigenvalues of (default mixing * dielectric matrix)
  average eigenvalue GAMMA=   1.3355
  4.9093  2.6242  2.1673  1.2545  1.2545  0.8345  0.8345  0.7463  0.7463  0.5781
  0.5036  0.4430  0.4647

 Free energy of the ion-electron system (eV)
  ---------------------------------------------------
  alpha Z        PSCENC =        41.16232785
  Ewald energy   TEWEN  =     16298.58433721
  -Hartree energ DENC   =    -33280.50182908
  -exchange      EXHF   =         0.00000000
  -V(xc)+E(xc)   XCENC  =       615.32163143
  PAW double counting   =     17607.46584469   -19005.73059618
  entropy T*S    EENTRO =         0.00876686
  eigenvalues    EBANDS =      -987.15060927
  atomic energy  EATOM  =     18662.21924712
  Solvation  Ediel_sol  =         0.00000000
  ---------------------------------------------------
  free energy    TOTEN  =       -48.62087937 eV

  energy without entropy =      -48.62964623  energy(sigma->0) =      -48.62380166


--------------------------------------------------------------------------------------------------------




--------------------------------------- Iteration      1(  19)  ---------------------------------------


    POTLOK:  cpu time    1.1734: real time    1.1739
    SETDIJ:  cpu time    0.0173: real time    0.0173
    EDDIAG:  cpu time    1.1000: real time    1.1007
  RMM-DIIS:  cpu time    6.8940: real time    6.8968
    ORTHCH:  cpu time    0.0561: real time    0.0561
       DOS:  cpu time    0.0004: real time    0.0004
    CHARGE:  cpu time    0.6532: real time    0.6535
    MIXING:  cpu time    0.0338: real time    0.0338
    --------------------------------------------
      LOOP:  cpu time    9.9282: real time    9.9324

 eigenvalue-minimisations  :   432
 total energy-change (2. order) :-0.7416864E-03  (-0.1642086E-04)
 number of electron     153.0000001 magnetization       1.0000000
 augmentation part       92.4167057 magnetization       0.1077073

 Broyden mixing:
  rms(total) = 0.12477E-02    rms(broyden)= 0.12476E-02
  rms(prec ) = 0.21320E-02
  weight for this iteration     100.00

 eigenvalues of (default mixing * dielectric matrix)
  average eigenvalue GAMMA=   1.4089
  5.7101  2.7394  2.2044  1.5296  1.5296  0.9430  0.9430  0.7421  0.7421  0.6715
  0.5593  0.4985  0.4423  0.4699

 Free energy of the ion-electron system (eV)
  ---------------------------------------------------
  alpha Z        PSCENC =        41.16232785
  Ewald energy   TEWEN  =     16298.58433721
  -Hartree energ DENC   =    -33281.22195025
  -exchange      EXHF   =         0.00000000
  -V(xc)+E(xc)   XCENC  =       615.32380350
  PAW double counting   =     17607.73442445   -19006.03352043
  entropy T*S    EENTRO =         0.00876683
  eigenvalues    EBANDS =      -986.39905734
  atomic energy  EATOM  =     18662.21924712
  Solvation  Ediel_sol  =         0.00000000
  ---------------------------------------------------
  free energy    TOTEN  =       -48.62162106 eV

  energy without entropy =      -48.63038789  energy(sigma->0) =      -48.62454333


--------------------------------------------------------------------------------------------------------




--------------------------------------- Iteration      1(  20)  ---------------------------------------


    POTLOK:  cpu time    1.1711: real time    1.1719
    SETDIJ:  cpu time    0.0181: real time    0.0181
    EDDIAG:  cpu time    1.0993: real time    1.1002
  RMM-DIIS:  cpu time    6.8709: real time    6.8739
    ORTHCH:  cpu time    0.0566: real time    0.0568
       DOS:  cpu time    0.0005: real time    0.0005
    CHARGE:  cpu time    0.6517: real time    0.6517
    MIXING:  cpu time    0.0368: real time    0.0368
    --------------------------------------------
      LOOP:  cpu time    9.9050: real time    9.9098

 eigenvalue-minimisations  :   425
 total energy-change (2. order) :-0.5657007E-03  (-0.4859692E-05)
 number of electron     153.0000001 magnetization       1.0000000
 augmentation part       92.4174450 magnetization       0.1077084

 Broyden mixing:
  rms(total) = 0.82002E-03    rms(broyden)= 0.81998E-03
  rms(prec ) = 0.13995E-02
  weight for this iteration     100.00

 eigenvalues of (default mixing * dielectric matrix)
  average eigenvalue GAMMA=   1.4434
  6.3359  2.8214  2.2788  1.9372  1.4523  1.0012  0.8661  0.8661  0.7525  0.7525
  0.6471  0.4428  0.5144  0.5144  0.4692

 Free energy of the ion-electron system (eV)
  ---------------------------------------------------
  alpha Z        PSCENC =        41.16232785
  Ewald energy   TEWEN  =     16298.58433721
  -Hartree energ DENC   =    -33281.35118667
  -exchange      EXHF   =         0.00000000
  -V(xc)+E(xc)   XCENC  =       615.32226997
  PAW double counting   =     17607.86823200   -19006.17020938
  entropy T*S    EENTRO =         0.00876225
  eigenvalues    EBANDS =      -986.26596711
  atomic energy  EATOM  =     18662.21924712
  Solvation  Ediel_sol  =         0.00000000
  ---------------------------------------------------
  free energy    TOTEN  =       -48.62218676 eV

  energy without entropy =      -48.63094901  energy(sigma->0) =      -48.62510751


--------------------------------------------------------------------------------------------------------




--------------------------------------- Iteration      1(  21)  ---------------------------------------


    POTLOK:  cpu time    1.1706: real time    1.1721
    SETDIJ:  cpu time    0.0178: real time    0.0178
    EDDIAG:  cpu time    1.0996: real time    1.1002
  RMM-DIIS:  cpu time    6.6271: real time    6.6307
    ORTHCH:  cpu time    0.0571: real time    0.0571
       DOS:  cpu time    0.0004: real time    0.0004
    CHARGE:  cpu time    0.6546: real time    0.6551
    MIXING:  cpu time    0.0372: real time    0.0372
    --------------------------------------------
      LOOP:  cpu time    9.6646: real time    9.6707

 eigenvalue-minimisations  :   402
 total energy-change (2. order) :-0.4087314E-03  (-0.3049928E-05)
 number of electron     153.0000001 magnetization       1.0000000
 augmentation part       92.4188050 magnetization       0.1077131

 Broyden mixing:
  rms(total) = 0.56465E-03    rms(broyden)= 0.56459E-03
  rms(prec ) = 0.93256E-03
  weight for this iteration     100.00

 eigenvalues of (default mixing * dielectric matrix)
  average eigenvalue GAMMA=   1.4905
  6.6206  3.1818  2.4040  2.1579  1.3852  1.3852  0.9610  0.9610  0.7521  0.7521
  0.6985  0.6496  0.4427  0.5262  0.5019  0.4674

 Free energy of the ion-electron system (eV)
  ---------------------------------------------------
  alpha Z        PSCENC =        41.16232785
  Ewald energy   TEWEN  =     16298.58433721
  -Hartree energ DENC   =    -33281.32751558
  -exchange      EXHF   =         0.00000000
  -V(xc)+E(xc)   XCENC  =       615.32007597
  PAW double counting   =     17608.02471920   -19006.31959469
  entropy T*S    EENTRO =         0.00875790
  eigenvalues    EBANDS =      -986.29495048
  atomic energy  EATOM  =     18662.21924712
  Solvation  Ediel_sol  =         0.00000000
  ---------------------------------------------------
  free energy    TOTEN  =       -48.62259549 eV

  energy without entropy =      -48.63135339  energy(sigma->0) =      -48.62551479


--------------------------------------------------------------------------------------------------------




--------------------------------------- Iteration      1(  22)  ---------------------------------------


    POTLOK:  cpu time    1.1726: real time    1.1755
    SETDIJ:  cpu time    0.0176: real time    0.0176
    EDDIAG:  cpu time    1.0999: real time    1.1006
  RMM-DIIS:  cpu time    6.5105: real time    6.5137
    ORTHCH:  cpu time    0.0575: real time    0.0575
       DOS:  cpu time    0.0004: real time    0.0004
    CHARGE:  cpu time    0.6540: real time    0.6543
    MIXING:  cpu time    0.0392: real time    0.0392
    --------------------------------------------
      LOOP:  cpu time    9.5517: real time    9.5590

 eigenvalue-minimisations  :   393
 total energy-change (2. order) :-0.3164561E-03  (-0.2352738E-05)
 number of electron     153.0000001 magnetization       1.0000000
 augmentation part       92.4188777 magnetization       0.1077477

 Broyden mixing:
  rms(total) = 0.38550E-03    rms(broyden)= 0.38549E-03
  rms(prec ) = 0.60760E-03
  weight for this iteration     100.00

 eigenvalues of (default mixing * dielectric matrix)
  average eigenvalue GAMMA=   1.5455
  7.0623  3.9581  2.5093  2.1354  1.5640  1.5640  0.9701  0.9701  0.7666  0.7666
  0.7291  0.7291  0.6094  0.4426  0.5284  0.5003  0.4684

 Free energy of the ion-electron system (eV)
  ---------------------------------------------------
  alpha Z        PSCENC =        41.16232785
  Ewald energy   TEWEN  =     16298.58433721
  -Hartree energ DENC   =    -33281.40451820
  -exchange      EXHF   =         0.00000000
  -V(xc)+E(xc)   XCENC  =       615.31883859
  PAW double counting   =     17608.23545297   -19006.53024423
  entropy T*S    EENTRO =         0.00876045
  eigenvalues    EBANDS =      -986.21711369
  atomic energy  EATOM  =     18662.21924712
  Solvation  Ediel_sol  =         0.00000000
  ---------------------------------------------------
  free energy    TOTEN  =       -48.62291195 eV

  energy without entropy =      -48.63167239  energy(sigma->0) =      -48.62583209


--------------------------------------------------------------------------------------------------------




--------------------------------------- Iteration      1(  23)  ---------------------------------------


    POTLOK:  cpu time    1.1696: real time    1.1706
    SETDIJ:  cpu time    0.0176: real time    0.0176
    EDDIAG:  cpu time    1.0999: real time    1.1009
  RMM-DIIS:  cpu time    6.7888: real time    6.7920
    ORTHCH:  cpu time    0.0570: real time    0.0570
       DOS:  cpu time    0.0005: real time    0.0004
    CHARGE:  cpu time    0.6541: real time    0.6544
    MIXING:  cpu time    0.0413: real time    0.0413
    --------------------------------------------
      LOOP:  cpu time    9.8289: real time    9.8343

 eigenvalue-minimisations  :   415
 total energy-change (2. order) :-0.1324569E-03  (-0.8257890E-06)
 number of electron     153.0000001 magnetization       1.0000000
 augmentation part       92.4183608 magnetization       0.1077277

 Broyden mixing:
  rms(total) = 0.22848E-03    rms(broyden)= 0.22846E-03
  rms(prec ) = 0.37089E-03
  weight for this iteration     100.00

 eigenvalues of (default mixing * dielectric matrix)
  average eigenvalue GAMMA=   1.5653
  7.4586  4.2276  2.4901  2.1495  1.8669  1.2974  1.2974  0.9692  0.9692  0.7575
  0.7575  0.6918  0.6918  0.6134  0.4427  0.4685  0.5225  0.5035

 Free energy of the ion-electron system (eV)
  ---------------------------------------------------
  alpha Z        PSCENC =        41.16232785
  Ewald energy   TEWEN  =     16298.58433721
  -Hartree energ DENC   =    -33281.47972765
  -exchange      EXHF   =         0.00000000
  -V(xc)+E(xc)   XCENC  =       615.31918544
  PAW double counting   =     17608.30643215   -19006.60603863
  entropy T*S    EENTRO =         0.00876113
  eigenvalues    EBANDS =      -986.13756902
  atomic energy  EATOM  =     18662.21924712
  Solvation  Ediel_sol  =         0.00000000
  ---------------------------------------------------
  free energy    TOTEN  =       -48.62304440 eV

  energy without entropy =      -48.63180553  energy(sigma->0) =      -48.62596478


--------------------------------------------------------------------------------------------------------




--------------------------------------- Iteration      1(  24)  ---------------------------------------


    POTLOK:  cpu time    1.1672: real time    1.1697
    SETDIJ:  cpu time    0.0173: real time    0.0173
    EDDIAG:  cpu time    1.1007: real time    1.1018
  RMM-DIIS:  cpu time    6.3589: real time    6.3628
    ORTHCH:  cpu time    0.0572: real time    0.0572
       DOS:  cpu time    0.0004: real time    0.0004
    CHARGE:  cpu time    0.6551: real time    0.6555
    MIXING:  cpu time    0.0428: real time    0.0428
    --------------------------------------------
      LOOP:  cpu time    9.3996: real time    9.4076

 eigenvalue-minimisations  :   392
 total energy-change (2. order) :-0.1068243E-03  (-0.8058309E-06)
 number of electron     153.0000001 magnetization       1.0000000
 augmentation part       92.4178662 magnetization       0.1077157

 Broyden mixing:
  rms(total) = 0.21689E-03    rms(broyden)= 0.21689E-03
  rms(prec ) = 0.30271E-03
  weight for this iteration     100.00

 eigenvalues of (default mixing * dielectric matrix)
  average eigenvalue GAMMA=   1.5757
  7.7400  4.4985  2.4276  2.3515  1.9082  1.4175  1.4175  0.9975  0.9975  0.7813
  0.7813  0.7293  0.7293  0.6101  0.6101  0.4427  0.4686  0.5018  0.5290

 Free energy of the ion-electron system (eV)
  ---------------------------------------------------
  alpha Z        PSCENC =        41.16232785
  Ewald energy   TEWEN  =     16298.58433721
  -Hartree energ DENC   =    -33281.50897254
  -exchange      EXHF   =         0.00000000
  -V(xc)+E(xc)   XCENC  =       615.31988807
  PAW double counting   =     17608.24673977   -19006.54965447
  entropy T*S    EENTRO =         0.00876130
  eigenvalues    EBANDS =      -986.10582554
  atomic energy  EATOM  =     18662.21924712
  Solvation  Ediel_sol  =         0.00000000
  ---------------------------------------------------
  free energy    TOTEN  =       -48.62315123 eV

  energy without entropy =      -48.63191253  energy(sigma->0) =      -48.62607166


--------------------------------------------------------------------------------------------------------




--------------------------------------- Iteration      1(  25)  ---------------------------------------


    POTLOK:  cpu time    1.1681: real time    1.1689
    SETDIJ:  cpu time    0.0174: real time    0.0174
    EDDIAG:  cpu time    1.1008: real time    1.1019
  RMM-DIIS:  cpu time    6.3911: real time    6.3947
    ORTHCH:  cpu time    0.0569: real time    0.0569
       DOS:  cpu time    0.0004: real time    0.0004
    CHARGE:  cpu time    0.6535: real time    0.6540
    MIXING:  cpu time    0.0449: real time    0.0449
    --------------------------------------------
      LOOP:  cpu time    9.4331: real time    9.4391

 eigenvalue-minimisations  :   390
 total energy-change (2. order) :-0.6798680E-04  (-0.6125006E-06)
 number of electron     153.0000001 magnetization       1.0000000
 augmentation part       92.4181226 magnetization       0.1077357

 Broyden mixing:
  rms(total) = 0.11025E-03    rms(broyden)= 0.11022E-03
  rms(prec ) = 0.16686E-03
  weight for this iteration     100.00

 eigenvalues of (default mixing * dielectric matrix)
  average eigenvalue GAMMA=   1.6320
  8.0051  5.0435  2.6100  2.6100  1.8456  1.8456  1.2846  1.2846  0.9745  0.9745
  0.7599  0.7599  0.7330  0.7330  0.6325  0.6025  0.4427  0.4685  0.5022  0.5276

 Free energy of the ion-electron system (eV)
  ---------------------------------------------------
  alpha Z        PSCENC =        41.16232785
  Ewald energy   TEWEN  =     16298.58433721
  -Hartree energ DENC   =    -33281.49418811
  -exchange      EXHF   =         0.00000000
  -V(xc)+E(xc)   XCENC  =       615.31948543
  PAW double counting   =     17608.14407838   -19006.44185390
  entropy T*S    EENTRO =         0.00876097
  eigenvalues    EBANDS =      -986.12541417
  atomic energy  EATOM  =     18662.21924712
  Solvation  Ediel_sol  =         0.00000000
  ---------------------------------------------------
  free energy    TOTEN  =       -48.62321921 eV

  energy without entropy =      -48.63198019  energy(sigma->0) =      -48.62613954


--------------------------------------------------------------------------------------------------------




--------------------------------------- Iteration      1(  26)  ---------------------------------------


    POTLOK:  cpu time    1.1690: real time    1.1714
    SETDIJ:  cpu time    0.0182: real time    0.0181
    EDDIAG:  cpu time    1.0986: real time    1.0993
  RMM-DIIS:  cpu time    6.2439: real time    6.2478
    ORTHCH:  cpu time    0.0563: real time    0.0563
       DOS:  cpu time    0.0004: real time    0.0004
    CHARGE:  cpu time    0.6527: real time    0.6530
    MIXING:  cpu time    0.0481: real time    0.0481
    --------------------------------------------
      LOOP:  cpu time    9.2871: real time    9.2945

 eigenvalue-minimisations  :   376
 total energy-change (2. order) :-0.3149750E-04  (-0.3185648E-06)
 number of electron     153.0000001 magnetization       1.0000000
 augmentation part       92.4184777 magnetization       0.1077273

 Broyden mixing:
  rms(total) = 0.10394E-03    rms(broyden)= 0.10394E-03
  rms(prec ) = 0.13554E-03
  weight for this iteration     100.00

 eigenvalues of (default mixing * dielectric matrix)
  average eigenvalue GAMMA=   1.6238
  8.1405  5.3044  2.8917  2.5748  1.8757  1.8757  1.3016  1.3016  0.9865  0.9865
  0.7999  0.7999  0.7221  0.7221  0.6397  0.6397  0.5982  0.4427  0.4686  0.5020
  0.5266

 Free energy of the ion-electron system (eV)
  ---------------------------------------------------
  alpha Z        PSCENC =        41.16232785
  Ewald energy   TEWEN  =     16298.58433721
  -Hartree energ DENC   =    -33281.48483300
  -exchange      EXHF   =         0.00000000
  -V(xc)+E(xc)   XCENC  =       615.31904963
  PAW double counting   =     17608.10143390   -19006.39517654
  entropy T*S    EENTRO =         0.00876102
  eigenvalues    EBANDS =      -986.13839790
  atomic energy  EATOM  =     18662.21924712
  Solvation  Ediel_sol  =         0.00000000
  ---------------------------------------------------
  free energy    TOTEN  =       -48.62325071 eV

  energy without entropy =      -48.63201173  energy(sigma->0) =      -48.62617105


--------------------------------------------------------------------------------------------------------




--------------------------------------- Iteration      1(  27)  ---------------------------------------


    POTLOK:  cpu time    1.1681: real time    1.1689
    SETDIJ:  cpu time    0.0181: real time    0.0181
    EDDIAG:  cpu time    1.0979: real time    1.0991
  RMM-DIIS:  cpu time    4.9478: real time    4.9503
    ORTHCH:  cpu time    0.0565: real time    0.0565
       DOS:  cpu time    0.0004: real time    0.0004
    CHARGE:  cpu time    0.6518: real time    0.6521
    MIXING:  cpu time    0.0525: real time    0.0525
    --------------------------------------------
      LOOP:  cpu time    7.9931: real time    7.9979

 eigenvalue-minimisations  :   299
 total energy-change (2. order) :-0.1157995E-04  (-0.1125361E-06)
 number of electron     153.0000001 magnetization       1.0000000
 augmentation part       92.4183401 magnetization       0.1077186

 Broyden mixing:
  rms(total) = 0.67833E-04    rms(broyden)= 0.67830E-04
  rms(prec ) = 0.92439E-04
  weight for this iteration     100.00

 eigenvalues of (default mixing * dielectric matrix)
  average eigenvalue GAMMA=   1.6412
  8.2495  5.6484  3.2121  2.4558  1.9853  1.9853  1.3317  1.3317  1.0283  1.0283
  1.0551  0.7606  0.7606  0.7379  0.7379  0.4427  0.4686  0.5023  0.5255  0.6185
  0.6185  0.6216

 Free energy of the ion-electron system (eV)
  ---------------------------------------------------
  alpha Z        PSCENC =        41.16232785
  Ewald energy   TEWEN  =     16298.58433721
  -Hartree energ DENC   =    -33281.48968861
  -exchange      EXHF   =         0.00000000
  -V(xc)+E(xc)   XCENC  =       615.31921413
  PAW double counting   =     17608.09528078   -19006.39021228
  entropy T*S    EENTRO =         0.00876099
  eigenvalues    EBANDS =      -986.13252948
  atomic energy  EATOM  =     18662.21924712
  Solvation  Ediel_sol  =         0.00000000
  ---------------------------------------------------
  free energy    TOTEN  =       -48.62326229 eV

  energy without entropy =      -48.63202328  energy(sigma->0) =      -48.62618262


--------------------------------------------------------------------------------------------------------




--------------------------------------- Iteration      1(  28)  ---------------------------------------


    POTLOK:  cpu time    1.1703: real time    1.1713
    SETDIJ:  cpu time    0.0175: real time    0.0175
    EDDIAG:  cpu time    1.1003: real time    1.1010
  RMM-DIIS:  cpu time    4.4769: real time    4.4793
    ORTHCH:  cpu time    0.0562: real time    0.0564
       DOS:  cpu time    0.0004: real time    0.0004
    CHARGE:  cpu time    0.6523: real time    0.6525
    MIXING:  cpu time    0.0561: real time    0.0561
[...]
     66      -4.9025      1.00000
     67      -4.8887      1.00000
     68      -4.8728      1.00000
     69      -4.8481      1.00000
     70      -4.8133      1.00000
     71      -4.7938      1.00000
     72      -4.7655      1.00000
     73      -4.7397      1.00000
     74      -4.5310      1.00000
     75      -4.1629      1.00000
     76      -4.0625      1.00000
     77      -3.5184      1.00005
     78      -3.1229     -0.00005
     79      -2.9520     -0.00000
     80      -2.5183     -0.00000
     81      -2.3329     -0.00000
     82      -1.9251     -0.00000
     83      -1.8728     -0.00000
     84      -1.6963     -0.00000
     85      -1.5265     -0.00000
     86      -1.1069     -0.00000
     87      -0.8962     -0.00000
     88      -0.7914     -0.00000
     89      -0.4481      0.00000
     90      -0.2900      0.00000
     91      -0.1076      0.00000
     92       0.1133      0.00000

 spin component 2

 k-point     1 :       0.0000    0.0000    0.0000
  band No.  band energies     occupation 
      1     -28.1537      1.00000
      2     -13.7880      1.00000
      3     -11.1410      1.00000
      4     -10.9379      1.00000
      5     -10.7980      1.00000
      6     -10.1475      1.00000
      7      -8.5239      1.00000
      8      -8.1693      1.00000
      9      -7.6788      1.00000
     10      -7.5823      1.00000
     11      -7.4013      1.00000
     12      -7.2991      1.00000
     13      -7.2272      1.00000
     14      -7.0915      1.00000
     15      -7.0398      1.00000
     16      -6.9572      1.00000
     17      -6.7625      1.00000
     18      -6.6966      1.00000
     19      -6.6439      1.00000
     20      -6.6194      1.00000
     21      -6.5624      1.00000
     22      -6.5340      1.00000
     23      -6.4832      1.00000
     24      -6.4417      1.00000
     25      -6.3435      1.00000
     26      -6.3284      1.00000
     27      -6.2848      1.00000
     28      -6.2517      1.00000
     29      -6.2118      1.00000
     30      -6.1847      1.00000
     31      -6.1509      1.00000
     32      -6.0993      1.00000
     33      -5.9764      1.00000
     34      -5.9593      1.00000
     35      -5.8653      1.00000
     36      -5.8227      1.00000
     37      -5.7311      1.00000
     38      -5.6751      1.00000
     39      -5.6412      1.00000
     40      -5.5917      1.00000
     41      -5.5753      1.00000
     42      -5.5109      1.00000
     43      -5.4692      1.00000
     44      -5.4419      1.00000
     45      -5.3749      1.00000
     46      -5.3530      1.00000
     47      -5.3321      1.00000
     48      -5.3147      1.00000
     49      -5.3002      1.00000
     50      -5.2790      1.00000
     51      -5.2340      1.00000
     52      -5.2285      1.00000
     53      -5.2073      1.00000
     54      -5.1875      1.00000
     55      -5.1647      1.00000
     56      -5.1462      1.00000
     57      -5.1290      1.00000
     58      -5.0930      1.00000
     59      -5.0808      1.00000
     60      -5.0607      1.00000
     61      -5.0326      1.00000
     62      -5.0133      1.00000
     63      -4.9769      1.00000
     64      -4.9528      1.00000
     65      -4.9119      1.00000
     66      -4.8764      1.00000
     67      -4.8665      1.00000
     68      -4.8392      1.00000
     69      -4.8141      1.00000
     70      -4.7878      1.00000
     71      -4.7711      1.00000
     72      -4.7297      1.00000
     73      -4.7014      1.00000
     74      -4.4895      1.00000
     75      -4.0985      1.02655
     76      -4.0202      0.97345
     77      -3.3265     -0.00000
     78      -3.0649     -0.00000
     79      -2.8980     -0.00000
     80      -2.4496     -0.00000
     81      -2.2396     -0.00000
     82      -1.8444     -0.00000
     83      -1.8331     -0.00000
     84      -1.6403     -0.00000
     85      -1.4150     -0.00000
     86      -0.9612      0.00000
     87      -0.8267      0.00000
     88      -0.7383      0.00000
     89      -0.3265      0.00000
     90      -0.2129      0.00000
     91      -0.0597      0.00000
     92       0.1529      0.00000


--------------------------------------------------------------------------------------------------------


 soft charge-density along one line, spin component           1
         0         1         2         3         4         5         6         7         8         9
 total charge-density along one line
 
 soft charge-density along one line, spin component           2
         0         1         2         3         4         5         6         7         8         9
 total charge-density along one line
 
 pseudopotential strength for first ion, spin component:           1
-10.559  -0.005  -0.007   0.000  -0.013   1.053   0.004   0.008
 -0.005 -10.539  -0.009   0.001   0.004   0.004   1.037   0.007
 -0.007  -0.009 -10.525   0.001  -0.006   0.008   0.007   1.025
  0.000   0.001   0.001 -10.529  -0.005  -0.000  -0.003  -0.000
 -0.013   0.004  -0.006  -0.005 -10.546   0.010  -0.003   0.006
  1.053   0.004   0.008  -0.000   0.010   6.267  -0.003  -0.007
  0.004   1.037   0.007  -0.003  -0.003  -0.003   6.275  -0.005
  0.008   0.007   1.025  -0.000   0.006  -0.007  -0.005   6.285
 -0.000  -0.003  -0.000   1.028   0.004   0.000   0.004  -0.000
  0.010  -0.003   0.006   0.004   1.043  -0.007   0.002  -0.005
 -0.005   0.001  -0.005   0.001  -0.003   0.004   0.000  -0.001
 -0.010   0.001  -0.009   0.002  -0.006   0.009   0.000  -0.002
 -0.014   0.003   0.004   0.000   0.008   0.009  -0.001  -0.004
  0.000  -0.006   0.004  -0.013  -0.000   0.000   0.005  -0.002
 -0.004   0.000   0.008   0.003  -0.013   0.003   0.000  -0.006
 -0.015   0.004   0.004  -0.000   0.008   0.010  -0.001  -0.004
 -0.000  -0.005   0.005  -0.013  -0.000   0.001   0.004  -0.002
 -0.003  -0.000   0.009   0.003  -0.014   0.002   0.001  -0.007
 pseudopotential strength for first ion, spin component:           2
-10.513  -0.004  -0.001  -0.006   0.006   1.016   0.003   0.002
 -0.004 -10.523  -0.009   0.000   0.005   0.003   1.023   0.006
 -0.001  -0.009 -10.509   0.000  -0.003   0.002   0.006   1.012
 -0.006   0.000   0.000 -10.513  -0.008   0.005  -0.001   0.000
  0.006   0.005  -0.003  -0.008 -10.524  -0.004  -0.004   0.003
  1.016   0.003   0.002   0.005  -0.004   6.291  -0.002  -0.001
  0.003   1.023   0.006  -0.001  -0.004  -0.002   6.285  -0.005
  0.002   0.006   1.012   0.000   0.003  -0.001  -0.005   6.292
  0.005  -0.001   0.000   1.015   0.006  -0.003   0.001  -0.000
 -0.004  -0.004   0.003   0.006   1.024   0.003   0.002  -0.002
 -0.002   0.002  -0.002   0.001  -0.002   0.001  -0.000  -0.002
 -0.003   0.003  -0.003   0.001  -0.003   0.001  -0.000  -0.003
 -0.015   0.003   0.005   0.000   0.007   0.012  -0.002  -0.005
  0.000  -0.007   0.004  -0.014   0.000   0.000   0.006  -0.003
 -0.008   0.000   0.009   0.004  -0.015   0.007   0.000  -0.008
 -0.017   0.004   0.005   0.000   0.007   0.014  -0.002  -0.006
  0.000  -0.007   0.005  -0.016   0.000   0.000   0.007  -0.003
 -0.009   0.000   0.010   0.005  -0.017   0.008   0.000  -0.009
 total augmentation occupancy for first ion, spin component:           1
  1.933   0.002  -0.006   0.002  -0.005  -0.013   0.001   0.006  -0.001   0.004  -0.012   0.013   0.029   0.003   0.037  -0.020
  0.002   1.929  -0.007   0.005  -0.001   0.001  -0.017   0.007  -0.001  -0.001   0.006  -0.001  -0.001   0.047   0.000   0.003
 -0.006  -0.007   1.946   0.002  -0.003   0.006   0.007  -0.026  -0.004   0.002  -0.007   0.010  -0.012   0.001  -0.021   0.006
  0.002   0.005   0.002   1.938  -0.005  -0.001  -0.001  -0.004  -0.022   0.002   0.013   0.000   0.008   0.059  -0.005  -0.000
 -0.005  -0.001  -0.003  -0.005   1.938   0.004  -0.001   0.002   0.002  -0.014  -0.010   0.006  -0.015   0.004   0.040   0.012
 -0.013   0.001   0.006  -0.001   0.004   0.014   0.000   0.001   0.000   0.001  -0.021  -0.001   0.021   0.002   0.012  -0.001
  0.001  -0.017   0.007  -0.001  -0.001   0.000   0.009   0.000   0.001  -0.000   0.008  -0.001   0.000   0.015   0.003  -0.000
  0.006   0.007  -0.026  -0.004   0.002   0.001   0.000   0.007  -0.000   0.001  -0.038   0.005  -0.007  -0.001  -0.009   0.001
 -0.001  -0.001  -0.004  -0.022   0.002   0.000   0.001  -0.000   0.009  -0.001  -0.002   0.001   0.001   0.020  -0.002  -0.000
  0.004  -0.001   0.002   0.002  -0.014   0.001  -0.000   0.001  -0.001   0.014  -0.012  -0.000  -0.021  -0.003   0.024   0.001
 -0.012   0.006  -0.007   0.013  -0.010  -0.021   0.008  -0.038  -0.002  -0.012   1.664  -0.120   0.141  -0.008   0.191  -0.018
  0.013  -0.001   0.010   0.000   0.006  -0.001  -0.001   0.005   0.001  -0.000  -0.120   0.014  -0.019   0.001  -0.028   0.002
  0.029  -0.001  -0.012   0.008  -0.015   0.021   0.000  -0.007   0.001  -0.021   0.141  -0.019   0.189   0.005  -0.035  -0.012
  0.003   0.047   0.001   0.059   0.004   0.002   0.015  -0.001   0.020  -0.003  -0.008   0.001   0.005   0.090  -0.003  -0.000
  0.037   0.000  -0.021  -0.005   0.040   0.012   0.003  -0.009  -0.002   0.024   0.191  -0.028  -0.035  -0.003   0.150   0.001
 -0.020   0.003   0.006  -0.000   0.012  -0.001  -0.000   0.001  -0.000   0.001  -0.018   0.002  -0.012  -0.000   0.001   0.001
 -0.000  -0.013   0.003  -0.021   0.000  -0.000  -0.001  -0.000  -0.001   0.000   0.002  -0.000  -0.001  -0.006   0.001   0.000
 -0.013  -0.000   0.010   0.003  -0.020  -0.000  -0.000   0.001   0.000  -0.001  -0.026   0.003   0.001   0.000  -0.011   0.000
 total augmentation occupancy for first ion, spin component:           2
  0.018   0.001   0.002  -0.003   0.010  -0.003  -0.000  -0.002   0.001  -0.003   0.030   0.006  -0.010   0.003  -0.020  -0.001
  0.001   0.000   0.000   0.001   0.000  -0.000   0.001  -0.000   0.001  -0.000   0.001  -0.000   0.000  -0.001  -0.000   0.000
  0.002   0.000   0.001  -0.001   0.001  -0.002  -0.000   0.001   0.000  -0.001   0.003  -0.000   0.000   0.001  -0.000   0.000
 -0.003   0.001  -0.001   0.002  -0.002   0.001   0.001   0.000   0.002   0.000  -0.006  -0.001   0.001  -0.004   0.004   0.000
  0.010   0.000   0.001  -0.002   0.005  -0.003  -0.000  -0.001   0.000   0.001   0.016   0.003  -0.003   0.001  -0.013  -0.000
 -0.003  -0.000  -0.002   0.001  -0.003   0.001   0.000   0.000  -0.000   0.001  -0.007  -0.001   0.001  -0.001   0.005   0.000
 -0.000   0.001  -0.000   0.001  -0.000   0.000  -0.000   0.000  -0.000   0.000  -0.000  -0.000   0.000  -0.000   0.000   0.000
 -0.002  -0.000   0.001   0.000  -0.001   0.000   0.000   0.000  -0.000   0.000  -0.001  -0.000   0.000  -0.000   0.001   0.000
  0.001   0.001   0.000   0.002   0.000  -0.000  -0.000  -0.000  -0.000  -0.000   0.001   0.000  -0.000   0.000  -0.001  -0.000
 -0.003  -0.000  -0.001   0.000   0.001   0.001   0.000   0.000  -0.000   0.000  -0.003  -0.000   0.002  -0.000   0.002   0.000
  0.030   0.001   0.003  -0.006   0.016  -0.007  -0.000  -0.001   0.001  -0.003   0.061   0.004  -0.015   0.005  -0.036  -0.000
  0.006  -0.000  -0.000  -0.001   0.003  -0.001  -0.000  -0.000   0.000  -0.000   0.004   0.000  -0.001   0.000  -0.002  -0.000
 -0.010   0.000   0.000   0.001  -0.003   0.001   0.000   0.000  -0.000   0.002  -0.015  -0.001   0.003  -0.001   0.006   0.000
  0.003  -0.001   0.001  -0.004   0.001  -0.001  -0.000  -0.000   0.000  -0.000   0.005   0.000  -0.001   0.001  -0.002  -0.000
 -0.020  -0.000  -0.000   0.004  -0.013   0.005   0.000   0.001  -0.001   0.002  -0.036  -0.002   0.006  -0.002   0.017   0.000
 -0.001   0.000   0.000   0.000  -0.000   0.000   0.000   0.000  -0.000   0.000  -0.000  -0.000   0.000  -0.000   0.000   0.000
  0.000  -0.000   0.000  -0.001   0.000  -0.000  -0.000  -0.000   0.000  -0.000   0.000   0.000  -0.000   0.000  -0.000  -0.000
 -0.001   0.000   0.000   0.000  -0.001   0.000   0.000   0.000  -0.000   0.000  -0.000  -0.000   0.000  -0.000   0.000   0.000


------------------------ aborting loop because EDIFF is reached ----------------------------------------


    CHARGE:  cpu time    0.6510: real time    0.6513
    FORLOC:  cpu time    0.0679: real time    0.0679
    FORNL :  cpu time    1.5305: real time    1.5310
    STRESS:  cpu time    5.6337: real time    5.6360
    FORCOR:  cpu time    1.1764: real time    1.1782
    FORHAR:  cpu time    0.1907: real time    0.1908
    MIXING:  cpu time    0.1111: real time    0.1114
    OFIELD:  cpu time    0.0001: real time    0.0001

  FORCE on cell =-STRESS in cart. coord.  units (eV):
  Direction    XX          YY          ZZ          XY          YZ          ZX
  --------------------------------------------------------------------------------------
  Alpha Z    41.16233    41.16233    41.16233
  Ewald   10584.40963  7236.54494 -1522.38625  -806.95654   390.15814    55.00402
  Hartree 15717.85317 12695.64424  4867.99921  -749.62959   334.26404    17.34075
  E(xc)    -876.14392  -877.54503  -879.31451     0.03393     0.06680     0.24729
  Local  -27701.60287-21359.02512 -4780.36854  1562.24559  -721.93646   -66.71470
  n-local  -331.00152  -321.75124  -329.07105    -2.93824     0.25014    -0.33463
  augment  1223.50370  1225.25782  1232.08082     0.19952    -0.63440    -0.69778
  Kinetic  1336.42450  1362.53135  1368.05489    -3.86176    -1.52803    -4.40601
  Fock        0.00000     0.00000     0.00000     0.00000     0.00000     0.00000
  -------------------------------------------------------------------------------------
  Total      -5.39499     2.81929    -1.84310    -0.90709     0.64023     0.43895
  in kB      -2.56110     1.33837    -0.87496    -0.43061     0.30393     0.20838
  external pressure =       -0.70 kB  Pullay stress =        0.00 kB


 VOLUME and BASIS-vectors are now :
 -----------------------------------------------------------------------------
  energy-cutoff  :      600.00
  volume of cell :     3375.00
      direct lattice vectors                 reciprocal lattice vectors
    15.000000000  0.000000000  0.000000000     0.066666667  0.000000000  0.000000000
     0.000000000 15.000000000  0.000000000     0.000000000  0.066666667  0.000000000
     0.000000000  0.000000000 15.000000000     0.000000000  0.000000000  0.066666667

  length of vectors
    15.000000000 15.000000000 15.000000000     0.066666667  0.066666667  0.066666667


 FORCES acting on ions
    electron-ion (+dipol)            ewald-force                    non-local-force                 convergence-correction
 -----------------------------------------------------------------------------------------------
   0.111E+04 0.699E+03 -.762E+02   -.110E+04 -.696E+03 0.754E+02   -.490E+01 -.341E+01 0.477E+00   0.198E-04 -.217E-05 0.351E-05
   0.380E+03 -.358E+03 0.862E+03   -.378E+03 0.356E+03 -.863E+03   -.147E+01 0.239E+01 0.593E+00   0.242E-04 -.125E-05 -.148E-04
   0.279E+03 0.125E+04 -.203E+03   -.278E+03 -.124E+04 0.200E+03   -.141E+01 -.928E+01 0.222E+01   0.226E-04 -.429E-05 0.152E-05
   -.849E+03 -.193E+03 0.939E+03   0.845E+03 0.191E+03 -.934E+03   0.308E+01 0.216E+01 -.512E+01   -.182E-04 -.118E-07 0.365E-04
   -.794E+03 0.101E+04 0.224E+03   0.789E+03 -.100E+04 -.222E+03   0.431E+01 -.674E+01 -.124E+01   -.870E-07 0.698E-05 0.185E-04
   -.155E+03 0.538E+03 -.892E+03   0.154E+03 -.536E+03 0.891E+03   0.173E+01 -.244E+01 0.447E+00   0.173E-04 0.137E-04 0.275E-04
   0.216E+03 0.656E+03 0.121E+04   -.215E+03 -.652E+03 -.121E+04   -.123E+01 -.484E+01 -.627E+01   0.127E-04 0.206E-04 0.179E-04
   0.123E+04 -.372E+03 0.272E+03   -.122E+04 0.369E+03 -.268E+03   -.818E+01 0.309E+01 -.438E+01   -.733E-05 0.417E-05 0.643E-05
   0.586E+03 -.199E+03 -.124E+04   -.583E+03 0.199E+03 0.123E+04   -.322E+01 -.459E-01 0.765E+01   0.460E-04 0.787E-05 -.630E-05
   0.441E+03 -.126E+04 -.223E+03   -.438E+03 0.125E+04 0.221E+03   -.243E+01 0.669E+01 0.236E+01   0.205E-04 0.124E-04 0.144E-04
   -.445E+03 -.108E+04 0.650E+03   0.441E+03 0.107E+04 -.644E+03   0.450E+01 0.619E+01 -.626E+01   -.984E-05 -.743E-05 0.293E-04
   -.841E+03 0.382E+02 -.460E+03   0.840E+03 -.369E+02 0.456E+03   0.155E+01 -.162E+01 0.360E+01   -.993E-05 0.587E-05 0.101E-04
   -.569E+03 -.737E+03 -.860E+03   0.567E+03 0.732E+03 0.856E+03   0.112E+01 0.526E+01 0.312E+01   0.117E-05 -.267E-04 0.870E-05
   -.137E+03 0.594E+02 -.730E+02   0.119E+03 -.635E+02 0.707E+02   0.193E+02 0.478E+01 0.293E+01   -.815E-05 -.610E-06 -.199E-05
   -.409E+03 -.479E+02 -.127E+03   0.464E+03 0.600E+02 0.137E+03   -.562E+02 -.126E+02 -.104E+02   0.109E-04 0.118E-05 -.100E-05
 -----------------------------------------------------------------------------------------------
   0.434E+02 0.104E+02 0.103E+02   -.114E-12 0.234E-12 -.171E-12   -.434E+02 -.104E+02 -.103E+02   0.122E-03 0.303E-04 0.150E-03
 
 
 POSITION                                       TOTAL-FORCE (eV/Angst)
 -----------------------------------------------------------------------------------
      4.30558      6.35408      8.41766         0.074119     -0.419092     -0.252700
      5.71553      8.18168      7.45468        -0.173635      0.557269     -0.109163
      5.85122      4.36913      8.47602         0.178337      0.244367     -0.147347
      8.14272      7.60115      7.09235        -0.507585      0.291220      0.455942
      8.28541      5.27982      7.83652        -0.275354      0.009012      0.143264
      6.63705      6.57454      9.08978         0.637573     -0.546870      0.199325
      6.20497      6.06735      6.74539         0.185539     -0.776790     -0.018889
      3.39226      8.54148      8.03915        -0.013971      0.166993      0.246673
      4.92304      8.15864      9.91928         0.345220      0.058899     -0.299220
      5.24188     10.13180      8.61524        -0.026352      0.477825      0.178883
      7.20268     10.06410      7.21626         0.236478     -0.266932      0.220875
      9.39320      7.24539      9.14231        -0.215858     -0.357181     -0.341266
      7.42522      8.76168      9.31732        -0.248178      0.410313     -0.485479
     11.18890      7.19361      9.52190         1.385147      0.620951      0.661236
     12.31790      7.44152      9.72422        -1.581480     -0.469983     -0.452134
 -----------------------------------------------------------------------------------
    total drift:                                0.000531     -0.000713      0.000167


--------------------------------------------------------------------------------------------------------



  FREE ENERGIE OF THE ION-ELECTRON SYSTEM (eV)
  ---------------------------------------------------
  free  energy   TOTEN  =       -48.62327784 eV

  energy  without entropy=      -48.63203889  energy(sigma->0) =      -48.62619819
 


--------------------------------------------------------------------------------------------------------


    POTLOK:  cpu time    1.1920: real time    1.1924


--------------------------------------------------------------------------------------------------------


     LOOP+:  cpu time  342.3440: real time  342.7006
    4ORBIT:  cpu time    0.0000: real time    0.0000

 total amount of memory used by VASP MPI-rank0   158680. kBytes
=======================================================================

   base      :      30000. kBytes
   nonl-proj :      12601. kBytes
   fftplans  :      27994. kBytes
   grid      :      74150. kBytes
   one-center:         93. kBytes
   wavefun   :      13842. kBytes
 
  
  
 General timing and accounting informations for this job:
 ========================================================
  
                  Total CPU time used (sec):      346.262
                            User time (sec):      334.026
                          System time (sec):       12.236
                         Elapsed time (sec):      346.673
  
                   Maximum memory used (kb):      281324.
                   Average memory used (kb):           0.
  
                          Minor page faults:       292810
                          Major page faults:            0
                 Voluntary context switches:          848
