#     Step Nr.          Time[fs]        Kin.[a.u.]          Temp[K]            Pot.[a.u.]        Cons Qty[a.u.]        UsedTime[s]
         0            0.000000         0.471839652       330.000000000     -7733.542610238     -7733.070770586         0.000000000
         1            0.500000         0.479874990       335.619836252     -7733.550808466     -7733.070933476       383.580277920
         2            1.000000         0.486375437       340.166184382     -7733.557411011     -7733.071035574        30.426470995
         3            1.500000         0.490362248       342.954521082     -7733.561295905     -7733.070933657        22.665469885
         4            2.000000         0.493771020       345.338582582     -7733.564410004     -7733.070638984        22.725037098
         5            2.500000         0.500944475       350.355626292     -7733.571339239     -7733.070394764        22.751789093
         6            3.000000         0.471839652       330.000000000     -7733.585714160     -7733.113874508        22.754371881
         7            3.500000         0.492126773       344.188611984     -7733.606397645     -7733.114270873        22.803551912
         8            4.000000         0.514158447       359.597347793     -7733.628908656     -7733.114750209        22.756613016
         9            4.500000         0.471839652       330.000000000     -7733.645926444     -7733.174086792        22.767608166
        10            5.000000         0.479836228       335.592726187     -7733.653899197     -7733.174062969        22.690220833
        11            5.500000         0.481102264       336.478179172     -7733.654972481     -7733.173870217        22.693316221
        12            6.000000         0.478240934       334.476993591     -7733.651878764     -7733.173637829        22.827676773
        13            6.500000         0.474655155       331.969135233     -7733.648107478     -7733.173452322        22.730623007
        14            7.000000         0.473185927       330.941571742     -7733.646519350     -7733.173333423        22.710308075
        15            7.500000         0.475715197       332.710517776     -7733.648977921     -7733.173262724        22.768835068
        16            8.000000         0.483314731       338.025557171     -7733.656548297     -7733.173233566        22.757968903
        17            8.500000         0.496296448       347.104841949     -7733.669565241     -7733.173268793        22.742542028
        18            9.000000         0.513943743       359.447185937     -7733.687338003     -7733.173394260        22.705577135
        19            9.500000         0.471839652       330.000000000     -7733.707831551     -7733.235991899        22.739632845
        20           10.000000         0.491459190       343.721711688     -7733.727670957     -7733.236211766        22.738248110
        21           10.500000         0.509460221       356.311454879     -7733.745826589     -7733.236366368        22.662176847
        22           11.000000         0.471839652       330.000000000     -7733.760139160     -7733.288299508        22.703157187
        23           11.500000         0.483004952       337.808900843     -7733.771170393     -7733.288165440        22.700207949
        24           12.000000         0.494452791       345.815406222     -7733.782509218     -7733.288056427        20.970139980
        25           12.500000         0.507656198       355.049739333     -7733.795751615     -7733.288095417        22.692835093
        26           13.000000         0.471839652       330.000000000     -7733.810319663     -7733.338480011        22.792975903
        27           13.500000         0.485115589       339.285059167     -7733.823780246     -7733.338664657        22.759433985
        28           14.000000         0.496003788       346.900158510     -7733.834786950     -7733.338783162        22.746764898
        29           14.500000         0.502625444       351.531279592     -7733.841437011     -7733.338811567        22.644905090
        30           15.000000         0.504392146       352.766893560     -7733.843181365     -7733.338789218        22.690423012
        31           15.500000         0.501562528       350.787886338     -7733.840307473     -7733.338744945        22.733587980
        32           16.000000         0.494872616       346.109027615     -7733.833537559     -7733.338664944        22.765513897
        33           16.500000         0.485646261       339.656206223     -7733.824177128     -7733.338530867        22.670543194
        34           17.000000         0.475969055       332.888063926     -7733.814333307     -7733.338364252        22.750249863
        35           17.500000         0.468332029       327.546803223     -7733.806564240     -7733.338232211        22.715265989
        36           18.000000         0.464671948       324.986978430     -7733.802875299     -7733.338203351        22.674371004
        37           18.500000         0.465408224       325.501922389     -7733.803704440     -7733.338296216        22.682430983
        38           19.000000         0.469182197       328.141401839     -7733.807654182     -7733.338471986        22.771112204
        39           19.500000         0.473704734       331.304419782     -7733.812273792     -7733.338569058        22.754676819
        40           20.000000         0.477701390       334.099641855     -7733.816237042     -7733.338535651        22.810613155
        41           20.500000         0.481404289       336.689412492     -7733.819862769     -7733.338458480        22.763639927
        42           21.000000         0.485947947       339.867202285     -7733.824310317     -7733.338362370        22.731086969
        43           21.500000         0.492511356       344.457585890     -7733.830903830     -7733.338392474        22.649840117
        44           22.000000         0.500738457       350.211539213     -7733.839256375     -7733.338517918        22.766457796
        45           22.500000         0.508925672       355.937596976     -7733.847526461     -7733.338600788        22.637181044
        46           23.000000         0.471839652       330.000000000     -7733.854265417     -7733.382425765        22.628757000
        47           23.500000         0.476625229       333.346985449     -7733.859072706     -7733.382447477        24.520158052
        48           24.000000         0.480001758       335.708496429     -7733.862491736     -7733.382489978        24.465569973
        49           24.500000         0.481307850       336.621964435     -7733.863863761     -7733.382555911        24.488456964
        50           25.000000         0.479660150       335.469579144     -7733.862252863     -7733.382592713        59.595597982
        51           25.500000         0.474601762       331.931792533     -7733.857159948     -7733.382558186        22.722514153
        52           26.000000         0.466663308       326.379715937     -7733.849126301     -7733.382462993        24.591078997
        53           26.500000         0.457268522       319.809095394     -7733.839611445     -7733.382342923        24.538053989
        54           27.000000         0.448229505       313.487296248     -7733.830458956     -7733.382229450        24.572288036
        55           27.500000         0.441206883       308.575743419     -7733.823364955     -7733.382158072        24.528046846
        56           28.000000         0.437174622       305.755620023     -7733.819332258     -7733.382157635        24.377647161
        57           28.500000         0.436059748       304.975887753     -7733.818279300     -7733.382219552        24.484661818
        58           29.000000         0.436898570       305.562551713     -7733.819198044     -7733.382299474        22.701936007
        59           29.500000         0.438457093       306.652567214     -7733.820813877     -7733.382356785        22.706142187
        60           30.000000         0.439814636       307.602019880     -7733.822197757     -7733.382383121        22.663791895
        61           30.500000         0.440534183       308.105263896     -7733.822924384     -7733.382390201        22.698000908
        62           31.000000         0.440536010       308.106541576     -7733.822920509     -7733.382384498        22.616715193
        63           31.500000         0.440020344       307.745889936     -7733.822375058     -7733.382354714        22.632108927
        64           32.000000         0.439560977       307.424612753     -7733.821855133     -7733.382294157        22.743804932
        65           32.500000         0.440107121       307.806580643     -7733.822337264     -7733.382230144        22.693928003
        66           33.000000         0.442538682       309.507190321     -7733.824758726     -7733.382220044        22.774461031
        67           33.500000         0.446883729       312.546073252     -7733.829183905     -7733.382300176        22.823230982
        68           34.000000         0.451888614       316.046441039     -7733.834328175     -7733.382439560        22.647403002
        69           34.500000         0.455504282       318.575203553     -7733.838062129     -7733.382557846        22.589415073
        70           35.000000         0.456040291       318.950082990     -7733.838621375     -7733.382581084        22.713081837
        71           35.500000         0.453161248       316.936508368     -7733.835658490     -7733.382497242        22.762459040
        72           36.000000         0.448055633       313.365691340     -7733.830410166     -7733.382354533        22.645169973
        73           36.500000         0.442807001       309.694850093     -7733.825021529     -7733.382214528        22.751200199
        74           37.000000         0.439485688       307.371956473     -7733.821614096     -7733.382128408        22.673519850
        75           37.500000         0.439382769       307.299975894     -7733.821503167     -7733.382120399        22.621288061
        76           38.000000         0.442650358       309.585295730     -7733.824828656     -7733.382178297        22.700795889
        77           38.500000         0.448450437       313.641813426     -7733.830718540     -7733.382268103        22.738432169
        78           39.000000         0.455430759       318.523782045     -7733.837786298     -7733.382355538        22.806726933
        79           39.500000         0.462260855       323.300683672     -7733.844672157     -7733.382411302        22.704109907
        80           40.000000         0.468093670       327.380097032     -7733.850509919     -7733.382416249        22.709784985
        81           40.500000         0.472881409       330.728594330     -7733.855248453     -7733.382367044        22.664285183
        82           41.000000         0.477375572       333.871767691     -7733.859667347     -7733.382291775        22.661393881
        83           41.500000         0.482687790       337.587080359     -7733.864928484     -7733.382240695        22.655615091
        84           42.000000         0.489539638       342.379195481     -7733.871802023     -7733.382262385        22.700178862
        85           42.500000         0.497569882       347.995469383     -7733.879939190     -7733.382369307        22.652168036
        86           43.000000         0.505200464       353.332223113     -7733.887716154     -7733.382515689        22.672104120
        87           43.500000         0.510306607       356.903408791     -7733.892931887     -7733.382625280        22.646543980
        88           44.000000         0.511309849       357.605066231     -7733.893951581     -7733.382641732        22.698689938
        89           44.500000         0.507997004       355.288095068     -7733.890554996     -7733.382557992        22.629420042
        90           45.000000         0.501626073       350.832329381     -7733.884041240     -7733.382415166        22.732605934
        91           45.500000         0.494344318       345.739541748     -7733.876618662     -7733.382274344        22.725455999
        92           46.000000         0.488298329       341.511036100     -7733.870482440     -7733.382184111        22.695765018
        93           46.500000         0.484897989       339.132872182     -7733.867059617     -7733.382161628        22.621325016
        94           47.000000         0.484537176       338.880523026     -7733.866729742     -7733.382192566        22.644864082
        95           47.500000         0.486746894       340.425977852     -7733.869002604     -7733.382255711        22.693573952
        96           48.000000         0.490505330       343.054591347     -7733.872840318     -7733.382334988        22.612179041
        97           48.500000         0.494543646       345.878949795     -7733.876951387     -7733.382407741        22.599186897
        98           49.000000         0.497740491       348.114791206     -7733.880180873     -7733.382440382        22.694674969
        99           49.500000         0.499617259       349.427384040     -7733.882026999     -7733.382409741        22.696167946
       100           50.000000         0.500644405       350.145760324     -7733.882973113     -7733.382328708        64.447217226
       101           50.500000         0.502005914       351.097986436     -7733.884258476     -7733.382252562        22.630667925
       102           51.000000         0.504791989       353.046539619     -7733.887039119     -7733.382247129        22.641432047
       103           51.500000         0.509057317       356.029668083     -7733.891401529     -7733.382344212        22.648615837
       104           52.000000         0.513394838       359.063287577     -7733.895905525     -7733.382510687        22.672273159
       105           52.500000         0.471839652       330.000000000     -7733.898101138     -7733.426261486        22.733732939
       106           53.000000         0.470288866       328.915395684     -7733.896589635     -7733.426300769        22.606817007
       107           53.500000         0.465287308       325.417354918     -7733.891511703     -7733.426224395        20.868498087
       108           54.000000         0.457918991       320.264026768     -7733.884002826     -7733.426083835        22.654358864
       109           54.500000         0.450197056       314.863381996     -7733.876165313     -7733.425968256        22.795814991
       110           55.000000         0.443859189       310.430740344     -7733.869782816     -7733.425923626        22.694294930
       111           55.500000         0.439706792       307.526594431     -7733.865636362     -7733.425929570        22.672540188
       112           56.000000         0.437768197       306.170760484     -7733.863719063     -7733.425950866        20.817992926
       113           56.500000         0.437715470       306.133883423     -7733.863694111     -7733.425978641        20.982155085
       114           57.000000         0.439016629       307.043901317     -7733.865040575     -7733.426023946        22.602344990
       115           57.500000         0.440848751       308.325269650     -7733.866938725     -7733.426089974        20.845009804
       116           58.000000         0.442132460       309.223082796     -7733.868283943     -7733.426151483        19.072152138
       117           58.500000         0.441923945       309.077249329     -7733.868093263     -7733.426169318        20.863748074
       118           59.000000         0.439965325       307.707410062     -7733.866089789     -7733.426124464        22.686496019
       119           59.500000         0.436966672       305.610181571     -7733.862996736     -7733.426030065        20.924762964
       120           60.000000         0.434383400       303.803466573     -7733.860314452     -7733.425931052        20.861912966
       121           60.500000         0.433733651       303.349038426     -7733.859617126     -7733.425883476        22.791643858
       122           61.000000         0.435750131       304.759344905     -7733.861675807     -7733.425925676        22.712743998
       123           61.500000         0.439840383       307.620026960     -7733.865885714     -7733.426045330        22.801532984
       124           62.000000         0.444265723       310.715066106     -7733.870448593     -7733.426182869        20.835360050
       125           62.500000         0.446993987       312.623186543     -7733.873264939     -7733.426270953        19.039325953
       126           63.000000         0.446675696       312.400577366     -7733.872951358     -7733.426275662        22.702579021
       127           63.500000         0.443184989       309.959211282     -7733.869386633     -7733.426201644        22.638062000
       128           64.000000         0.437593817       306.048800704     -7733.863670144     -7733.426076327        22.729379177
       129           64.500000         0.431754627       301.964928911     -7733.857698143     -7733.425943516        22.653803825
       130           65.000000         0.471839652       330.000000000     -7733.853476661     -7733.381637009        22.722568035
       131           65.500000         0.469971359       328.693334149     -7733.851583576     -7733.381612217        22.590273142
       132           66.000000         0.470261005       328.895910069     -7733.851905323     -7733.381644318        22.772708893
       133           66.500000         0.472273249       330.303253346     -7733.853974653     -7733.381701404        20.886868954
       134           67.000000         0.475171653       332.330368496     -7733.856920444     -7733.381748792        22.661684036
       135           67.500000         0.478209441       334.454967828     -7733.859982167     -7733.381772726        22.616795063
       136           68.000000         0.480974743       336.388992460     -7733.862748283     -7733.381773540        22.664257050
       137           68.500000         0.483436059       338.110412550     -7733.865189675     -7733.381753616        22.670080900
       138           69.000000         0.485899822       339.833544243     -7733.867619242     -7733.381719420        22.707755089
       139           69.500000         0.488889380       341.924411766     -7733.870574282     -7733.381684901        22.653667927
       140           70.000000         0.492912489       344.738134628     -7733.874586651     -7733.381674161        22.712589979
       141           70.500000         0.498108883       348.372441311     -7733.879817743     -7733.381708860        22.735619068
       142           71.000000         0.503950166       352.457776518     -7733.885740009     -7733.381789843        22.823300838
       143           71.500000         0.509251397       356.165405336     -7733.891137871     -7733.381886475        22.715649128
       144           72.000000         0.512615278       358.518070355     -7733.894566454     -7733.381951177        22.713576078
       145           72.500000         0.513114483       358.867209731     -7733.895063928     -7733.381949445        22.732707024
       146           73.000000         0.510778307       357.233311623     -7733.892661024     -7733.381882717        22.803126812
       147           73.500000         0.506579473       354.296688271     -7733.888361930     -7733.381782457        22.633931160
       148           74.000000         0.501996378       351.091316768     -7733.883683207     -7733.381686829        22.728626966
       149           74.500000         0.498426655       348.594687493     -7733.880056885     -7733.381630231        22.820706844
       150           75.000000         0.496667163       347.364116561     -7733.878299991     -7733.381632827        56.838901043
       151           75.500000         0.496631820       347.339397814     -7733.878319477     -7733.381687657        22.702797174
       152           76.000000         0.497484318       347.935626254     -7733.879242010     -7733.381757693        22.753575802
       153           76.500000         0.498177690       348.420564134     -7733.879978597     -7733.381800906        22.786256075
       154           77.000000         0.498069448       348.344860448     -7733.879868772     -7733.381799324        22.762211084
       155           77.500000         0.497198267       347.735564906     -7733.878964287     -7733.381766021        22.721036911
       156           78.000000         0.496130957       346.989099266     -7733.877854009     -7733.381723052        22.712409019
       157           78.500000         0.495659465       346.659342569     -7733.877338369     -7733.381678904        22.730714083
       158           79.000000         0.496627853       347.336623094     -7733.878262687     -7733.381634834        22.717108965
       159           79.500000         0.499813121       349.564368552     -7733.881426557     -7733.381613436        22.779645920
       160           80.000000         0.505566355       353.588123368     -7733.887220840     -7733.381654485        22.721736908
       161           80.500000         0.513287986       358.988556239     -7733.895058048     -7733.381770061        22.807959080
       162           81.000000         0.471839652       330.000000000     -7733.903241768     -7733.431402116        22.825454950
       163           81.500000         0.478616639       334.739757778     -7733.910115167     -7733.431498528        22.727626085
       164           82.000000         0.483728577       338.314996549     -7733.915269100     -7733.431540523        22.634780884
       165           82.500000         0.486404700       340.186650698     -7733.917937580     -7733.431532880        22.794552088
       166           83.000000         0.486584383       340.312319367     -7733.918082558     -7733.431498175        22.671802044
       167           83.500000         0.484629161       338.944856547     -7733.916080114     -7733.431450953        22.832273960
       168           84.000000         0.481151609       336.512690909     -7733.912540733     -7733.431389124        22.692842007
       169           84.500000         0.477008650       333.615146038     -7733.908324115     -7733.431315466        22.845607042
       170           85.000000         0.473229330       330.971927352     -7733.904479036     -7733.431249705        22.756476879
       171           85.500000         0.470747096       329.235877278     -7733.901961166     -7733.431214070        22.644973993
       172           86.000000         0.470083589       328.771826881     -7733.901301908     -7733.431218319        22.646368027
       173           86.500000         0.471185310       329.542359932     -7733.902443765     -7733.431258455        22.682096958
       174           87.000000         0.473479108       331.146619243     -7733.904797049     -7733.431317942        22.734179020
       175           87.500000         0.476122193       332.995166976     -7733.907494810     -7733.431372617        22.812170982
       176           88.000000         0.478371760       334.568492032     -7733.909772088     -7733.431400327        22.684209108
       177           88.500000         0.479924612       335.654540951     -7733.911313616     -7733.431389004        22.824615002
       178           89.000000         0.481037037       336.432560527     -7733.912391992     -7733.431354954        22.740372896
       179           89.500000         0.482313409       337.325242258     -7733.913638988     -7733.431325579        22.734362125
       180           90.000000         0.484314940       338.725093673     -7733.915632668     -7733.431317727        22.744272947
       181           90.500000         0.487306279       340.817206392     -7733.918631887     -7733.431325608        22.828948021
       182           91.000000         0.491303310       343.612690295     -7733.922634990     -7733.431331680        22.695528030
       183           91.500000         0.496236854       347.063162631     -7733.927577921     -7733.431341067        22.714159012
       184           92.000000         0.501867263       351.001015279     -7733.933249814     -7733.431382551        22.763136864
       185           92.500000         0.507430794       354.892094020     -7733.938902216     -7733.431471422        22.765836000
       186           93.000000         0.511527564       357.757334570     -7733.943095167     -7733.431567603        22.798566103
       187           93.500000         0.512709455       358.583937488     -7733.944311131     -7733.431601676        22.777626038
       188           94.000000         0.510418807       356.981880260     -7733.941962075     -7733.431543268        22.655797005
       189           94.500000         0.505413429       353.481168693     -7733.936839027     -7733.431425597        22.688189983
       190           95.000000         0.499339902       349.233403611     -7733.930649069     -7733.431309167        22.809051991
       191           95.500000         0.493869155       345.407217249     -7733.925110989     -7733.431241834        22.720669031
       192           96.000000         0.489960663       342.673656303     -7733.921203947     -7733.431243284        22.646107912
       193           96.500000         0.487543012       340.982775063     -7733.918848488     -7733.431305476        22.727983952
       194           97.000000         0.485657116       339.663798018     -7733.917048959     -7733.431391843        22.633613110
       195           97.500000         0.483009615       337.812162023     -7733.914462470     -7733.431452855        22.737086058
       196           98.000000         0.478705759       334.802087547     -7733.910159217     -7733.431453458        22.664384842
       197           98.500000         0.472753617       330.639217748     -7733.904149691     -7733.431396075        22.709670067
       198           99.000000         0.466039809       325.943646768     -7733.897353980     -7733.431314171        22.677153111
       199           99.500000         0.459870346       321.628785102     -7733.891109830     -7733.431239485        22.641671896
       200          100.000000         0.455488427       318.564114419     -7733.886675463     -7733.431187036        58.016206980
       201          100.500000         0.453757530       317.353541911     -7733.884933773     -7733.431176244        22.762645960
       202          101.000000         0.454834447       318.106726940     -7733.886065822     -7733.431231376        22.679121017
       203          101.500000         0.457870953       320.230429671     -7733.889217065     -7733.431346112        22.702160120
       204          102.000000         0.461148612       322.522791939     -7733.892622788     -7733.431474176        22.716048956
       205          102.500000         0.462746229       323.640149505     -7733.894310327     -7733.431564098        22.720726967
       206          103.000000         0.461311300       322.636574688     -7733.892896217     -7733.431584917        22.749430895
       207          103.500000         0.456574833       319.323936214     -7733.888096881     -7733.431522048        22.732033014
       208          104.000000         0.449564011       314.420636375     -7733.880946597     -7733.431382586        22.794184208
       209          104.500000         0.442405805       309.414257530     -7733.873625543     -7733.431219738        22.706835985
       210          105.000000         0.437500293       305.983390806     -7733.868620680     -7733.431120387        22.723586798
       211          105.500000         0.436296275       305.141312852     -7733.867436888     -7733.431140613        22.722165108
       212          106.000000         0.438524788       306.699912852     -7733.869780004     -7733.431255215        22.638639927
       213          106.500000         0.442513574       309.489630268     -7733.873901081     -7733.431387507        22.623644114
       214          107.000000         0.446249228       312.102309767     -7733.877720795     -7733.431471567        22.655780077
       215          107.500000         0.448358755       313.577691898     -7733.879846839     -7733.431488085        22.644308805
       216          108.000000         0.448476082       313.659749517     -7733.879931462     -7733.431455380        22.741602182
       217          108.500000         0.447012957       312.636453927     -7733.878415620     -7733.431402664        22.680298805
       218          109.000000         0.444761845       311.062048441     -7733.876102866     -7733.431341022        22.753988981
       219          109.500000         0.442631425       309.572053941     -7733.873917020     -7733.431285595        22.684472084
       220          110.000000         0.441407904       308.716335242     -7733.872664876     -7733.431256972        22.748026133
       221          110.500000         0.441467897       308.758293642     -7733.872733709     -7733.431265812        22.670946836
       222          111.000000         0.442650126       309.585133330     -7733.873949706     -7733.431299580        22.802000046
       223          111.500000         0.444425335       310.826696865     -7733.875761173     -7733.431335838        22.765408993
       224          112.000000         0.446205722       312.071882217     -7733.877567717     -7733.431361995        22.722748041
       225          112.500000         0.447539600       313.004782902     -7733.878919045     -7733.431379446        22.634563923
       226          113.000000         0.448115534       313.407586001     -7733.879508127     -7733.431392593        22.703052998
       227          113.500000         0.447730720       313.138450387     -7733.879125173     -7733.431394454        22.691251040