 vasp.5.4.4.18Apr17-6-g9f103f2a35 (build May 08 2019 13:49:07) complex          
  
 executed on             LinuxIFC date 2019.11.13  13:38:06
 running on   24 total cores
 distrk:  each k-point on   24 cores,    1 groups
 distr:  one band on NCORES_PER_BAND=   6 cores,    4 groups


--------------------------------------------------------------------------------------------------------


 INCAR:
 POTCAR:    PAW_PBE Cu 22Jun2005                  
 POTCAR:    PAW_PBE C 08Apr2002                   
 POTCAR:    PAW_PBE O 08Apr2002                   
 POTCAR:    PAW_PBE Cu 22Jun2005                  
   VRHFIN =Cu: d10 p1                                                           
   LEXCH  = PE                                                                  
   EATOM  =  1390.9808 eV,  102.2342 Ry                                         
                                                                                
   TITEL  = PAW_PBE Cu 22Jun2005                                                
   LULTRA =        F    use ultrasoft PP ?                                      
   IUNSCR =        1    unscreen: 0-lin 1-nonlin 2-no                           
   RPACOR =    2.000    partial core radius                                     
   POMASS =   63.546; ZVAL   =   11.000    mass and valenz                      
   RCORE  =    2.300    outmost cutoff radius                                   
   RWIGS  =    2.200; RWIGS  =    1.164    wigner-seitz radius (au A)           
   ENMAX  =  295.446; ENMIN  =  221.585 eV                                      
   ICORE  =        3    local potential                                         
   LCOR   =        T    correct aug charges                                     
   LPAW   =        T    paw PP                                                  
   EAUG   =  586.980                                                            
   DEXC   =    0.000                                                            
   RMAX   =    2.344    core radius for proj-oper                               
   RAUG   =    1.300    factor for augmentation sphere                          
   RDEP   =    2.302    radius for radial grids                                 
   RDEPT  =    1.771    core radius for aug-charge                              
                                                                                
   Atomic configuration                                                         
    9 entries                                                                   
     n  l   j            E        occ.                                          
     1  0  0.50     -8850.2468   2.0000                                         
     2  0  0.50     -1062.3498   2.0000                                         
     2  1  1.50      -916.8226   6.0000                                         
     3  0  0.50      -114.6929   2.0000                                         
     3  1  1.50       -72.1325   6.0000                                         
     3  2  2.50        -5.0394  10.0000                                         
     4  0  0.50        -4.6097   1.0000                                         
     4  1  0.50        -4.0817   0.0000                                         
     4  3  2.50        -1.3606   0.0000                                         
   Description                                                                  
     l       E           TYP  RCUT    TYP  RCUT                                 
     2     -5.0393973     23  2.200                                             
     2     10.8846608     23  2.200                                             
     0     -4.6097109     23  2.200                                             
     0      8.2520465     23  2.200                                             
     1     -2.7211652     23  2.200                                             
     1     21.7055443     23  2.200                                             
     3      2.7211652     23  2.300                                             
  local pseudopotential read in
  partial core-charges read in
  partial kinetic energy density read in
  atomic valenz-charges read in
  non local Contribution for L=           2  read in
    real space projection operators read in
  non local Contribution for L=           2  read in
    real space projection operators read in
  non local Contribution for L=           0  read in
    real space projection operators read in
  non local Contribution for L=           0  read in
    real space projection operators read in
  non local Contribution for L=           1  read in
    real space projection operators read in
  non local Contribution for L=           1  read in
    real space projection operators read in
    PAW grid and wavefunctions read in
 
   number of l-projection  operators is LMAX  =           6
   number of lm-projection operators is LMMAX =          18
 
 POTCAR:    PAW_PBE C 08Apr2002                   
   VRHFIN =C: s2p2                                                              
   LEXCH  = PE                                                                  
   EATOM  =   147.1560 eV,   10.8157 Ry                                         
                                                                                
   TITEL  = PAW_PBE C 08Apr2002                                                 
   LULTRA =        F    use ultrasoft PP ?                                      
   IUNSCR =        1    unscreen: 0-lin 1-nonlin 2-no                           
   RPACOR =    1.200    partial core radius                                     
   POMASS =   12.011; ZVAL   =    4.000    mass and valenz                      
   RCORE  =    1.500    outmost cutoff radius                                   
   RWIGS  =    1.630; RWIGS  =    0.863    wigner-seitz radius (au A)           
   ENMAX  =  400.000; ENMIN  =  300.000 eV                                      
   ICORE  =        2    local potential                                         
   LCOR   =        T    correct aug charges                                     
   LPAW   =        T    paw PP                                                  
   EAUG   =  644.873                                                            
   DEXC   =    0.000                                                            
   RMAX   =    1.529    core radius for proj-oper                               
   RAUG   =    1.300    factor for augmentation sphere                          
   RDEP   =    1.501    radius for radial grids                                 
   RDEPT  =    1.300    core radius for aug-charge                              
                                                                                
   Atomic configuration                                                         
    4 entries                                                                   
     n  l   j            E        occ.                                          
     1  0  0.50      -273.3789   2.0000                                         
     2  0  0.50       -13.7508   2.0000                                         
     2  1  0.50        -5.2854   2.0000                                         
     3  2  1.50        -5.4423   0.0000                                         
   Description                                                                  
     l       E           TYP  RCUT    TYP  RCUT                                 
     0    -13.7508458     23  1.200                                             
     0     -8.2022199     23  1.200                                             
     1     -5.2854383     23  1.500                                             
     1     34.0145650     23  1.500                                             
     2     -5.4423304      7  1.500                                             
  local pseudopotential read in
  partial core-charges read in
  partial kinetic energy density read in
  atomic valenz-charges read in
  non local Contribution for L=           0  read in
    real space projection operators read in
  non local Contribution for L=           0  read in
    real space projection operators read in
  non local Contribution for L=           1  read in
    real space projection operators read in
  non local Contribution for L=           1  read in
    real space projection operators read in
    PAW grid and wavefunctions read in
 
   number of l-projection  operators is LMAX  =           4
   number of lm-projection operators is LMMAX =           8
 
 POTCAR:    PAW_PBE O 08Apr2002                   
   VRHFIN =O: s2p4                                                              
   LEXCH  = PE                                                                  
   EATOM  =   432.3788 eV,   31.7789 Ry                                         
                                                                                
   TITEL  = PAW_PBE O 08Apr2002                                                 
   LULTRA =        F    use ultrasoft PP ?                                      
   IUNSCR =        1    unscreen: 0-lin 1-nonlin 2-no                           
   RPACOR =    1.200    partial core radius                                     
   POMASS =   16.000; ZVAL   =    6.000    mass and valenz                      
   RCORE  =    1.520    outmost cutoff radius                                   
   RWIGS  =    1.550; RWIGS  =    0.820    wigner-seitz radius (au A)           
   ENMAX  =  400.000; ENMIN  =  300.000 eV                                      
   ICORE  =        2    local potential                                         
   LCOR   =        T    correct aug charges                                     
   LPAW   =        T    paw PP                                                  
   EAUG   =  605.392                                                            
   DEXC   =    0.000                                                            
   RMAX   =    1.553    core radius for proj-oper                               
   RAUG   =    1.300    factor for augmentation sphere                          
   RDEP   =    1.550    radius for radial grids                                 
   RDEPT  =    1.329    core radius for aug-charge                              
                                                                                
   Atomic configuration                                                         
    4 entries                                                                   
     n  l   j            E        occ.                                          
     1  0  0.50      -514.6923   2.0000                                         
     2  0  0.50       -23.9615   2.0000                                         
     2  1  0.50        -9.0305   4.0000                                         
     3  2  1.50        -9.5241   0.0000                                         
   Description                                                                  
     l       E           TYP  RCUT    TYP  RCUT                                 
     0    -23.9615318     23  1.200                                             
     0     -9.5240782     23  1.200                                             
     1     -9.0304911     23  1.520                                             
     1      8.1634956     23  1.520                                             
     2     -9.5240782      7  1.500                                             
  local pseudopotential read in
  partial core-charges read in
  partial kinetic energy density read in
  kinetic energy density of atom read in
  atomic valenz-charges read in
  non local Contribution for L=           0  read in
    real space projection operators read in
  non local Contribution for L=           0  read in
    real space projection operators read in
  non local Contribution for L=           1  read in
    real space projection operators read in
  non local Contribution for L=           1  read in
    real space projection operators read in
    PAW grid and wavefunctions read in
 
   number of l-projection  operators is LMAX  =           4
   number of lm-projection operators is LMMAX =           8
 
  PAW_PBE Cu 22Jun2005                  :
 energy of atom  1       EATOM=-1390.9808
 kinetic energy error for atom=    0.0033 (will be added to EATOM!!)
  PAW_PBE C 08Apr2002                   :
 energy of atom  2       EATOM= -147.1560
 kinetic energy error for atom=    0.0057 (will be added to EATOM!!)
  PAW_PBE O 08Apr2002                   :
 energy of atom  3       EATOM= -432.3788
 kinetic energy error for atom=    0.0168 (will be added to EATOM!!)
 
 
 POSCAR: Cu13 C1 O1                              
  positions in cartesian coordinates
  No initial velocities read in
 exchange correlation table for  LEXCH =        8
   RHO(1)=    0.500       N(1)  =     2000
   RHO(2)=  100.500       N(2)  =     4000
 


--------------------------------------------------------------------------------------------------------


 ion  position               nearest neighbor table
   1  0.293  0.419  0.558-   8 2.42   3 2.45   2 2.45   6 2.50   7 2.54   9 2.54
   2  0.375  0.544  0.492-   7 2.34  10 2.42   8 2.43   4 2.44   1 2.45  11 2.45  13 2.53   9 2.62
                             6 2.64
   3  0.395  0.292  0.558-   7 2.43   1 2.45   5 2.45   6 2.51
   4  0.532  0.503  0.484-  12 2.34   7 2.43   2 2.44   5 2.47  13 2.47  11 2.49   6 2.50
   5  0.546  0.346  0.532-   6 2.37   3 2.45   4 2.47   7 2.55  12 2.74
   6  0.449  0.440  0.614-  13 2.31   5 2.37   9 2.44   1 2.50   4 2.50   3 2.51   2 2.64   7 2.71

   7  0.413  0.402  0.441-   2 2.34   3 2.43   4 2.43   1 2.54   5 2.55   6 2.71
   8  0.226  0.566  0.554-   9 2.33   1 2.42   2 2.43  10 2.59
   9  0.335  0.545  0.663-   8 2.33  13 2.43   6 2.44   1 2.54  10 2.54   2 2.62
  10  0.351  0.685  0.568-   2 2.42  11 2.50  13 2.53   9 2.54   8 2.59
  11  0.486  0.662  0.474-  13 2.36   2 2.45   4 2.49  10 2.50
  12  0.634  0.491  0.601-  14 1.77   4 2.34  13 2.73   5 2.74
  13  0.482  0.590  0.614-   6 2.31  11 2.36   9 2.43   4 2.47  10 2.53   2 2.53  12 2.73
  14  0.744  0.494  0.643-  15 1.18  12 1.77
  15  0.818  0.498  0.669-  14 1.18
 

IMPORTANT INFORMATION: All symmetrisations will be switched off!
NOSYMM: (Re-)initialisation of all symmetry stuff for point group C_1.

 
 

Automatic generation of k-mesh.
 generate k-points for:    1    1    1
Space group operators:
 irot       det(A)        alpha          n_x          n_y          n_z        tau_x        tau_y        tau_z
    1     1.000000     0.000000     1.000000     0.000000     0.000000     0.000000     0.000000     0.000000
 
 Subroutine IBZKPT returns following result:
 ===========================================
 
 Found      1 irreducible k-points:
 
 Following reciprocal coordinates:
            Coordinates               Weight
  0.000000  0.000000  0.000000      1.000000
 
 Following cartesian coordinates:
            Coordinates               Weight
  0.000000  0.000000  0.000000      1.000000
 


--------------------------------------------------------------------------------------------------------




 Dimension of arrays:
   k-points           NKPTS =      1   k-points in BZ     NKDIM =      1   number of bands    NBANDS=     92
   number of dos      NEDOS =    301   number of ions     NIONS =     15
   non local maximal  LDIM  =      6   non local SUM 2l+1 LMDIM =     18
   total plane-waves  NPLWV = ******
   max r-space proj   IRMAX =      1   max aug-charges    IRDMAX=  15028
   dimension x,y,z NGX =   120 NGY =  120 NGZ =  120
   dimension x,y,z NGXF=   240 NGYF=  240 NGZF=  240
   support grid    NGXF=   240 NGYF=  240 NGZF=  240
   ions per type =              13   1   1
   NGX,Y,Z   is equivalent  to a cutoff of  13.30, 13.30, 13.30 a.u.
   NGXF,Y,Z  is equivalent  to a cutoff of  26.60, 26.60, 26.60 a.u.

 SYSTEM =  CuCO                                    
 POSCAR =  Cu13 C1 O1                              

 Startparameter for this run:
   NWRITE =      2    write-flag & timer
   PREC   = accura    normal or accurate (medium, high low for compatibility)
   ISTART =      0    job   : 0-new  1-cont  2-samecut
   ICHARG =      2    charge: 1-file 2-atom 10-const
   ISPIN  =      2    spin polarized calculation?
   LNONCOLLINEAR =      F non collinear calculations
   LSORBIT =      F    spin-orbit coupling
   INIWAV =      1    electr: 0-lowe 1-rand  2-diag
   LASPH  =      F    aspherical Exc in radial PAW
   METAGGA=      F    non-selfconsistent MetaGGA calc.

 Electronic Relaxation 1
   ENCUT  =  600.0 eV  44.10 Ry    6.64 a.u.  29.96 29.96 29.96*2*pi/ulx,y,z
   ENINI  =  600.0     initial cutoff
   ENAUG  =  644.9 eV  augmentation charge cutoff
   NELM   =    300;   NELMIN=  3; NELMDL= -5     # of ELM steps 
   EDIFF  = 0.1E-06   stopping-criterion for ELM
   LREAL  =      F    real-space projection
   NLSPLINE    = F    spline interpolate recip. space projectors
   LCOMPAT=      F    compatible to vasp.4.4
   GGA_COMPAT  = T    GGA compatible to vasp.4.4-vasp.4.6
   LMAXPAW     = -100 max onsite density
   LMAXMIX     =    2 max onsite mixed and CHGCAR
   VOSKOWN=      0    Vosko Wilk Nusair interpolation
   ROPT   =    0.00000   0.00000   0.00000
 Ionic relaxation
   EDIFFG = -.1E-02   stopping-criterion for IOM
   NSW    =      0    number of steps for IOM
   NBLOCK =      1;   KBLOCK =      1    inner block; outer block 
   IBRION =     -1    ionic relax: 0-MD 1-quasi-New 2-CG
   NFREE  =      0    steps in history (QN), initial steepest desc. (CG)
   ISIF   =      2    stress and relaxation
   IWAVPR =     10    prediction:  0-non 1-charg 2-wave 3-comb
   ISYM   =      0    0-nonsym 1-usesym 2-fastsym
   LCORR  =      T    Harris-Foulkes like correction to forces

   POTIM  = 0.5000    time-step for ionic-motion
   TEIN   =    0.0    initial temperature
   TEBEG  =    0.0;   TEEND  =   0.0 temperature during run
   SMASS  =  -3.00    Nose mass-parameter (am)
   estimated Nose-frequenzy (Omega)   =  0.10E-29 period in steps =****** mass=  -0.514E-26a.u.
   SCALEE = 1.0000    scale energy and forces
   NPACO  =    256;   APACO  = 16.0  distance and # of slots for P.C.
   PSTRESS=    0.0 pullay stress

  Mass of Ions in am
   POMASS =  63.55 12.01 16.00
  Ionic Valenz
   ZVAL   =  11.00  4.00  6.00
  Atomic Wigner-Seitz radii
   RWIGS  =  -1.00 -1.00 -1.00
  virtual crystal weights 
   VCA    =   1.00  1.00  1.00
   NELECT =     153.0000    total number of electrons
   NUPDOWN=       1.0000    fix difference up-down

 DOS related values:
   EMIN   =  10.00;   EMAX   =-10.00  energy-range for DOS
   EFERMI =   0.00
   ISMEAR =     1;   SIGMA  =   0.10  broadening in eV -4-tet -1-fermi 0-gaus

 Electronic relaxation 2 (details)
   IALGO  =     68    algorithm
   LDIAG  =      T    sub-space diagonalisation (order eigenvalues)
   LSUBROT=      F    optimize rotation matrix (better conditioning)
   TURBO    =      0    0=normal 1=particle mesh
   IRESTART =      0    0=no restart 2=restart with 2 vectors
   NREBOOT  =      0    no. of reboots
   NMIN     =      0    reboot dimension
   EREF     =   0.00    reference energy to select bands
   IMIX   =      4    mixing-type and parameters
     AMIX     =   0.40;   BMIX     =  1.00
     AMIX_MAG =   1.60;   BMIX_MAG =  1.00
     AMIN     =   0.10
     WC   =   100.;   INIMIX=   1;  MIXPRE=   1;  MAXMIX= -45

 Intra band minimization:
   WEIMIN = 0.0000     energy-eigenvalue tresh-hold
   EBREAK =  0.27E-09  absolut break condition
   DEPER  =   0.30     relativ break condition  

   TIME   =   0.40     timestep for ELM

  volume/ion in A,a.u.               =     225.00      1518.37
  Fermi-wavevector in a.u.,A,eV,Ry     =   0.583733  1.103095  4.636102  0.340744
  Thomas-Fermi vector in A             =   1.629149
 
 Write flags
   LWAVE        =      F    write WAVECAR
   LDOWNSAMPLE  =      F    k-point downsampling of WAVECAR
   LCHARG       =      F    write CHGCAR
   LVTOT        =      F    write LOCPOT, total local potential
   LVHAR        =      F    write LOCPOT, Hartree potential only
   LELF         =      F    write electronic localiz. function (ELF)
   LORBIT       =      0    0 simple, 1 ext, 2 COOP (PROOUT), +10 PAW based schemes


 Dipole corrections
   LMONO  =      F    monopole corrections only (constant potential shift)
   LDIPOL =      F    correct potential (dipole corrections)
   IDIPOL =      0    1-x, 2-y, 3-z, 4-all directions 
   EPSILON=  1.0000000 bulk dielectric constant

 Exchange correlation treatment:
   GGA     =    PE    GGA type
   LEXCH   =     8    internal setting for exchange type
   VOSKOWN=      0    Vosko Wilk Nusair interpolation
   LHFCALC =     F    Hartree Fock is set to
   LHFONE  =     F    Hartree Fock one center treatment
   AEXX    =    0.0000 exact exchange contribution

 Linear response parameters
   LEPSILON=     F    determine dielectric tensor
   LRPA    =     F    only Hartree local field effects (RPA)
   LNABLA  =     F    use nabla operator in PAW spheres
   LVEL    =     F    velocity operator in full k-point grid
   LINTERFAST=   F  fast interpolation
   KINTER  =     0    interpolate to denser k-point grid
   CSHIFT  =0.1000    complex shift for real part using Kramers Kronig
   OMEGAMAX=  -1.0    maximum frequency
   DEG_THRESHOLD= 0.2000000E-02 threshold for treating states as degnerate
   RTIME   =   -0.100 relaxation time in fs
  (WPLASMAI=    0.000 imaginary part of plasma frequency in eV, 0.658/RTIME)
   DFIELD  = 0.0000000 0.0000000 0.0000000 field for delta impulse in time
 
 Orbital magnetization related:
   ORBITALMAG=     F  switch on orbital magnetization
   LCHIMAG   =     F  perturbation theory with respect to B field
   DQ        =  0.001000  dq finite difference perturbation B field
   LLRAUG    =     F  two centre corrections for induced B field



--------------------------------------------------------------------------------------------------------


 Static calculation
 charge density and potential will be updated during run
 spin polarized calculation
 RMM-DIIS sequential band-by-band and
  variant of blocked Davidson during initial phase
 perform sub-space diagonalisation
    before iterative eigenvector-optimisation
 modified Broyden-mixing scheme, WC =      100.0
 initial mixing is a Kerker type mixing with AMIX =  0.4000 and BMIX =      1.0000
 Hartree-type preconditioning will be used
 using additional bands           15
 reciprocal scheme for non local part
 use partial core corrections
 calculate Harris-corrections to forces 
   (improved forces if not selfconsistent)
 use gradient corrections 
 use of overlap-Matrix (Vanderbilt PP)
 Methfessel and Paxton  Order N= 1 SIGMA  =   0.10


--------------------------------------------------------------------------------------------------------


  energy-cutoff  :      600.00
  volume of cell :     3375.00
      direct lattice vectors                 reciprocal lattice vectors
    15.000000000  0.000000000  0.000000000     0.066666667  0.000000000  0.000000000
     0.000000000 15.000000000  0.000000000     0.000000000  0.066666667  0.000000000
     0.000000000  0.000000000 15.000000000     0.000000000  0.000000000  0.066666667

  length of vectors
    15.000000000 15.000000000 15.000000000     0.066666667  0.066666667  0.066666667


 
 k-points in units of 2pi/SCALE and weight: read from INCAR                         
   0.00000000  0.00000000  0.00000000       1.000
 
 k-points in reciprocal lattice and weights: read from INCAR                         
   0.00000000  0.00000000  0.00000000       1.000
 
 position of ions in fractional coordinates (direct lattice) 
   0.29269800  0.41898133  0.55810133
   0.37468467  0.54408000  0.49248133
   0.39453133  0.29158333  0.55763267
   0.53197400  0.50315333  0.48359867
   0.54607200  0.34646667  0.53164467
   0.44857600  0.43999200  0.61374933
   0.41326267  0.40186533  0.44087267
   0.22636600  0.56591533  0.55350133
   0.33465667  0.54513333  0.66255400
   0.35058200  0.68462000  0.56779800
   0.48635533  0.66214200  0.47391667
   0.63397467  0.49120800  0.60071000
   0.48224933  0.59037600  0.61412667
   0.74392667  0.49359267  0.64299667
   0.81766667  0.49829667  0.66904000
 
 position of ions in cartesian coordinates  (Angst):
   4.39047000  6.28472000  8.37152000
   5.62027000  8.16120000  7.38722000
   5.91797000  4.37375000  8.36449000
   7.97961000  7.54730000  7.25398000
   8.19108000  5.19700000  7.97467000
   6.72864000  6.59988000  9.20624000
   6.19894000  6.02798000  6.61309000
   3.39549000  8.48873000  8.30252000
   5.01985000  8.17700000  9.93831000
   5.25873000 10.26930000  8.51697000
   7.29533000  9.93213000  7.10875000
   9.50962000  7.36812000  9.01065000
   7.23374000  8.85564000  9.21190000
  11.15890000  7.40389000  9.64495000
  12.26500000  7.47445000 10.03560000
 


--------------------------------------------------------------------------------------------------------


 k-point  1 :   0.0000 0.0000 0.0000  plane waves:  112451

 maximum and minimum number of plane-waves per node :     18753    18726

 maximum number of plane-waves:    112451
 maximum index in each direction: 
   IXMAX=   29   IYMAX=   29   IZMAX=   29
   IXMIN=  -29   IYMIN=  -29   IZMIN=  -29


 parallel 3D FFT for wavefunctions:
    minimum data exchange during FFTs selected (reduces bandwidth)
 parallel 3D FFT for charge:
    minimum data exchange during FFTs selected (reduces bandwidth)


 total amount of memory used by VASP MPI-rank0   158680. kBytes
=======================================================================

   base      :      30000. kBytes
   nonl-proj :      12601. kBytes
   fftplans  :      27994. kBytes
   grid      :      74150. kBytes
   one-center:         93. kBytes
   wavefun   :      13842. kBytes
 
     INWAV:  cpu time    0.0000: real time    0.0001
 Broyden mixing: mesh for mixing (old mesh)
   NGX = 59   NGY = 59   NGZ = 59
  (NGX  =240   NGY  =240   NGZ  =240)
  gives a total of 205379 points

 initial charge density was supplied:
 charge density of overlapping atoms calculated
 number of electron     153.0000000 magnetization       1.0000000
 keeping initial charge density in first step


--------------------------------------------------------------------------------------------------------


 Maximum index for augmentation-charges          709 (set IRDMAX)


--------------------------------------------------------------------------------------------------------


 First call to EWALD:  gamma=   0.118
 Maximum number of real-space cells 3x 3x 3
 Maximum number of reciprocal cells 3x 3x 3

    FEWALD:  cpu time    0.0023: real time    0.0023


--------------------------------------- Iteration      1(   1)  ---------------------------------------


    POTLOK:  cpu time    1.1825: real time    1.1891
    SETDIJ:  cpu time    0.0182: real time    0.0182
     EDDAV:  cpu time    7.5307: real time    7.5363
       DOS:  cpu time    0.0011: real time    0.0011
    --------------------------------------------
      LOOP:  cpu time    8.7325: real time    8.7447

 eigenvalue-minimisations  :   376
 total energy-change (2. order) : 0.1117851E+04  (-0.4463355E+04)
 number of electron     153.0000000 magnetization       1.0000000
 augmentation part      153.0000000 magnetization       1.0000000

 Free energy of the ion-electron system (eV)
  ---------------------------------------------------
  alpha Z        PSCENC =        41.16232785
  Ewald energy   TEWEN  =     16350.79422786
  -Hartree energ DENC   =    -33372.95367065
  -exchange      EXHF   =         0.00000000
  -V(xc)+E(xc)   XCENC  =       623.49195553
  PAW double counting   =     16421.75059358   -17800.06104309
  entropy T*S    EENTRO =         0.01109660
  eigenvalues    EBANDS =       191.43636139
  atomic energy  EATOM  =     18662.21924712
  Solvation  Ediel_sol  =         0.00000000
  ---------------------------------------------------
  free energy    TOTEN  =      1117.85109619 eV

  energy without entropy =     1117.83999960  energy(sigma->0) =     1117.84739733


--------------------------------------------------------------------------------------------------------




--------------------------------------- Iteration      1(   2)  ---------------------------------------


     EDDAV:  cpu time    7.4153: real time    7.4233
       DOS:  cpu time    0.0009: real time    0.0009
    --------------------------------------------
      LOOP:  cpu time    7.4162: real time    7.4242

 eigenvalue-minimisations  :   368
 total energy-change (2. order) :-0.1029377E+04  (-0.9788266E+03)
 number of electron     153.0000000 magnetization       1.0000000
 augmentation part      153.0000000 magnetization       1.0000000

 Free energy of the ion-electron system (eV)
  ---------------------------------------------------
  alpha Z        PSCENC =        41.16232785
  Ewald energy   TEWEN  =     16350.79422786
  -Hartree energ DENC   =    -33372.95367065
  -exchange      EXHF   =         0.00000000
  -V(xc)+E(xc)   XCENC  =       623.49195553
  PAW double counting   =     16421.75059358   -17800.06104309
  entropy T*S    EENTRO =         0.02297511
  eigenvalues    EBANDS =      -837.95273488
  atomic energy  EATOM  =     18662.21924712
  Solvation  Ediel_sol  =         0.00000000
  ---------------------------------------------------
  free energy    TOTEN  =        88.47387842 eV

  energy without entropy =       88.45090332  energy(sigma->0) =       88.46622006


--------------------------------------------------------------------------------------------------------




--------------------------------------- Iteration      1(   3)  ---------------------------------------


     EDDAV:  cpu time   11.4579: real time   11.4647
       DOS:  cpu time    0.0006: real time    0.0006
    --------------------------------------------
      LOOP:  cpu time   11.4585: real time   11.4654

 eigenvalue-minimisations  :   640
 total energy-change (2. order) :-0.1228044E+03  (-0.1157275E+03)
 number of electron     153.0000000 magnetization       1.0000000
 augmentation part      153.0000000 magnetization       1.0000000

 Free energy of the ion-electron system (eV)
  ---------------------------------------------------
  alpha Z        PSCENC =        41.16232785
  Ewald energy   TEWEN  =     16350.79422786
  -Hartree energ DENC   =    -33372.95367065
  -exchange      EXHF   =         0.00000000
  -V(xc)+E(xc)   XCENC  =       623.49195553
  PAW double counting   =     16421.75059358   -17800.06104309
  entropy T*S    EENTRO =         0.00936161
  eigenvalues    EBANDS =      -960.74352559
  atomic energy  EATOM  =     18662.21924712
  Solvation  Ediel_sol  =         0.00000000
  ---------------------------------------------------
  free energy    TOTEN  =       -34.33052578 eV

  energy without entropy =      -34.33988739  energy(sigma->0) =      -34.33364632


--------------------------------------------------------------------------------------------------------




--------------------------------------- Iteration      1(   4)  ---------------------------------------


     EDDAV:  cpu time   10.1192: real time   10.1547
       DOS:  cpu time    0.0005: real time    0.0005
    --------------------------------------------
      LOOP:  cpu time   10.1198: real time   10.1552

 eigenvalue-minimisations  :   552
 total energy-change (2. order) :-0.2151016E+02  (-0.2114948E+02)
 number of electron     153.0000000 magnetization       1.0000000
 augmentation part      153.0000000 magnetization       1.0000000

 Free energy of the ion-electron system (eV)
  ---------------------------------------------------
  alpha Z        PSCENC =        41.16232785
  Ewald energy   TEWEN  =     16350.79422786
  -Hartree energ DENC   =    -33372.95367065
  -exchange      EXHF   =         0.00000000
  -V(xc)+E(xc)   XCENC  =       623.49195553
  PAW double counting   =     16421.75059358   -17800.06104309
  entropy T*S    EENTRO =         0.00906777
  eigenvalues    EBANDS =      -982.25339217
  atomic energy  EATOM  =     18662.21924712
  Solvation  Ediel_sol  =         0.00000000
  ---------------------------------------------------
  free energy    TOTEN  =       -55.84068620 eV

  energy without entropy =      -55.84975397  energy(sigma->0) =      -55.84370879


--------------------------------------------------------------------------------------------------------




--------------------------------------- Iteration      1(   5)  ---------------------------------------


     EDDAV:  cpu time   12.0436: real time   12.0533
       DOS:  cpu time    0.0008: real time    0.0008
    CHARGE:  cpu time    0.6853: real time    0.6858
    MIXING:  cpu time    0.0235: real time    0.0236
    --------------------------------------------
      LOOP:  cpu time   12.7533: real time   12.7635

 eigenvalue-minimisations  :   680
 total energy-change (2. order) :-0.1596577E+01  (-0.1464954E+01)
 number of electron     153.0000012 magnetization       1.0000000
 augmentation part       87.3462921 magnetization       0.3738480

 Broyden mixing:
  rms(total) = 0.24405E+01    rms(broyden)= 0.24404E+01
  rms(prec ) = 0.28038E+01
  weight for this iteration     100.00

 Free energy of the ion-electron system (eV)
  ---------------------------------------------------
  alpha Z        PSCENC =        41.16232785
  Ewald energy   TEWEN  =     16350.79422786
  -Hartree energ DENC   =    -33372.95367065
  -exchange      EXHF   =         0.00000000
  -V(xc)+E(xc)   XCENC  =       623.49195553
  PAW double counting   =     16421.75059358   -17800.06104309
  entropy T*S    EENTRO =         0.00913457
  eigenvalues    EBANDS =      -983.85003645
  atomic energy  EATOM  =     18662.21924712
  Solvation  Ediel_sol  =         0.00000000
  ---------------------------------------------------
  free energy    TOTEN  =       -57.43726367 eV

  energy without entropy =      -57.44639825  energy(sigma->0) =      -57.44030853


--------------------------------------------------------------------------------------------------------




--------------------------------------- Iteration      1(   6)  ---------------------------------------


    POTLOK:  cpu time    1.1663: real time    1.1674
    SETDIJ:  cpu time    0.0191: real time    0.0191
    EDDIAG:  cpu time    1.0921: real time    1.0929
  RMM-DIIS:  cpu time    6.9120: real time    6.9160
    ORTHCH:  cpu time    0.0580: real time    0.0580
       DOS:  cpu time    0.0005: real time    0.0005
    CHARGE:  cpu time    0.6510: real time    0.6514
    MIXING:  cpu time    0.0250: real time    0.0250
    --------------------------------------------
      LOOP:  cpu time    9.9239: real time    9.9303

 eigenvalue-minimisations  :   426
 total energy-change (2. order) : 0.6727494E-01  (-0.1291862E+02)
 number of electron     153.0000014 magnetization       1.0000000
 augmentation part       95.7421557 magnetization       0.0785766

 Broyden mixing:
  rms(total) = 0.16511E+01    rms(broyden)= 0.16510E+01
  rms(prec ) = 0.19057E+01
  weight for this iteration     100.00

 eigenvalues of (default mixing * dielectric matrix)
  average eigenvalue GAMMA=   0.6055
  0.6055

 Free energy of the ion-electron system (eV)
  ---------------------------------------------------
  alpha Z        PSCENC =        41.16232785
  Ewald energy   TEWEN  =     16350.79422786
  -Hartree energ DENC   =    -33115.29705096
  -exchange      EXHF   =         0.00000000
  -V(xc)+E(xc)   XCENC  =       611.11941688
  PAW double counting   =     16696.72027300   -18019.63752719
  entropy T*S    EENTRO =         0.00934865
  eigenvalues    EBANDS =     -1284.46025193
  atomic energy  EATOM  =     18662.21924712
  Solvation  Ediel_sol  =         0.00000000
  ---------------------------------------------------
  free energy    TOTEN  =       -57.36998873 eV

  energy without entropy =      -57.37933738  energy(sigma->0) =      -57.37310495


--------------------------------------------------------------------------------------------------------




--------------------------------------- Iteration      1(   7)  ---------------------------------------


    POTLOK:  cpu time    1.1653: real time    1.1667
    SETDIJ:  cpu time    0.0191: real time    0.0191
    EDDIAG:  cpu time    1.0916: real time    1.0923
  RMM-DIIS:  cpu time    7.2492: real time    7.2532
    ORTHCH:  cpu time    0.0581: real time    0.0582
       DOS:  cpu time    0.0004: real time    0.0004
    CHARGE:  cpu time    0.6482: real time    0.6486
    MIXING:  cpu time    0.0254: real time    0.0254
    --------------------------------------------
      LOOP:  cpu time   10.2573: real time   10.2638

 eigenvalue-minimisations  :   384
 total energy-change (2. order) : 0.8209626E+01  (-0.2742305E+01)
 number of electron     153.0000013 magnetization       1.0000000
 augmentation part       92.9256281 magnetization       0.1023492

 Broyden mixing:
  rms(total) = 0.41255E+00    rms(broyden)= 0.41253E+00
  rms(prec ) = 0.51128E+00
  weight for this iteration     100.00

 eigenvalues of (default mixing * dielectric matrix)
  average eigenvalue GAMMA=   0.9211
  1.1665  0.6757

 Free energy of the ion-electron system (eV)
  ---------------------------------------------------
  alpha Z        PSCENC =        41.16232785
  Ewald energy   TEWEN  =     16350.79422786
  -Hartree energ DENC   =    -33251.44493142
  -exchange      EXHF   =         0.00000000
  -V(xc)+E(xc)   XCENC  =       615.54856496
  PAW double counting   =     17037.84371014   -18411.00089198
  entropy T*S    EENTRO =         0.00935043
  eigenvalues    EBANDS =     -1094.29196786
  atomic energy  EATOM  =     18662.21924712
  Solvation  Ediel_sol  =         0.00000000
  ---------------------------------------------------
  free energy    TOTEN  =       -49.16036291 eV

  energy without entropy =      -49.16971334  energy(sigma->0) =      -49.16347972


--------------------------------------------------------------------------------------------------------




--------------------------------------- Iteration      1(   8)  ---------------------------------------


    POTLOK:  cpu time    1.1654: real time    1.1667
    SETDIJ:  cpu time    0.0187: real time    0.0187
    EDDIAG:  cpu time    1.0920: real time    1.0930
  RMM-DIIS:  cpu time    7.1047: real time    7.1090
    ORTHCH:  cpu time    0.0582: real time    0.0582
       DOS:  cpu time    0.0004: real time    0.0004
    CHARGE:  cpu time    0.6939: real time    0.6944
    MIXING:  cpu time    0.0261: real time    0.0262
    --------------------------------------------
      LOOP:  cpu time   10.1594: real time   10.1667

 eigenvalue-minimisations  :   426
 total energy-change (2. order) : 0.2476055E+00  (-0.5090845E+00)
 number of electron     153.0000013 magnetization       1.0000000
 augmentation part       92.0221975 magnetization       0.1011865

 Broyden mixing:
  rms(total) = 0.34928E+00    rms(broyden)= 0.34925E+00
  rms(prec ) = 0.39492E+00
  weight for this iteration     100.00

 eigenvalues of (default mixing * dielectric matrix)
  average eigenvalue GAMMA=   0.8845
  1.2676  0.6930  0.6930

 Free energy of the ion-electron system (eV)
  ---------------------------------------------------
  alpha Z        PSCENC =        41.16232785
  Ewald energy   TEWEN  =     16350.79422786
  -Hartree energ DENC   =    -33303.23529984
  -exchange      EXHF   =         0.00000000
  -V(xc)+E(xc)   XCENC  =       616.08891591
  PAW double counting   =     17396.92123131   -18790.57954895
  entropy T*S    EENTRO =         0.00921891
  eigenvalues    EBANDS =     -1022.29307759
  atomic energy  EATOM  =     18662.21924712
  Solvation  Ediel_sol  =         0.00000000
  ---------------------------------------------------
  free energy    TOTEN  =       -48.91275742 eV

  energy without entropy =      -48.92197634  energy(sigma->0) =      -48.91583039


--------------------------------------------------------------------------------------------------------




--------------------------------------- Iteration      1(   9)  ---------------------------------------


    POTLOK:  cpu time    1.1712: real time    1.1727
    SETDIJ:  cpu time    0.0186: real time    0.0185
    EDDIAG:  cpu time    1.0952: real time    1.0970
  RMM-DIIS:  cpu time    7.3128: real time    7.3170
    ORTHCH:  cpu time    0.0562: real time    0.0562
       DOS:  cpu time    0.0004: real time    0.0004
    CHARGE:  cpu time    0.6960: real time    0.6964
    MIXING:  cpu time    0.0256: real time    0.0256
    --------------------------------------------
      LOOP:  cpu time   10.3760: real time   10.3839

 eigenvalue-minimisations  :   401
 total energy-change (2. order) : 0.7400146E-01  (-0.1157601E+00)
 number of electron     153.0000013 magnetization       1.0000000
 augmentation part       92.2376333 magnetization       0.0917504

 Broyden mixing:
  rms(total) = 0.19577E+00    rms(broyden)= 0.19576E+00
  rms(prec ) = 0.23291E+00
  weight for this iteration     100.00

 eigenvalues of (default mixing * dielectric matrix)
  average eigenvalue GAMMA=   1.0271
  2.0592  0.7806  0.7806  0.4879

 Free energy of the ion-electron system (eV)
  ---------------------------------------------------
  alpha Z        PSCENC =        41.16232785
  Ewald energy   TEWEN  =     16350.79422786
  -Hartree energ DENC   =    -33299.65215001
  -exchange      EXHF   =         0.00000000
  -V(xc)+E(xc)   XCENC  =       615.63699263
  PAW double counting   =     17485.30106361   -18880.21329394
  entropy T*S    EENTRO =         0.00911350
  eigenvalues    EBANDS =     -1024.09628457
  atomic energy  EATOM  =     18662.21924712
  Solvation  Ediel_sol  =         0.00000000
  ---------------------------------------------------
  free energy    TOTEN  =       -48.83875596 eV

  energy without entropy =      -48.84786945  energy(sigma->0) =      -48.84179379


--------------------------------------------------------------------------------------------------------




--------------------------------------- Iteration      1(  10)  ---------------------------------------


    POTLOK:  cpu time    1.1688: real time    1.1705
    SETDIJ:  cpu time    0.0187: real time    0.0187
    EDDIAG:  cpu time    1.0941: real time    1.0947
  RMM-DIIS:  cpu time    7.6808: real time    7.6854
    ORTHCH:  cpu time    0.0565: real time    0.0565
       DOS:  cpu time    0.0004: real time    0.0004
    CHARGE:  cpu time    0.6944: real time    0.6948
    MIXING:  cpu time    0.0258: real time    0.0258
    --------------------------------------------
      LOOP:  cpu time   10.7396: real time   10.7469

 eigenvalue-minimisations  :   422
 total energy-change (2. order) : 0.6637046E-01  (-0.2320363E-01)
 number of electron     153.0000013 magnetization       1.0000000
 augmentation part       92.4532762 magnetization       0.0789818

 Broyden mixing:
  rms(total) = 0.77026E-01    rms(broyden)= 0.77023E-01
  rms(prec ) = 0.97702E-01
  weight for this iteration     100.00

 eigenvalues of (default mixing * dielectric matrix)
  average eigenvalue GAMMA=   1.0244
  2.1126  1.0167  0.7525  0.7525  0.4875

 Free energy of the ion-electron system (eV)
  ---------------------------------------------------
  alpha Z        PSCENC =        41.16232785
  Ewald energy   TEWEN  =     16350.79422786
  -Hartree energ DENC   =    -33296.74419591
  -exchange      EXHF   =         0.00000000
  -V(xc)+E(xc)   XCENC  =       615.10553262
  PAW double counting   =     17602.84549638   -18999.44739213
  entropy T*S    EENTRO =         0.00903404
  eigenvalues    EBANDS =     -1024.71666332
  atomic energy  EATOM  =     18662.21924712
  Solvation  Ediel_sol  =         0.00000000
  ---------------------------------------------------
  free energy    TOTEN  =       -48.77238550 eV

  energy without entropy =      -48.78141953  energy(sigma->0) =      -48.77539684


--------------------------------------------------------------------------------------------------------




--------------------------------------- Iteration      1(  11)  ---------------------------------------


    POTLOK:  cpu time    1.1692: real time    1.1719
    SETDIJ:  cpu time    0.0189: real time    0.0189
    EDDIAG:  cpu time    1.0900: real time    1.0906
  RMM-DIIS:  cpu time    7.3149: real time    7.3192
    ORTHCH:  cpu time    0.0579: real time    0.0579
       DOS:  cpu time    0.0005: real time    0.0005
    CHARGE:  cpu time    0.6879: real time    0.6884
    MIXING:  cpu time    0.0269: real time    0.0268
    --------------------------------------------
      LOOP:  cpu time   10.3660: real time   10.3742

 eigenvalue-minimisations  :   435
 total energy-change (2. order) : 0.1427170E-01  (-0.7813424E-02)
 number of electron     153.0000013 magnetization       1.0000000
 augmentation part       92.3714220 magnetization       0.0824544

 Broyden mixing:
  rms(total) = 0.33605E-01    rms(broyden)= 0.33601E-01
  rms(prec ) = 0.46356E-01
  weight for this iteration     100.00

 eigenvalues of (default mixing * dielectric matrix)
  average eigenvalue GAMMA=   1.0238
  2.1568  1.2863  0.8493  0.6788  0.6788  0.4930

 Free energy of the ion-electron system (eV)
  ---------------------------------------------------
  alpha Z        PSCENC =        41.16232785
  Ewald energy   TEWEN  =     16350.79422786
  -Hartree energ DENC   =    -33304.65345210
  -exchange      EXHF   =         0.00000000
  -V(xc)+E(xc)   XCENC  =       615.23592330
  PAW double counting   =     17648.00939578   -19046.78853339
  entropy T*S    EENTRO =         0.00896592
  eigenvalues    EBANDS =     -1014.74621613
  atomic energy  EATOM  =     18662.21924712
  Solvation  Ediel_sol  =         0.00000000
  ---------------------------------------------------
  free energy    TOTEN  =       -48.75811379 eV

  energy without entropy =      -48.76707971  energy(sigma->0) =      -48.76110243


--------------------------------------------------------------------------------------------------------




--------------------------------------- Iteration      1(  12)  ---------------------------------------


    POTLOK:  cpu time    1.1689: real time    1.1702
    SETDIJ:  cpu time    0.0186: real time    0.0186
    EDDIAG:  cpu time    1.0911: real time    1.0920
  RMM-DIIS:  cpu time    7.5664: real time    7.5705
    ORTHCH:  cpu time    0.0546: real time    0.0546
       DOS:  cpu time    0.0004: real time    0.0004
    CHARGE:  cpu time    0.6908: real time    0.6912
    MIXING:  cpu time    0.0274: real time    0.0275
    --------------------------------------------
      LOOP:  cpu time   10.6181: real time   10.6249

 eigenvalue-minimisations  :   437
 total energy-change (2. order) : 0.1855054E-02  (-0.2375905E-02)
 number of electron     153.0000013 magnetization       1.0000000
 augmentation part       92.3536513 magnetization       0.0819858

 Broyden mixing:
  rms(total) = 0.23997E-01    rms(broyden)= 0.23996E-01
  rms(prec ) = 0.34902E-01
  weight for this iteration     100.00

 eigenvalues of (default mixing * dielectric matrix)
  average eigenvalue GAMMA=   1.0726
  2.3444  1.6995  1.0616  0.6847  0.6847  0.5687  0.4644

 Free energy of the ion-electron system (eV)
  ---------------------------------------------------
  alpha Z        PSCENC =        41.16232785
  Ewald energy   TEWEN  =     16350.79422786
  -Hartree energ DENC   =    -33308.75250230
  -exchange      EXHF   =         0.00000000
  -V(xc)+E(xc)   XCENC  =       615.29931272
  PAW double counting   =     17660.37780870   -19059.77661382
  entropy T*S    EENTRO =         0.00896046
  eigenvalues    EBANDS =     -1010.08902732
  atomic energy  EATOM  =     18662.21924712
  Solvation  Ediel_sol  =         0.00000000
  ---------------------------------------------------
  free energy    TOTEN  =       -48.75625874 eV

  energy without entropy =      -48.76521920  energy(sigma->0) =      -48.75924556


--------------------------------------------------------------------------------------------------------




--------------------------------------- Iteration      1(  13)  ---------------------------------------


    POTLOK:  cpu time    1.1685: real time    1.1697
    SETDIJ:  cpu time    0.0186: real time    0.0186
    EDDIAG:  cpu time    1.0917: real time    1.0928
  RMM-DIIS:  cpu time    6.9804: real time    6.9846
    ORTHCH:  cpu time    0.0551: real time    0.0551
       DOS:  cpu time    0.0004: real time    0.0004
    CHARGE:  cpu time    0.6895: real time    0.6900
    MIXING:  cpu time    0.0282: real time    0.0282
    --------------------------------------------
      LOOP:  cpu time   10.0323: real time   10.0394

 eigenvalue-minimisations  :   420
 total energy-change (2. order) : 0.1486131E-02  (-0.6162874E-03)
 number of electron     153.0000013 magnetization       1.0000000
 augmentation part       92.3644455 magnetization       0.0827512

 Broyden mixing:
  rms(total) = 0.12343E-01    rms(broyden)= 0.12342E-01
  rms(prec ) = 0.21623E-01
  weight for this iteration     100.00

 eigenvalues of (default mixing * dielectric matrix)
  average eigenvalue GAMMA=   1.0996
  2.4423  1.8570  1.2539  0.7457  0.7457  0.7769  0.5238  0.4514

 Free energy of the ion-electron system (eV)
  ---------------------------------------------------
  alpha Z        PSCENC =        41.16232785
  Ewald energy   TEWEN  =     16350.79422786
  -Hartree energ DENC   =    -33312.41047965
  -exchange      EXHF   =         0.00000000
  -V(xc)+E(xc)   XCENC  =       615.31876644
  PAW double counting   =     17665.59662813   -19065.10174463
  entropy T*S    EENTRO =         0.00894689
  eigenvalues    EBANDS =     -1006.34269261
  atomic energy  EATOM  =     18662.21924712
  Solvation  Ediel_sol  =         0.00000000
  ---------------------------------------------------
  free energy    TOTEN  =       -48.75477261 eV

  energy without entropy =      -48.76371950  energy(sigma->0) =      -48.75775490


--------------------------------------------------------------------------------------------------------




--------------------------------------- Iteration      1(  14)  ---------------------------------------


    POTLOK:  cpu time    1.1685: real time    1.1689
    SETDIJ:  cpu time    0.0186: real time    0.0186
    EDDIAG:  cpu time    1.0916: real time    1.0922
  RMM-DIIS:  cpu time    6.9425: real time    6.9464
    ORTHCH:  cpu time    0.0549: real time    0.0554
       DOS:  cpu time    0.0004: real time    0.0004
    CHARGE:  cpu time    0.6920: real time    0.6925
    MIXING:  cpu time    0.0293: real time    0.0293
    --------------------------------------------
      LOOP:  cpu time    9.9978: real time   10.0037

 eigenvalue-minimisations  :   406
 total energy-change (2. order) :-0.8280070E-03  (-0.4597761E-03)
 number of electron     153.0000013 magnetization       1.0000000
 augmentation part       92.3855737 magnetization       0.0826261

 Broyden mixing:
  rms(total) = 0.11948E-01    rms(broyden)= 0.11948E-01
  rms(prec ) = 0.18180E-01
  weight for this iteration     100.00

 eigenvalues of (default mixing * dielectric matrix)
  average eigenvalue GAMMA=   1.1188
  2.2896  2.2896  1.3119  1.0633  0.7240  0.7240  0.7089  0.5000  0.4582

 Free energy of the ion-electron system (eV)
  ---------------------------------------------------
  alpha Z        PSCENC =        41.16232785
  Ewald energy   TEWEN  =     16350.79422786
  -Hartree energ DENC   =    -33316.36070665
  -exchange      EXHF   =         0.00000000
  -V(xc)+E(xc)   XCENC  =       615.33030552
  PAW double counting   =     17660.81117556   -19059.98405928
  entropy T*S    EENTRO =         0.00894254
  eigenvalues    EBANDS =     -1002.73706113
  atomic energy  EATOM  =     18662.21924712
  Solvation  Ediel_sol  =         0.00000000
  ---------------------------------------------------
  free energy    TOTEN  =       -48.75560061 eV

  energy without entropy =      -48.76454315  energy(sigma->0) =      -48.75858146


--------------------------------------------------------------------------------------------------------




--------------------------------------- Iteration      1(  15)  ---------------------------------------


    POTLOK:  cpu time    1.1690: real time    1.1701
    SETDIJ:  cpu time    0.0181: real time    0.0181
    EDDIAG:  cpu time    1.0918: real time    1.0932
  RMM-DIIS:  cpu time    6.6580: real time    6.6625
    ORTHCH:  cpu time    0.0554: real time    0.0554
       DOS:  cpu time    0.0004: real time    0.0004
    CHARGE:  cpu time    0.6790: real time    0.6794
    MIXING:  cpu time    0.0300: real time    0.0300
    --------------------------------------------
      LOOP:  cpu time    9.7017: real time    9.7091

 eigenvalue-minimisations  :   406
 total energy-change (2. order) :-0.1347936E-02  (-0.1641154E-03)
 number of electron     153.0000013 magnetization       1.0000000
 augmentation part       92.3822481 magnetization       0.0829541

 Broyden mixing:
  rms(total) = 0.87235E-02    rms(broyden)= 0.87234E-02
  rms(prec ) = 0.13036E-01
  weight for this iteration     100.00

 eigenvalues of (default mixing * dielectric matrix)
  average eigenvalue GAMMA=   1.1779
  2.6354  2.6354  1.3638  1.3638  0.8025  0.7322  0.7322  0.5672  0.4869  0.4599

 Free energy of the ion-electron system (eV)
  ---------------------------------------------------
  alpha Z        PSCENC =        41.16232785
  Ewald energy   TEWEN  =     16350.79422786
  -Hartree energ DENC   =    -33320.19740662
  -exchange      EXHF   =         0.00000000
  -V(xc)+E(xc)   XCENC  =       615.36623988
  PAW double counting   =     17654.57726857   -19053.58513193
  entropy T*S    EENTRO =         0.00893707
  eigenvalues    EBANDS =      -999.10265835
  atomic energy  EATOM  =     18662.21924712
  Solvation  Ediel_sol  =         0.00000000
  ---------------------------------------------------
  free energy    TOTEN  =       -48.75694855 eV

  energy without entropy =      -48.76588562  energy(sigma->0) =      -48.75992757


--------------------------------------------------------------------------------------------------------




--------------------------------------- Iteration      1(  16)  ---------------------------------------


    POTLOK:  cpu time    1.1711: real time    1.1722
    SETDIJ:  cpu time    0.0184: real time    0.0184
    EDDIAG:  cpu time    1.0908: real time    1.0916
  RMM-DIIS:  cpu time    6.5568: real time    6.5611
    ORTHCH:  cpu time    0.0546: real time    0.0546
       DOS:  cpu time    0.0004: real time    0.0004
    CHARGE:  cpu time    0.6856: real time    0.6858
    MIXING:  cpu time    0.0305: real time    0.0305
    --------------------------------------------
      LOOP:  cpu time    9.6082: real time    9.6145

 eigenvalue-minimisations  :   397
 total energy-change (2. order) :-0.1338154E-02  (-0.1476042E-03)
 number of electron     153.0000013 magnetization       1.0000000
 augmentation part       92.3690596 magnetization       0.0832761

 Broyden mixing:
  rms(total) = 0.57602E-02    rms(broyden)= 0.57594E-02
  rms(prec ) = 0.83002E-02
  weight for this iteration     100.00

 eigenvalues of (default mixing * dielectric matrix)
  average eigenvalue GAMMA=   1.2116
  3.0717  2.6807  1.4508  1.4508  0.9784  0.7443  0.7443  0.7333  0.4536  0.5145
  0.5056

 Free energy of the ion-electron system (eV)
  ---------------------------------------------------
  alpha Z        PSCENC =        41.16232785
  Ewald energy   TEWEN  =     16350.79422786
  -Hartree energ DENC   =    -33323.36502783
  -exchange      EXHF   =         0.00000000
  -V(xc)+E(xc)   XCENC  =       615.40337905
  PAW double counting   =     17651.07305021   -19050.08940661
  entropy T*S    EENTRO =         0.00893278
  eigenvalues    EBANDS =      -995.96501713
  atomic energy  EATOM  =     18662.21924712
  Solvation  Ediel_sol  =         0.00000000
  ---------------------------------------------------
  free energy    TOTEN  =       -48.75828670 eV

  energy without entropy =      -48.76721949  energy(sigma->0) =      -48.76126430


--------------------------------------------------------------------------------------------------------




--------------------------------------- Iteration      1(  17)  ---------------------------------------


    POTLOK:  cpu time    1.1699: real time    1.1730
    SETDIJ:  cpu time    0.0187: real time    0.0187
    EDDIAG:  cpu time    1.0896: real time    1.0903
  RMM-DIIS:  cpu time    6.6419: real time    6.6455
    ORTHCH:  cpu time    0.0554: real time    0.0554
       DOS:  cpu time    0.0004: real time    0.0004
    CHARGE:  cpu time    0.6782: real time    0.6787
    MIXING:  cpu time    0.0321: real time    0.0321
    --------------------------------------------
      LOOP:  cpu time    9.6861: real time    9.6940

 eigenvalue-minimisations  :   399
 total energy-change (2. order) :-0.1707011E-02  (-0.5568724E-04)
 number of electron     153.0000013 magnetization       1.0000000
 augmentation part       92.3718215 magnetization       0.0831447

 Broyden mixing:
  rms(total) = 0.27783E-02    rms(broyden)= 0.27783E-02
  rms(prec ) = 0.44236E-02
  weight for this iteration     100.00

 eigenvalues of (default mixing * dielectric matrix)
  average eigenvalue GAMMA=   1.3116
  4.2006  2.5441  1.8819  1.5371  1.1617  0.7505  0.7505  0.7863  0.6598  0.5289
  0.4548  0.4829

 Free energy of the ion-electron system (eV)
  ---------------------------------------------------
  alpha Z        PSCENC =        41.16232785
  Ewald energy   TEWEN  =     16350.79422786
  -Hartree energ DENC   =    -33325.34342272
  -exchange      EXHF   =         0.00000000
  -V(xc)+E(xc)   XCENC  =       615.41473327
  PAW double counting   =     17648.63621715   -19047.60431026
  entropy T*S    EENTRO =         0.00893572
  eigenvalues    EBANDS =      -994.04794970
  atomic energy  EATOM  =     18662.21924712
  Solvation  Ediel_sol  =         0.00000000
  ---------------------------------------------------
  free energy    TOTEN  =       -48.75999371 eV

  energy without entropy =      -48.76892944  energy(sigma->0) =      -48.76297229


--------------------------------------------------------------------------------------------------------




--------------------------------------- Iteration      1(  18)  ---------------------------------------


    POTLOK:  cpu time    1.1719: real time    1.1724
    SETDIJ:  cpu time    0.0184: real time    0.0184
    EDDIAG:  cpu time    1.0902: real time    1.0910
  RMM-DIIS:  cpu time    6.5216: real time    6.5253
    ORTHCH:  cpu time    0.0554: real time    0.0554
       DOS:  cpu time    0.0005: real time    0.0005
    CHARGE:  cpu time    0.6852: real time    0.6856
    MIXING:  cpu time    0.0332: real time    0.0332
    --------------------------------------------
      LOOP:  cpu time    9.5762: real time    9.5818

 eigenvalue-minimisations  :   401
 total energy-change (2. order) :-0.8506704E-03  (-0.2050241E-04)
 number of electron     153.0000013 magnetization       1.0000000
 augmentation part       92.3730959 magnetization       0.0832560

 Broyden mixing:
  rms(total) = 0.14584E-02    rms(broyden)= 0.14584E-02
  rms(prec ) = 0.27267E-02
  weight for this iteration     100.00

 eigenvalues of (default mixing * dielectric matrix)
  average eigenvalue GAMMA=   1.3486
  4.9454  2.6082  2.1589  1.2781  1.2781  0.9394  0.7487  0.7487  0.7952  0.5814
  0.5130  0.4549  0.4817

 Free energy of the ion-electron system (eV)
  ---------------------------------------------------
  alpha Z        PSCENC =        41.16232785
  Ewald energy   TEWEN  =     16350.79422786
  -Hartree energ DENC   =    -33326.24482768
  -exchange      EXHF   =         0.00000000
  -V(xc)+E(xc)   XCENC  =       615.41575553
  PAW double counting   =     17648.20496425   -19047.16450855
  entropy T*S    EENTRO =         0.00893417
  eigenvalues    EBANDS =      -993.15696493
  atomic energy  EATOM  =     18662.21924712
  Solvation  Ediel_sol  =         0.00000000
  ---------------------------------------------------
  free energy    TOTEN  =       -48.76084438 eV

  energy without entropy =      -48.76977856  energy(sigma->0) =      -48.76382244


--------------------------------------------------------------------------------------------------------




--------------------------------------- Iteration      1(  19)  ---------------------------------------


    POTLOK:  cpu time    1.1706: real time    1.1726
    SETDIJ:  cpu time    0.0187: real time    0.0187
    EDDIAG:  cpu time    1.0908: real time    1.0916
  RMM-DIIS:  cpu time    7.5940: real time    7.5984
    ORTHCH:  cpu time    0.0545: real time    0.0545
       DOS:  cpu time    0.0004: real time    0.0004
    CHARGE:  cpu time    0.6756: real time    0.6759
    MIXING:  cpu time    0.0348: real time    0.0348
    --------------------------------------------
      LOOP:  cpu time   10.6395: real time   10.6469

 eigenvalue-minimisations  :   463
 total energy-change (2. order) :-0.7976653E-03  (-0.1396612E-04)
 number of electron     153.0000013 magnetization       1.0000000
 augmentation part       92.3723394 magnetization       0.0833733

 Broyden mixing:
  rms(total) = 0.11341E-02    rms(broyden)= 0.11340E-02
  rms(prec ) = 0.19542E-02
  weight for this iteration     100.00

 eigenvalues of (default mixing * dielectric matrix)
  average eigenvalue GAMMA=   1.4132
  5.6497  2.7526  2.1954  1.5184  1.5184  1.0636  0.8966  0.7434  0.7434  0.6950
  0.5678  0.4542  0.5034  0.4826

 Free energy of the ion-electron system (eV)
  ---------------------------------------------------
  alpha Z        PSCENC =        41.16232785
  Ewald energy   TEWEN  =     16350.79422786
  -Hartree energ DENC   =    -33326.88347463
  -exchange      EXHF   =         0.00000000
  -V(xc)+E(xc)   XCENC  =       615.41468057
  PAW double counting   =     17648.40973170   -19047.38128335
  entropy T*S    EENTRO =         0.00893223
  eigenvalues    EBANDS =      -992.50603140
  atomic energy  EATOM  =     18662.21924712
  Solvation  Ediel_sol  =         0.00000000
  ---------------------------------------------------
  free energy    TOTEN  =       -48.76164205 eV

  energy without entropy =      -48.77057428  energy(sigma->0) =      -48.76461946


--------------------------------------------------------------------------------------------------------




--------------------------------------- Iteration      1(  20)  ---------------------------------------


    POTLOK:  cpu time    1.1708: real time    1.1717
    SETDIJ:  cpu time    0.0188: real time    0.0188
    EDDIAG:  cpu time    1.0903: real time    1.0913
  RMM-DIIS:  cpu time    6.6036: real time    6.6076
    ORTHCH:  cpu time    0.0547: real time    0.0548
       DOS:  cpu time    0.0004: real time    0.0004
    CHARGE:  cpu time    0.6777: real time    0.6782
    MIXING:  cpu time    0.0360: real time    0.0360
    --------------------------------------------
      LOOP:  cpu time    9.6522: real time    9.6588

 eigenvalue-minimisations  :   411
 total energy-change (2. order) :-0.5613814E-03  (-0.5060152E-05)
 number of electron     153.0000013 magnetization       1.0000000
 augmentation part       92.3723596 magnetization       0.0833709

 Broyden mixing:
  rms(total) = 0.80382E-03    rms(broyden)= 0.80380E-03
  rms(prec ) = 0.13532E-02
  weight for this iteration     100.00

 eigenvalues of (default mixing * dielectric matrix)
  average eigenvalue GAMMA=   1.4486
  6.2636  2.8356  2.2943  1.8864  1.4585  1.0506  1.0506  0.7486  0.7486  0.7734
  0.6369  0.4549  0.5243  0.5243  0.4786

 Free energy of the ion-electron system (eV)
  ---------------------------------------------------
  alpha Z        PSCENC =        41.16232785
  Ewald energy   TEWEN  =     16350.79422786
  -Hartree energ DENC   =    -33327.08612529
  -exchange      EXHF   =         0.00000000
  -V(xc)+E(xc)   XCENC  =       615.41387619
  PAW double counting   =     17648.65472834   -19047.63778463
  entropy T*S    EENTRO =         0.00893289
  eigenvalues    EBANDS =      -992.29163377
  atomic energy  EATOM  =     18662.21924712
  Solvation  Ediel_sol  =         0.00000000
  ---------------------------------------------------
  free energy    TOTEN  =       -48.76220343 eV

  energy without entropy =      -48.77113632  energy(sigma->0) =      -48.76518106


--------------------------------------------------------------------------------------------------------




--------------------------------------- Iteration      1(  21)  ---------------------------------------


    POTLOK:  cpu time    1.1708: real time    1.1721
    SETDIJ:  cpu time    0.0184: real time    0.0184
    EDDIAG:  cpu time    1.0910: real time    1.0918
  RMM-DIIS:  cpu time    6.7182: real time    6.7219
    ORTHCH:  cpu time    0.0550: real time    0.0551
       DOS:  cpu time    0.0004: real time    0.0004
    CHARGE:  cpu time    0.6767: real time    0.6772
    MIXING:  cpu time    0.0372: real time    0.0372
    --------------------------------------------
      LOOP:  cpu time    9.7676: real time    9.7740

 eigenvalue-minimisations  :   410
 total energy-change (2. order) :-0.3573873E-03  (-0.2663794E-05)
 number of electron     153.0000013 magnetization       1.0000000
 augmentation part       92.3731004 magnetization       0.0833300

 Broyden mixing:
  rms(total) = 0.56975E-03    rms(broyden)= 0.56971E-03
  rms(prec ) = 0.91967E-03
  weight for this iteration     100.00

 eigenvalues of (default mixing * dielectric matrix)
  average eigenvalue GAMMA=   1.4787
  6.5871  3.1338  2.3919  2.1431  1.3557  1.3557  0.9446  0.9446  0.7472  0.7472
  0.7150  0.6213  0.4549  0.5304  0.5077  0.4783

 Free energy of the ion-electron system (eV)
  ---------------------------------------------------
  alpha Z        PSCENC =        41.16232785
  Ewald energy   TEWEN  =     16350.79422786
  -Hartree energ DENC   =    -33327.07177177
  -exchange      EXHF   =         0.00000000
  -V(xc)+E(xc)   XCENC  =       615.41300158
  PAW double counting   =     17648.79454985   -19047.77863144
  entropy T*S    EENTRO =         0.00893408
  eigenvalues    EBANDS =      -992.30444595
  atomic energy  EATOM  =     18662.21924712
  Solvation  Ediel_sol  =         0.00000000
  ---------------------------------------------------
  free energy    TOTEN  =       -48.76256082 eV

  energy without entropy =      -48.77149490  energy(sigma->0) =      -48.76553884


--------------------------------------------------------------------------------------------------------




--------------------------------------- Iteration      1(  22)  ---------------------------------------


    POTLOK:  cpu time    1.1679: real time    1.1696
    SETDIJ:  cpu time    0.0188: real time    0.0188
    EDDIAG:  cpu time    1.0920: real time    1.0928
  RMM-DIIS:  cpu time    6.4835: real time    6.4871
    ORTHCH:  cpu time    0.0544: real time    0.0544
       DOS:  cpu time    0.0004: real time    0.0004
    CHARGE:  cpu time    0.6827: real time    0.6834
    MIXING:  cpu time    0.0390: real time    0.0390
    --------------------------------------------
      LOOP:  cpu time    9.5387: real time    9.5454

 eigenvalue-minimisations  :   398
 total energy-change (2. order) :-0.2815226E-03  (-0.2213606E-05)
 number of electron     153.0000013 magnetization       1.0000000
 augmentation part       92.3731030 magnetization       0.0833233

 Broyden mixing:
  rms(total) = 0.39242E-03    rms(broyden)= 0.39240E-03
  rms(prec ) = 0.63004E-03
  weight for this iteration     100.00

 eigenvalues of (default mixing * dielectric matrix)
  average eigenvalue GAMMA=   1.5409
  7.0576  3.8342  2.4903  2.0831  1.5625  1.5625  1.0628  1.0628  0.7526  0.7526
  0.7250  0.6995  0.5780  0.4545  0.5323  0.4805  0.5039

 Free energy of the ion-electron system (eV)
  ---------------------------------------------------
  alpha Z        PSCENC =        41.16232785
  Ewald energy   TEWEN  =     16350.79422786
  -Hartree energ DENC   =    -33327.11947329
  -exchange      EXHF   =         0.00000000
  -V(xc)+E(xc)   XCENC  =       615.41214098
  PAW double counting   =     17648.95187166   -19047.93658629
  entropy T*S    EENTRO =         0.00893431
  eigenvalues    EBANDS =      -992.25553254
  atomic energy  EATOM  =     18662.21924712
  Solvation  Ediel_sol  =         0.00000000
  ---------------------------------------------------
  free energy    TOTEN  =       -48.76284234 eV

  energy without entropy =      -48.77177665  energy(sigma->0) =      -48.76582044


--------------------------------------------------------------------------------------------------------




--------------------------------------- Iteration      1(  23)  ---------------------------------------


    POTLOK:  cpu time    1.1715: real time    1.1721
    SETDIJ:  cpu time    0.0188: real time    0.0188
    EDDIAG:  cpu time    1.0911: real time    1.0918
  RMM-DIIS:  cpu time    6.7466: real time    6.7506
    ORTHCH:  cpu time    0.0543: real time    0.0543
       DOS:  cpu time    0.0004: real time    0.0004
    CHARGE:  cpu time    0.6828: real time    0.6830
    MIXING:  cpu time    0.0428: real time    0.0428
    --------------------------------------------
      LOOP:  cpu time    9.8083: real time    9.8139

 eigenvalue-minimisations  :   408
 total energy-change (2. order) :-0.1388332E-03  (-0.9234353E-06)
 number of electron     153.0000013 magnetization       1.0000000
 augmentation part       92.3729150 magnetization       0.0833257

 Broyden mixing:
  rms(total) = 0.22734E-03    rms(broyden)= 0.22733E-03
  rms(prec ) = 0.36934E-03
  weight for this iteration     100.00

 eigenvalues of (default mixing * dielectric matrix)
  average eigenvalue GAMMA=   1.5581
  7.3783  4.2739  2.5038  2.0786  1.8924  1.2919  1.2919  0.9520  0.9520  0.7493
  0.7493  0.7353  0.6697  0.5685  0.4546  0.4794  0.5124  0.5124

 Free energy of the ion-electron system (eV)
  ---------------------------------------------------
  alpha Z        PSCENC =        41.16232785
  Ewald energy   TEWEN  =     16350.79422786
  -Hartree energ DENC   =    -33327.19020297
  -exchange      EXHF   =         0.00000000
  -V(xc)+E(xc)   XCENC  =       615.41167521
  PAW double counting   =     17649.00081277   -19047.98477250
  entropy T*S    EENTRO =         0.00893393
  eigenvalues    EBANDS =      -992.18523044
  atomic energy  EATOM  =     18662.21924712
  Solvation  Ediel_sol  =         0.00000000
  ---------------------------------------------------
  free energy    TOTEN  =       -48.76298117 eV

  energy without entropy =      -48.77191510  energy(sigma->0) =      -48.76595915


--------------------------------------------------------------------------------------------------------




--------------------------------------- Iteration      1(  24)  ---------------------------------------


    POTLOK:  cpu time    1.1711: real time    1.1747
    SETDIJ:  cpu time    0.0189: real time    0.0189
    EDDIAG:  cpu time    1.0907: real time    1.0915
  RMM-DIIS:  cpu time    6.8548: real time    6.8587
    ORTHCH:  cpu time    0.0549: real time    0.0549
       DOS:  cpu time    0.0004: real time    0.0004
    CHARGE:  cpu time    0.6766: real time    0.6768
    MIXING:  cpu time    0.0438: real time    0.0438
    --------------------------------------------
      LOOP:  cpu time    9.9113: real time    9.9196

 eigenvalue-minimisations  :   393
 total energy-change (2. order) :-0.8856605E-04  (-0.5325483E-06)
 number of electron     153.0000013 magnetization       1.0000000
 augmentation part       92.3726182 magnetization       0.0833206

 Broyden mixing:
  rms(total) = 0.14306E-03    rms(broyden)= 0.14306E-03
  rms(prec ) = 0.24282E-03
  weight for this iteration     100.00

 eigenvalues of (default mixing * dielectric matrix)
  average eigenvalue GAMMA=   1.5876
  7.6889  4.5754  2.4081  2.4081  1.8424  1.4852  1.4852  1.0446  1.0446  0.7604
  0.7604  0.7493  0.7493  0.6332  0.4546  0.5657  0.4796  0.5105  0.5181

 Free energy of the ion-electron system (eV)
  ---------------------------------------------------
  alpha Z        PSCENC =        41.16232785
  Ewald energy   TEWEN  =     16350.79422786
  -Hartree energ DENC   =    -33327.22552746
  -exchange      EXHF   =         0.00000000
  -V(xc)+E(xc)   XCENC  =       615.41214711
  PAW double counting   =     17648.97369818   -19047.96003565
  entropy T*S    EENTRO =         0.00893383
  eigenvalues    EBANDS =      -992.14808858
  atomic energy  EATOM  =     18662.21924712
  Solvation  Ediel_sol  =         0.00000000
  ---------------------------------------------------
  free energy    TOTEN  =       -48.76306974 eV

  energy without entropy =      -48.77200357  energy(sigma->0) =      -48.76604769


--------------------------------------------------------------------------------------------------------




--------------------------------------- Iteration      1(  25)  ---------------------------------------


    POTLOK:  cpu time    1.1701: real time    1.1718
    SETDIJ:  cpu time    0.0183: real time    0.0183
    EDDIAG:  cpu time    1.0910: real time    1.0916
  RMM-DIIS:  cpu time    6.7359: real time    6.7398
    ORTHCH:  cpu time    0.0549: real time    0.0549
       DOS:  cpu time    0.0004: real time    0.0004
    CHARGE:  cpu time    0.6773: real time    0.6777
    MIXING:  cpu time    0.0453: real time    0.0453
    --------------------------------------------
      LOOP:  cpu time    9.7932: real time    9.7999

 eigenvalue-minimisations  :   392
 total energy-change (2. order) :-0.7732124E-04  (-0.6995865E-06)
 number of electron     153.0000013 magnetization       1.0000000
 augmentation part       92.3726572 magnetization       0.0833238

 Broyden mixing:
  rms(total) = 0.11912E-03    rms(broyden)= 0.11910E-03
  rms(prec ) = 0.17770E-03
  weight for this iteration     100.00

 eigenvalues of (default mixing * dielectric matrix)
  average eigenvalue GAMMA=   1.6210
  7.9887  4.9516  2.6326  2.6326  1.8134  1.8134  1.2857  1.2857  0.9265  0.9265
  0.7467  0.7467  0.7537  0.7537  0.6365  0.4546  0.5648  0.4794  0.5140  0.5140

 Free energy of the ion-electron system (eV)
  ---------------------------------------------------
  alpha Z        PSCENC =        41.16232785
  Ewald energy   TEWEN  =     16350.79422786
  -Hartree energ DENC   =    -33327.22495181
  -exchange      EXHF   =         0.00000000
  -V(xc)+E(xc)   XCENC  =       615.41229060
  PAW double counting   =     17648.86302357   -19047.84693119
  entropy T*S    EENTRO =         0.00893407
  eigenvalues    EBANDS =      -992.15131512
  atomic energy  EATOM  =     18662.21924712
  Solvation  Ediel_sol  =         0.00000000
  ---------------------------------------------------
  free energy    TOTEN  =       -48.76314706 eV

  energy without entropy =      -48.77208113  energy(sigma->0) =      -48.76612508


--------------------------------------------------------------------------------------------------------




--------------------------------------- Iteration      1(  26)  ---------------------------------------


    POTLOK:  cpu time    1.1685: real time    1.1700
    SETDIJ:  cpu time    0.0188: real time    0.0188
    EDDIAG:  cpu time    1.0915: real time    1.0921
  RMM-DIIS:  cpu time    5.7956: real time    5.7989
    ORTHCH:  cpu time    0.0550: real time    0.0550
       DOS:  cpu time    0.0004: real time    0.0004
    CHARGE:  cpu time    0.6923: real time    0.6927
    MIXING:  cpu time    0.0481: real time    0.0481
    --------------------------------------------
      LOOP:  cpu time    8.8700: real time    8.8759

 eigenvalue-minimisations  :   350
 total energy-change (2. order) :-0.3032756E-04  (-0.2788171E-06)
 number of electron     153.0000013 magnetization       1.0000000
 augmentation part       92.3728545 magnetization       0.0833337

 Broyden mixing:
  rms(total) = 0.67936E-04    rms(broyden)= 0.67934E-04
  rms(prec ) = 0.10226E-03
  weight for this iteration     100.00

 eigenvalues of (default mixing * dielectric matrix)
  average eigenvalue GAMMA=   1.6328
  8.1503  5.2824  2.9858  2.5811  1.8762  1.8762  1.3264  1.3264  0.9970  0.9970
  0.7907  0.7907  0.7453  0.7453  0.6462  0.6462  0.4546  0.5658  0.4796  0.5129
  0.5129

 Free energy of the ion-electron system (eV)
  ---------------------------------------------------
  alpha Z        PSCENC =        41.16232785
  Ewald energy   TEWEN  =     16350.79422786
  -Hartree energ DENC   =    -33327.21521161
  -exchange      EXHF   =         0.00000000
  -V(xc)+E(xc)   XCENC  =       615.41198453
  PAW double counting   =     17648.81203222   -19047.79286009
  entropy T*S    EENTRO =         0.00893398
  eigenvalues    EBANDS =      -992.16385924
  atomic energy  EATOM  =     18662.21924712
  Solvation  Ediel_sol  =         0.00000000
  ---------------------------------------------------
  free energy    TOTEN  =       -48.76317739 eV

  energy without entropy =      -48.77211137  energy(sigma->0) =      -48.76615538


--------------------------------------------------------------------------------------------------------




--------------------------------------- Iteration      1(  27)  ---------------------------------------


    POTLOK:  cpu time    1.1682: real time    1.1688
    SETDIJ:  cpu time    0.0188: real time    0.0188
    EDDIAG:  cpu time    1.0825: real time    1.0955
  RMM-DIIS:  cpu time    5.1569: real time    5.1608
    ORTHCH:  cpu time    0.0552: real time    0.0552
       DOS:  cpu time    0.0004: real time    0.0004
    CHARGE:  cpu time    0.6753: real time    0.6758
    MIXING:  cpu time    0.0536: real time    0.0536
    --------------------------------------------
      LOOP:  cpu time    8.2110: real time    8.2291

 eigenvalue-minimisations  :   293
 total energy-change (2. order) :-0.1295594E-04  (-0.1205301E-06)
 number of electron     153.0000013 magnetization       1.0000000
 augmentation part       92.3728933 magnetization       0.0833235

 Broyden mixing:
  rms(total) = 0.78453E-04    rms(broyden)= 0.78450E-04
  rms(prec ) = 0.10067E-03
  weight for this iteration     100.00

 eigenvalues of (default mixing * dielectric matrix)
  average eigenvalue GAMMA=   1.6304
  8.2208  5.5897  3.2278  2.4802  1.9633  1.9053  1.4166  1.4166  0.9838  0.9838
  0.8757  0.8757  0.7467  0.7467  0.6637  0.6213  0.6213  0.4546  0.5707  0.4796
  0.5129  0.5129

 Free energy of the ion-electron system (eV)
  ---------------------------------------------------
  alpha Z        PSCENC =        41.16232785
  Ewald energy   TEWEN  =     16350.79422786
  -Hartree energ DENC   =    -33327.21245985
  -exchange      EXHF   =         0.00000000
  -V(xc)+E(xc)   XCENC  =       615.41182320
  PAW double counting   =     17648.80762658   -19047.78805459
  entropy T*S    EENTRO =         0.00893392
  eigenvalues    EBANDS =      -992.16686243
  atomic energy  EATOM  =     18662.21924712
  Solvation  Ediel_sol  =         0.00000000
  ---------------------------------------------------
  free energy    TOTEN  =       -48.76319035 eV

  energy without entropy =      -48.77212427  energy(sigma->0) =      -48.76616832


--------------------------------------------------------------------------------------------------------




--------------------------------------- Iteration      1(  28)  ---------------------------------------


    POTLOK:  cpu time    1.1673: real time    1.1681
    SETDIJ:  cpu time    0.0183: real time    0.0186
    EDDIAG:  cpu time    1.0903: real time    1.0909
  RMM-DIIS:  cpu time    4.3746: real time    4.3781
    ORTHCH:  cpu time    0.0556: real time    0.0556
       DOS:  cpu time    0.0005: real time    0.0005
    CHARGE:  cpu time    0.6756: real time    0.6758
    MIXING:  cpu time    0.0556: real time    0.0556
[...]
     66      -4.9173      1.00000
     67      -4.8908      1.00000
     68      -4.8861      1.00000
     69      -4.8767      1.00000
     70      -4.8276      1.00000
     71      -4.8208      1.00000
     72      -4.7681      1.00000
     73      -4.7344      1.00000
     74      -4.5668      1.00000
     75      -4.1493      1.00000
     76      -4.0995      1.00000
     77      -3.5811      1.00000
     78      -3.0293     -0.00000
     79      -2.9641     -0.00000
     80      -2.5481     -0.00000
     81      -2.4403     -0.00000
     82      -1.9867     -0.00000
     83      -1.8991     -0.00000
     84      -1.7648     -0.00000
     85      -1.4392     -0.00000
     86      -1.0994     -0.00000
     87      -0.9510     -0.00000
     88      -0.6330      0.00000
     89      -0.3817      0.00000
     90      -0.2753      0.00000
     91      -0.1027      0.00000
     92       0.0773      0.00000

 spin component 2

 k-point     1 :       0.0000    0.0000    0.0000
  band No.  band energies     occupation 
      1     -28.1654      1.00000
      2     -13.9338      1.00000
      3     -11.3149      1.00000
      4     -10.9779      1.00000
      5     -10.9562      1.00000
      6     -10.1701      1.00000
      7      -8.5350      1.00000
      8      -8.1923      1.00000
      9      -7.7421      1.00000
     10      -7.5135      1.00000
     11      -7.4155      1.00000
     12      -7.3567      1.00000
     13      -7.3158      1.00000
     14      -7.2317      1.00000
     15      -7.0966      1.00000
     16      -7.0010      1.00000
     17      -6.8056      1.00000
     18      -6.7466      1.00000
     19      -6.6982      1.00000
     20      -6.6528      1.00000
     21      -6.6130      1.00000
     22      -6.5736      1.00000
     23      -6.5249      1.00000
     24      -6.4840      1.00000
     25      -6.4321      1.00000
     26      -6.4279      1.00000
     27      -6.3721      1.00000
     28      -6.2970      1.00000
     29      -6.2610      1.00000
     30      -6.2252      1.00000
     31      -6.1797      1.00000
     32      -6.1227      1.00000
     33      -6.0992      1.00000
     34      -6.0620      1.00000
     35      -5.9731      1.00000
     36      -5.8633      1.00000
     37      -5.7731      1.00000
     38      -5.7269      1.00000
     39      -5.6752      1.00000
     40      -5.6259      1.00000
     41      -5.5887      1.00000
     42      -5.5258      1.00000
     43      -5.4934      1.00000
     44      -5.4659      1.00000
     45      -5.4269      1.00000
     46      -5.3927      1.00000
     47      -5.3676      1.00000
     48      -5.3594      1.00000
     49      -5.3474      1.00000
     50      -5.3210      1.00000
     51      -5.2910      1.00000
     52      -5.2438      1.00000
     53      -5.2293      1.00000
     54      -5.1877      1.00000
     55      -5.1817      1.00000
     56      -5.1403      1.00000
     57      -5.1297      1.00000
     58      -5.1177      1.00000
     59      -5.1135      1.00000
     60      -5.0685      1.00000
     61      -5.0642      1.00000
     62      -4.9953      1.00000
     63      -4.9894      1.00000
     64      -4.9483      1.00000
     65      -4.9204      1.00000
     66      -4.8942      1.00000
     67      -4.8646      1.00000
     68      -4.8515      1.00000
     69      -4.8392      1.00000
     70      -4.7985      1.00000
     71      -4.7842      1.00000
     72      -4.7431      1.00000
     73      -4.7033      1.00000
     74      -4.5255      1.00000
     75      -4.0845      1.02241
     76      -4.0624      0.97759
     77      -3.3673     -0.00000
     78      -2.9764     -0.00000
     79      -2.9156     -0.00000
     80      -2.4823     -0.00000
     81      -2.3589     -0.00000
     82      -1.9583     -0.00000
     83      -1.8166     -0.00000
     84      -1.7091     -0.00000
     85      -1.3322     -0.00000
     86      -0.9535      0.00000
     87      -0.8769      0.00000
     88      -0.5674      0.00000
     89      -0.2708      0.00000
     90      -0.2305      0.00000
     91      -0.0474      0.00000
     92       0.1285      0.00000


--------------------------------------------------------------------------------------------------------


 soft charge-density along one line, spin component           1
         0         1         2         3         4         5         6         7         8         9
 total charge-density along one line
 
 soft charge-density along one line, spin component           2
         0         1         2         3         4         5         6         7         8         9
 total charge-density along one line
 
 pseudopotential strength for first ion, spin component:           1
-10.553   0.005  -0.017   0.001  -0.011   1.049  -0.004   0.015
  0.005 -10.528  -0.006   0.008   0.004  -0.004   1.029   0.005
 -0.017  -0.006 -10.509   0.004  -0.013   0.015   0.005   1.013
  0.001   0.008   0.004 -10.511  -0.002  -0.001  -0.008  -0.003
 -0.011   0.004  -0.013  -0.002 -10.535   0.008  -0.003   0.011
  1.049  -0.004   0.015  -0.001   0.008   6.270   0.002  -0.012
 -0.004   1.029   0.005  -0.008  -0.003   0.002   6.281  -0.003
  0.015   0.005   1.013  -0.003   0.011  -0.012  -0.003   6.293
 -0.001  -0.008  -0.003   1.014   0.001   0.001   0.008   0.002
  0.008  -0.003   0.011   0.001   1.035  -0.006   0.002  -0.008
 -0.007   0.001  -0.005  -0.001  -0.004   0.005  -0.000  -0.000
 -0.014   0.002  -0.010  -0.001  -0.008   0.010  -0.000  -0.000
 -0.012   0.001   0.004  -0.000   0.009   0.008  -0.000  -0.004
 -0.000  -0.007   0.001  -0.011   0.000   0.000   0.005  -0.000
 -0.006  -0.000   0.007   0.001  -0.012   0.003   0.000  -0.005
 -0.012   0.000   0.005  -0.001   0.010   0.008  -0.000  -0.004
 -0.001  -0.007   0.001  -0.012   0.000   0.001   0.004  -0.000
 -0.005  -0.001   0.008   0.000  -0.013   0.002   0.001  -0.006
 pseudopotential strength for first ion, spin component:           2
-10.506   0.002  -0.007  -0.006   0.004   1.010  -0.002   0.006
  0.002 -10.512  -0.007   0.007   0.001  -0.002   1.015   0.005
 -0.007  -0.007 -10.493   0.003  -0.009   0.006   0.005   1.000
 -0.006   0.007   0.003 -10.494  -0.004   0.005  -0.006  -0.002
  0.004   0.001  -0.009  -0.004 -10.516  -0.003  -0.001   0.007
  1.010  -0.002   0.006   0.005  -0.003   6.295   0.001  -0.004
 -0.002   1.015   0.005  -0.006  -0.001   0.001   6.289  -0.004
  0.006   0.005   1.000  -0.002   0.007  -0.004  -0.004   6.300
  0.005  -0.006  -0.002   1.001   0.003  -0.003   0.005   0.002
 -0.003  -0.001   0.007   0.003   1.018   0.002   0.000  -0.005
 -0.003   0.001  -0.002  -0.001  -0.003   0.001   0.000  -0.002
 -0.005   0.002  -0.004  -0.001  -0.005   0.001   0.000  -0.003
 -0.013   0.001   0.005   0.000   0.008   0.011  -0.001  -0.005
  0.000  -0.008   0.001  -0.013   0.000  -0.000   0.007  -0.002
 -0.009   0.000   0.008   0.002  -0.013   0.008  -0.000  -0.007
 -0.015   0.001   0.006   0.000   0.009   0.013  -0.002  -0.006
  0.000  -0.009   0.002  -0.014   0.001  -0.000   0.008  -0.002
 -0.011   0.000   0.009   0.002  -0.015   0.009  -0.000  -0.008
 total augmentation occupancy for first ion, spin component:           1
  1.932   0.005  -0.007   0.001  -0.004  -0.011  -0.003   0.007  -0.000   0.004  -0.019   0.013   0.034  -0.002   0.036  -0.019
  0.005   1.927  -0.006   0.008   0.000  -0.003  -0.019   0.005  -0.001   0.000  -0.005  -0.001  -0.003   0.039  -0.004   0.001
 -0.007  -0.006   1.945   0.004  -0.004   0.007   0.005  -0.027  -0.004   0.004  -0.015   0.009  -0.011  -0.003  -0.017   0.006
  0.001   0.008   0.004   1.938  -0.006  -0.000  -0.001  -0.004  -0.023   0.003   0.007   0.002   0.004   0.057  -0.002  -0.000
 -0.004   0.000  -0.004  -0.006   1.937   0.004   0.000   0.004   0.003  -0.016  -0.010   0.007  -0.011   0.009   0.033   0.012
 -0.011  -0.003   0.007  -0.000   0.004   0.014  -0.000   0.002   0.000   0.001  -0.025  -0.000   0.021   0.001   0.009  -0.001
 -0.003  -0.019   0.005  -0.001   0.000  -0.000   0.008   0.000   0.001  -0.000   0.008  -0.001  -0.001   0.013   0.001  -0.000
  0.007   0.005  -0.027  -0.004   0.004   0.002   0.000   0.007  -0.001   0.001  -0.037   0.005  -0.006  -0.002  -0.007   0.001
 -0.000  -0.001  -0.004  -0.023   0.003   0.000   0.001  -0.001   0.009  -0.001  -0.010   0.001  -0.001   0.020  -0.003  -0.000
  0.004   0.000   0.004   0.003  -0.016   0.001  -0.000   0.001  -0.001   0.012  -0.018   0.001  -0.020  -0.003   0.021   0.001
 -0.019  -0.005  -0.015   0.007  -0.010  -0.025   0.008  -0.037  -0.010  -0.018   1.649  -0.117   0.125  -0.015   0.178  -0.017
  0.013  -0.001   0.009   0.002   0.007  -0.000  -0.001   0.005   0.001   0.001  -0.117   0.014  -0.018   0.002  -0.026   0.002
  0.034  -0.003  -0.011   0.004  -0.011   0.021  -0.001  -0.006  -0.001  -0.020   0.125  -0.018   0.187   0.004  -0.039  -0.012
 -0.002   0.039  -0.003   0.057   0.009   0.001   0.013  -0.002   0.020  -0.003  -0.015   0.002   0.004   0.091  -0.010  -0.001
  0.036  -0.004  -0.017  -0.002   0.033   0.009   0.001  -0.007  -0.003   0.021   0.178  -0.026  -0.039  -0.010   0.141   0.001
 -0.019   0.001   0.006  -0.000   0.012  -0.001  -0.000   0.001  -0.000   0.001  -0.017   0.002  -0.012  -0.001   0.001   0.001
 -0.000  -0.013   0.002  -0.021   0.000  -0.000  -0.001   0.000  -0.001   0.000   0.002  -0.000  -0.001  -0.006   0.001   0.000
 -0.013  -0.000   0.009   0.001  -0.019  -0.000  -0.000   0.001   0.000  -0.001  -0.025   0.003   0.001   0.001  -0.010   0.000
 total augmentation occupancy for first ion, spin component:           2
  0.019  -0.002   0.003  -0.005   0.009  -0.003   0.000  -0.002   0.001  -0.003   0.037   0.007  -0.012   0.006  -0.019  -0.001
 -0.002   0.001  -0.001   0.002  -0.001   0.000   0.001   0.000   0.001   0.001  -0.005  -0.001   0.002  -0.003   0.003   0.000
  0.003  -0.001   0.002  -0.001   0.001  -0.002   0.000   0.001   0.000  -0.001   0.006   0.001  -0.000   0.003  -0.001   0.000
 -0.005   0.002  -0.001   0.003  -0.002   0.001   0.001   0.000   0.002   0.000  -0.009  -0.002   0.002  -0.005   0.005   0.000
  0.009  -0.001   0.001  -0.002   0.003  -0.003   0.001  -0.001   0.000   0.001   0.015   0.003  -0.002   0.002  -0.011  -0.000
 -0.003   0.000  -0.002   0.001  -0.003   0.001  -0.000   0.000  -0.000   0.001  -0.008  -0.001   0.002  -0.002   0.005   0.000
  0.000   0.001   0.000   0.001   0.001  -0.000  -0.000  -0.000  -0.000  -0.000   0.001   0.000  -0.000   0.000  -0.001  -0.000
 -0.002   0.000   0.001   0.000  -0.001   0.000  -0.000   0.000  -0.000   0.000  -0.002  -0.000   0.000  -0.000   0.001   0.000
  0.001   0.001   0.000   0.002   0.000  -0.000  -0.000  -0.000  -0.000  -0.000   0.002   0.000  -0.001   0.000  -0.001  -0.000
 -0.003   0.001  -0.001   0.000   0.001   0.001  -0.000   0.000  -0.000  -0.000  -0.003  -0.000   0.002  -0.001   0.002  -0.000
  0.037  -0.005   0.006  -0.009   0.015  -0.008   0.001  -0.002   0.002  -0.003   0.083   0.005  -0.021   0.015  -0.039  -0.000
  0.007  -0.001   0.001  -0.002   0.003  -0.001   0.000  -0.000   0.000  -0.000   0.005   0.001  -0.001   0.001  -0.002  -0.000
 -0.012   0.002  -0.000   0.002  -0.002   0.002  -0.000   0.000  -0.001   0.002  -0.021  -0.001   0.004  -0.003   0.006   0.000
  0.006  -0.003   0.003  -0.005   0.002  -0.002   0.000  -0.000   0.000  -0.001   0.015   0.001  -0.003   0.002  -0.005  -0.000
 -0.019   0.003  -0.001   0.005  -0.011   0.005  -0.001   0.001  -0.001   0.002  -0.039  -0.002   0.006  -0.005   0.015   0.000
 -0.001   0.000   0.000   0.000  -0.000   0.000  -0.000   0.000  -0.000  -0.000  -0.000  -0.000   0.000  -0.000   0.000   0.000
  0.000  -0.001   0.000  -0.001   0.000   0.000  -0.000  -0.000   0.000  -0.000  -0.000   0.000  -0.000   0.000  -0.000  -0.000
 -0.001   0.000   0.000   0.000  -0.001   0.000   0.000   0.000  -0.000   0.000  -0.000  -0.000   0.000  -0.000   0.000   0.000


------------------------ aborting loop because EDIFF is reached ----------------------------------------


    CHARGE:  cpu time    0.6740: real time    0.6745
    FORLOC:  cpu time    0.0652: real time    0.0652
    FORNL :  cpu time    1.5307: real time    1.5314
    STRESS:  cpu time    6.3386: real time    6.3415
    FORCOR:  cpu time    1.1729: real time    1.1766
    FORHAR:  cpu time    0.1910: real time    0.1910
    MIXING:  cpu time    0.1175: real time    0.1175
    OFIELD:  cpu time    0.0000: real time    0.0000

  FORCE on cell =-STRESS in cart. coord.  units (eV):
  Direction    XX          YY          ZZ          XY          YZ          ZX
  --------------------------------------------------------------------------------------
  Alpha Z    41.16233    41.16233    41.16233
  Ewald   10302.61666  7392.33338 -1344.17183  -802.67444   414.53803   158.57489
  Hartree 15430.60102 12872.91753  5023.70347  -719.58998   370.44882    77.53497
  E(xc)    -876.27870  -877.70588  -879.29168    -0.09343     0.05273     0.45802
  Local  -27132.63204-21697.75087 -5114.99046  1523.62966  -783.67224  -224.74004
  n-local  -326.85050  -320.49088  -327.07756    -1.79583    -0.25112    -1.27669
  augment  1222.45829  1226.73882  1232.61424     0.45080    -0.42769    -1.46247
  Kinetic  1337.15885  1363.87324  1366.98340    -0.74241    -1.01718    -9.01032
  Fock        0.00000     0.00000     0.00000     0.00000     0.00000     0.00000
  -------------------------------------------------------------------------------------
  Total      -1.76410     1.07768    -1.06809    -0.81563    -0.32865     0.07836
  in kB      -0.83745     0.51159    -0.50704    -0.38720    -0.15602     0.03720
  external pressure =       -0.28 kB  Pullay stress =        0.00 kB


 VOLUME and BASIS-vectors are now :
 -----------------------------------------------------------------------------
  energy-cutoff  :      600.00
  volume of cell :     3375.00
      direct lattice vectors                 reciprocal lattice vectors
    15.000000000  0.000000000  0.000000000     0.066666667  0.000000000  0.000000000
     0.000000000 15.000000000  0.000000000     0.000000000  0.066666667  0.000000000
     0.000000000  0.000000000 15.000000000     0.000000000  0.000000000  0.066666667

  length of vectors
    15.000000000 15.000000000 15.000000000     0.066666667  0.066666667  0.066666667


 FORCES acting on ions
    electron-ion (+dipol)            ewald-force                    non-local-force                 convergence-correction
 -----------------------------------------------------------------------------------------------
   0.109E+04 0.702E+03 -.704E+02   -.108E+04 -.698E+03 0.701E+02   -.458E+01 -.313E+01 0.298E+00   -.254E-04 -.151E-04 0.413E-05
   0.480E+03 -.344E+03 0.898E+03   -.479E+03 0.342E+03 -.899E+03   -.160E+01 0.284E+01 0.566E+00   -.472E-06 -.496E-05 -.387E-04
   0.294E+03 0.126E+04 -.168E+03   -.292E+03 -.125E+04 0.166E+03   -.213E+01 -.876E+01 0.190E+01   -.304E-05 -.260E-04 0.495E-05
   -.849E+03 -.114E+03 0.890E+03   0.847E+03 0.113E+03 -.886E+03   0.116E+01 0.699E+00 -.457E+01   0.235E-04 0.419E-05 -.115E-04
   -.825E+03 0.101E+04 0.147E+03   0.820E+03 -.100E+04 -.146E+03   0.497E+01 -.593E+01 -.110E+01   0.329E-04 -.763E-05 -.207E-05
   -.169E+03 0.535E+03 -.959E+03   0.168E+03 -.533E+03 0.958E+03   0.119E+01 -.350E+01 0.382E+00   0.160E-04 -.342E-05 0.413E-04
   0.193E+03 0.626E+03 0.123E+04   -.193E+03 -.621E+03 -.122E+04   -.789E+00 -.511E+01 -.639E+01   0.826E-05 0.355E-06 -.207E-04
   0.126E+04 -.350E+03 0.126E+03   -.125E+04 0.347E+03 -.124E+03   -.881E+01 0.296E+01 -.282E+01   -.428E-04 -.856E-06 -.911E-05
   0.562E+03 -.205E+03 -.124E+04   -.558E+03 0.204E+03 0.124E+04   -.364E+01 0.549E+00 0.718E+01   0.308E-05 -.623E-05 0.328E-04
   0.447E+03 -.125E+04 -.131E+03   -.444E+03 0.125E+04 0.130E+03   -.301E+01 0.734E+01 0.154E+01   -.271E-05 0.396E-04 0.699E-05
   -.474E+03 -.105E+04 0.730E+03   0.470E+03 0.105E+04 -.723E+03   0.410E+01 0.617E+01 -.682E+01   0.223E-04 0.114E-04 -.818E-05
   -.848E+03 -.193E+02 -.331E+03   0.846E+03 0.186E+02 0.329E+03   0.291E+00 0.322E+00 0.247E+01   0.377E-04 -.170E-05 0.136E-04
   -.574E+03 -.779E+03 -.844E+03   0.572E+03 0.776E+03 0.842E+03   0.275E+01 0.398E+01 0.266E+01   0.317E-04 0.272E-06 0.207E-04
   -.143E+03 0.655E+01 -.702E+02   0.127E+03 -.752E+01 0.653E+02   0.188E+02 0.123E+01 0.609E+01   0.489E-05 -.628E-06 0.790E-06
   -.399E+03 -.177E+02 -.182E+03   0.453E+03 0.211E+02 0.201E+03   -.551E+02 -.360E+01 -.198E+02   0.256E-05 -.800E-06 -.333E-05
 -----------------------------------------------------------------------------------------------
   0.464E+02 0.397E+01 0.184E+02   0.227E-12 0.142E-13 -.171E-12   -.464E+02 -.397E+01 -.184E+02   0.108E-03 -.115E-04 0.315E-04
 
 
 POSITION                                       TOTAL-FORCE (eV/Angst)
 -----------------------------------------------------------------------------------
      4.39047      6.28472      8.37152         0.096755     -0.092506      0.036143
      5.62027      8.16120      7.38722        -0.275702      0.539415      0.106940
      5.91797      4.37375      8.36449         0.051424      0.102448      0.107744
      7.97961      7.54730      7.25398         0.051142      0.067717     -0.228453
      8.19108      5.19700      7.97467         0.144648      0.235010     -0.161457
      6.72864      6.59988      9.20624         0.031929     -0.762301     -0.157419
      6.19894      6.02798      6.61309         0.132087     -0.434362      0.390560
      3.39549      8.48873      8.30252        -0.204551      0.289829     -0.159164
      5.01985      8.17700      9.93831         0.206233      0.056594     -0.232928
      5.25873     10.26930      8.51697         0.007868     -0.292987      0.045894
      7.29533      9.93213      7.10875        -0.088445      0.035277      0.082328
      9.50962      7.36812      9.01065        -1.078109     -0.327302     -0.327855
      7.23374      8.85564      9.21190         0.357113      0.484821      0.066833
     11.15890      7.40389      9.64495         2.250655      0.252756      1.188206
     12.26500      7.47445     10.03560        -1.683047     -0.154410     -0.757372
 -----------------------------------------------------------------------------------
    total drift:                                0.000449      0.004415      0.000715


--------------------------------------------------------------------------------------------------------



  FREE ENERGIE OF THE ION-ELECTRON SYSTEM (eV)
  ---------------------------------------------------
  free  energy   TOTEN  =       -48.76320395 eV

  energy  without entropy=      -48.77213803  energy(sigma->0) =      -48.76618198
 


--------------------------------------------------------------------------------------------------------


    POTLOK:  cpu time    1.1928: real time    1.1936


--------------------------------------------------------------------------------------------------------


     LOOP+:  cpu time  356.6834: real time  356.9870
    4ORBIT:  cpu time    0.0000: real time    0.0000

 total amount of memory used by VASP MPI-rank0   158680. kBytes
=======================================================================

   base      :      30000. kBytes
   nonl-proj :      12601. kBytes
   fftplans  :      27994. kBytes
   grid      :      74150. kBytes
   one-center:         93. kBytes
   wavefun   :      13842. kBytes
 
  
  
 General timing and accounting informations for this job:
 ========================================================
  
                  Total CPU time used (sec):      360.715
                            User time (sec):      347.997
                          System time (sec):       12.718
                         Elapsed time (sec):      361.056
  
                   Maximum memory used (kb):      280932.
                   Average memory used (kb):           0.
  
                          Minor page faults:       283509
                          Major page faults:            0
                 Voluntary context switches:          780
