<?xml version="1.0" encoding="ISO-8859-1"?>
<modeling>
 <generator>
  <i name="program" type="string">vasp </i>
  <i name="version" type="string">5.4.4.18Apr17-6-g9f103f2a35  </i>
  <i name="subversion" type="string">(build May 08 2019 13:49:07) complex            parallel </i>
  <i name="platform" type="string">LinuxIFC </i>
  <i name="date" type="string">2019 11 13 </i>
  <i name="time" type="string">13:38:06 </i>
 </generator>
 <incar>
  <i type="string" name="SYSTEM"> CuCO</i>
  <i type="int" name="ISTART">     0</i>
  <i type="string" name="PREC">accurate</i>
  <i type="string" name="ALGO"> Fast</i>
  <i type="int" name="ISPIN">     2</i>
  <i type="int" name="INIWAV">     1</i>
  <i type="int" name="NELM">   300</i>
  <i type="int" name="NELMIN">     3</i>
  <i type="int" name="IBRION">    -1</i>
  <i name="EDIFF">      0.00000010</i>
  <i name="EDIFFG">     -0.00100000</i>
  <i type="int" name="NSW">     0</i>
  <i type="int" name="ISYM">     0</i>
  <i name="ENCUT">    600.00000000</i>
  <i name="NUPDOWN">      1.00000000</i>
  <i type="logical" name="LREAL"> F  </i>
  <i type="int" name="ISMEAR">     1</i>
  <i name="SIGMA">      0.10000000</i>
  <i name="KSPACING">      0.50000000</i>
  <i type="logical" name="KGAMMA"> F  </i>
  <i type="logical" name="LWAVE"> F  </i>
  <i type="logical" name="LCHARG"> F  </i>
  <v type="int" name="KPOINT_BSE">    -1     0     0     0</v>
  <i type="int" name="NELM">   300</i>
  <i type="string" name="GGA"> PE</i>
 </incar>
 <structure name="primitive_cell" >
  <crystal>
   <varray name="basis" >
    <v>      15.00000000       0.00000000       0.00000000 </v>
    <v>       0.00000000      15.00000000       0.00000000 </v>
    <v>       0.00000000       0.00000000      15.00000000 </v>
   </varray>
   <i name="volume">   3375.00000000 </i>
   <varray name="rec_basis" >
    <v>       0.06666667       0.00000000       0.00000000 </v>
    <v>       0.00000000       0.06666667       0.00000000 </v>
    <v>       0.00000000       0.00000000       0.06666667 </v>
   </varray>
  </crystal>
  <varray name="positions" >
   <v>       0.29269800       0.41898133      -0.44189867 </v>
   <v>       0.22636600      -0.43408467      -0.44649867 </v>
   <v>       0.39453133       0.29158333      -0.44236733 </v>
   <v>       0.37468467      -0.45592000       0.49248133 </v>
   <v>       0.44857600       0.43999200      -0.38625067 </v>
   <v>       0.41326267       0.40186533       0.44087267 </v>
   <v>       0.33465667      -0.45486667      -0.33744600 </v>
   <v>       0.48224933      -0.40962400      -0.38587333 </v>
   <v>      -0.46802600      -0.49684667       0.48359867 </v>
   <v>      -0.45392800       0.34646667      -0.46835533 </v>
   <v>       0.35058200      -0.31538000      -0.43220200 </v>
   <v>       0.48635533      -0.33785800       0.47391667 </v>
   <v>      -0.36602533       0.49120800      -0.39929000 </v>
   <v>      -0.25607333       0.49359267      -0.35700333 </v>
   <v>      -0.18233333       0.49829667      -0.33096000 </v>
  </varray>
 </structure>
 <varray name="primitive_index" >
  <v type="int" >        1 </v>
  <v type="int" >        8 </v>
  <v type="int" >        3 </v>
  <v type="int" >        2 </v>
  <v type="int" >        6 </v>
  <v type="int" >        7 </v>
  <v type="int" >        9 </v>
  <v type="int" >       13 </v>
  <v type="int" >        4 </v>
  <v type="int" >        5 </v>
  <v type="int" >       10 </v>
  <v type="int" >       11 </v>
  <v type="int" >       12 </v>
  <v type="int" >       14 </v>
  <v type="int" >       15 </v>
 </varray>
 <kpoints>
  <generation param="Monkhorst-Pack">
   <v type="int" name="divisions">       1        1        1 </v>
   <v name="usershift">      0.00000000       0.00000000       0.00000000 </v>
   <v name="genvec1">      1.00000000       0.00000000       0.00000000 </v>
   <v name="genvec2">      0.00000000       1.00000000       0.00000000 </v>
   <v name="genvec3">      0.00000000       0.00000000       1.00000000 </v>
   <v name="shift">      0.00000000       0.00000000       0.00000000 </v>
  </generation>
  <varray name="kpointlist" >
   <v>       0.00000000       0.00000000       0.00000000 </v>
  </varray>
  <varray name="weights" >
   <v>       1.00000000 </v>
  </varray>
 </kpoints>
 <parameters>
  <separator name="general" >
   <i type="string" name="SYSTEM">CuCO</i>
   <i type="logical" name="LCOMPAT"> F  </i>
  </separator>
  <separator name="electronic" >
   <i type="string" name="PREC">accura</i>
   <i name="ENMAX">    600.00000000</i>
   <i name="ENAUG">    644.87300000</i>
   <i name="EDIFF">      0.00000010</i>
   <i type="int" name="IALGO">    68</i>
   <i type="int" name="IWAVPR">    10</i>
   <i type="int" name="NBANDS">    92</i>
   <i name="NELECT">    153.00000000</i>
   <i type="int" name="TURBO">     0</i>
   <i type="int" name="IRESTART">     0</i>
   <i type="int" name="NREBOOT">     0</i>
   <i type="int" name="NMIN">     0</i>
   <i name="EREF">      0.00000000</i>
   <separator name="electronic smearing" >
    <i type="int" name="ISMEAR">     1</i>
    <i name="SIGMA">      0.10000000</i>
    <i name="KSPACING">      0.50000000</i>
    <i type="logical" name="KGAMMA"> F  </i>
   </separator>
   <separator name="electronic projectors" >
    <i type="logical" name="LREAL"> F  </i>
    <v name="ROPT">      0.00000000      0.00000000      0.00000000</v>
    <i type="int" name="LMAXPAW">  -100</i>
    <i type="int" name="LMAXMIX">     2</i>
    <i type="logical" name="NLSPLINE"> F  </i>
   </separator>
   <separator name="electronic startup" >
    <i type="int" name="ISTART">     0</i>
    <i type="int" name="ICHARG">     2</i>
    <i type="int" name="INIWAV">     1</i>
   </separator>
   <separator name="electronic spin" >
    <i type="int" name="ISPIN">     2</i>
    <i type="logical" name="LNONCOLLINEAR"> F  </i>
    <v name="MAGMOM">      0.06666667      0.06666667      0.06666667      0.06666667      0.06666667      0.06666667      0.06666667      0.06666667      0.06666667      0.06666667      0.06666667      0.06666667      0.06666667      0.06666667      0.06666667</v>
    <i name="NUPDOWN">      1.00000000</i>
    <i type="logical" name="LSORBIT"> F  </i>
    <v name="SAXIS">      0.00000000      0.00000000      1.00000000</v>
    <i type="logical" name="LSPIRAL"> F  </i>
    <v name="QSPIRAL">      0.00000000      0.00000000      0.00000000</v>
    <i type="logical" name="LZEROZ"> F  </i>
   </separator>
   <separator name="electronic exchange-correlation" >
    <i type="logical" name="LASPH"> F  </i>
    <i type="logical" name="LMETAGGA"> F  </i>
   </separator>
   <separator name="electronic convergence" >
    <i type="int" name="NELM">   300</i>
    <i type="int" name="NELMDL">    -5</i>
    <i type="int" name="NELMIN">     3</i>
    <i name="ENINI">    600.00000000</i>
    <separator name="electronic convergence detail" >
     <i type="logical" name="LDIAG"> T  </i>
     <i type="logical" name="LSUBROT"> F  </i>
     <i name="WEIMIN">      0.00000000</i>
     <i name="EBREAK">      0.00000000</i>
     <i name="DEPER">      0.30000000</i>
     <i type="int" name="NRMM">     4</i>
     <i name="TIME">      0.40000000</i>
    </separator>
   </separator>
   <separator name="electronic mixer" >
    <i name="AMIX">      0.40000000</i>
    <i name="BMIX">      1.00000000</i>
    <i name="AMIN">      0.10000000</i>
    <i name="AMIX_MAG">      1.60000000</i>
    <i name="BMIX_MAG">      1.00000000</i>
    <separator name="electronic mixer details" >
     <i type="int" name="IMIX">     4</i>
     <i type="logical" name="MIXFIRST"> F  </i>
     <i type="int" name="MAXMIX">   -45</i>
     <i name="WC">    100.00000000</i>
     <i type="int" name="INIMIX">     1</i>
     <i type="int" name="MIXPRE">     1</i>
     <i type="int" name="MREMOVE">     5</i>
    </separator>
   </separator>
   <separator name="electronic dipolcorrection" >
    <i type="logical" name="LDIPOL"> F  </i>
    <i type="logical" name="LMONO"> F  </i>
    <i type="int" name="IDIPOL">     0</i>
    <i name="EPSILON">      1.00000000</i>
    <v name="DIPOL">   -100.00000000   -100.00000000   -100.00000000</v>
    <i name="EFIELD">      0.00000000</i>
   </separator>
  </separator>
  <separator name="grids" >
   <i type="int" name="NGX">   120</i>
   <i type="int" name="NGY">   120</i>
   <i type="int" name="NGZ">   120</i>
   <i type="int" name="NGXF">   240</i>
   <i type="int" name="NGYF">   240</i>
   <i type="int" name="NGZF">   240</i>
   <i type="logical" name="ADDGRID"> F  </i>
  </separator>
  <separator name="ionic" >
   <i type="int" name="NSW">     0</i>
   <i type="int" name="IBRION">    -1</i>
   <i type="int" name="MDALGO">     0</i>
   <i type="int" name="ISIF">     2</i>
   <i name="PSTRESS">      0.00000000</i>
   <i name="EDIFFG">     -0.00100000</i>
   <i type="int" name="NFREE">     0</i>
   <i name="POTIM">      0.50000000</i>
   <i name="SMASS">     -3.00000000</i>
   <i name="SCALEE">      1.00000000</i>
  </separator>
  <separator name="ionic md" >
   <i name="TEBEG">      0.00010000</i>
   <i name="TEEND">      0.00010000</i>
   <i type="int" name="NBLOCK">     1</i>
   <i type="int" name="KBLOCK">     1</i>
   <i type="int" name="NPACO">   256</i>
   <i name="APACO">     16.00000000</i>
  </separator>
  <separator name="symmetry" >
   <i type="int" name="ISYM">     0</i>
   <i name="SYMPREC">      0.00001000</i>
  </separator>
  <separator name="dos" >
   <i type="int" name="LORBIT">     0</i>
   <v name="RWIGS">     -1.00000000     -1.00000000     -1.00000000</v>
   <i type="int" name="NEDOS">   301</i>
   <i name="EMIN">     10.00000000</i>
   <i name="EMAX">    -10.00000000</i>
   <i name="EFERMI">      0.00000000</i>
  </separator>
  <separator name="writing" >
   <i type="int" name="NWRITE">     2</i>
   <i type="logical" name="LWAVE"> F  </i>
   <i type="logical" name="LDOWNSAMPLE"> F  </i>
   <i type="logical" name="LCHARG"> F  </i>
   <i type="logical" name="LPARD"> F  </i>
   <i type="logical" name="LVTOT"> F  </i>
   <i type="logical" name="LVHAR"> F  </i>
   <i type="logical" name="LELF"> F  </i>
   <i type="logical" name="LOPTICS"> F  </i>
   <v name="STM">      0.00000000      0.00000000      0.00000000      0.00000000      0.00000000      0.00000000      0.00000000</v>
  </separator>
  <separator name="performance" >
   <i type="int" name="NPAR">     4</i>
   <i type="int" name="NSIM">     4</i>
   <i type="int" name="NBLK">    -1</i>
   <i type="logical" name="LPLANE"> T  </i>
   <i type="logical" name="LSCALAPACK"> T  </i>
   <i type="logical" name="LSCAAWARE"> F  </i>
   <i type="logical" name="LSCALU"> F  </i>
   <i type="logical" name="LASYNC"> F  </i>
   <i type="logical" name="LORBITALREAL"> F  </i>
  </separator>
  <separator name="miscellaneous" >
   <i type="int" name="IDIOT">     3</i>
   <i type="int" name="ISPECIAL">     0</i>
   <i type="logical" name="LMUSIC"> F  </i>
   <v name="POMASS">     63.54600000     12.01100000     16.00000000</v>
   <v name="DARWINR">      0.00000000      0.00000000      0.00000000</v>
   <v name="DARWINV">      1.00000000      1.00000000      1.00000000</v>
   <i type="logical" name="LCORR"> T  </i>
  </separator>
  <i type="logical" name="GGA_COMPAT"> T  </i>
  <i type="logical" name="LBERRY"> F  </i>
  <i type="int" name="ICORELEVEL">     0</i>
  <i type="logical" name="LDAU"> F  </i>
  <i type="int" name="I_CONSTRAINED_M">     0</i>
  <separator name="electronic exchange-correlation" >
   <i type="string" name="GGA">PE</i>
   <i type="int" name="VOSKOWN">     0</i>
   <i type="logical" name="LHFCALC"> F  </i>
   <i type="string" name="PRECFOCK"></i>
   <i type="logical" name="LSYMGRAD"> F  </i>
   <i type="logical" name="LHFONE"> F  </i>
   <i type="logical" name="LRHFCALC"> F  </i>
   <i type="logical" name="LTHOMAS"> F  </i>
   <i type="logical" name="LMODELHF"> F  </i>
   <i name="ENCUT4O">     -1.00000000</i>
   <i type="int" name="EXXOEP">     0</i>
   <i type="int" name="FOURORBIT">     0</i>
   <i name="AEXX">      0.00000000</i>
   <i name="HFALPHA">      0.00000000</i>
   <i name="MCALPHA">      0.00000000</i>
   <i name="ALDAX">      1.00000000</i>
   <i name="AGGAX">      1.00000000</i>
   <i name="ALDAC">      1.00000000</i>
   <i name="AGGAC">      1.00000000</i>
   <i type="int" name="NKREDX">     1</i>
   <i type="int" name="NKREDY">     1</i>
   <i type="int" name="NKREDZ">     1</i>
   <i type="logical" name="SHIFTRED"> F  </i>
   <i type="logical" name="ODDONLY"> F  </i>
   <i type="logical" name="EVENONLY"> F  </i>
   <i type="int" name="LMAXFOCK">     0</i>
   <i type="int" name="NMAXFOCKAE">     0</i>
   <i type="logical" name="LFOCKAEDFT"> F  </i>
   <i name="HFSCREEN">      0.00000000</i>
   <i name="HFSCREENC">      0.00000000</i>
   <i type="int" name="NBANDSGWLOW">     0</i>
  </separator>
  <separator name="vdW DFT" >
   <i type="logical" name="LUSE_VDW"> F  </i>
   <i name="Zab_VDW">     -0.84910000</i>
   <i name="PARAM1">      0.12340000</i>
   <i name="PARAM2">      1.00000000</i>
   <i name="PARAM3">      0.00000000</i>
  </separator>
  <separator name="model GW" >
   <i type="int" name="MODEL_GW">     0</i>
   <i name="MODEL_EPS0">    135.00000000</i>
   <i name="MODEL_ALPHA">      1.00000000</i>
  </separator>
  <separator name="linear response parameters" >
   <i type="logical" name="LEPSILON"> F  </i>
   <i type="logical" name="LRPA"> F  </i>
   <i type="logical" name="LNABLA"> F  </i>
   <i type="logical" name="LVEL"> F  </i>
   <i type="int" name="KINTER">     0</i>
   <i name="CSHIFT">      0.10000000</i>
   <i name="OMEGAMAX">     -1.00000000</i>
   <i name="DEG_THRESHOLD">      0.00200000</i>
   <i name="RTIME">     -0.10000000</i>
   <i name="WPLASMAI">      0.00000000</i>
   <v name="DFIELD">      0.00000000      0.00000000      0.00000000</v>
   <v name="WPLASMA">      0.00000000      0.00000000      0.00000000      0.00000000      0.00000000      0.00000000      0.00000000      0.00000000      0.00000000</v>
  </separator>
  <separator name="orbital magnetization" >
   <i type="logical" name="NUCIND"> F  </i>
   <v name="MAGPOS">      0.00000000      0.00000000      0.00000000</v>
   <i type="logical" name="LNICSALL"> T  </i>
   <i type="logical" name="ORBITALMAG"> F  </i>
   <i type="logical" name="LMAGBLOCH"> F  </i>
   <i type="logical" name="LCHIMAG"> F  </i>
   <i type="logical" name="LGAUGE"> T  </i>
   <i type="int" name="MAGATOM">     0</i>
   <v name="MAGDIPOL">      0.00000000      0.00000000      0.00000000</v>
   <v name="AVECCONST">      0.00000000      0.00000000      0.00000000</v>
  </separator>
  <separator name="response functions" >
   <i type="logical" name="LADDER"> F  </i>
   <i type="logical" name="LRPAFORCE"> F  </i>
   <i type="logical" name="LFXC"> F  </i>
   <i type="logical" name="LHARTREE"> T  </i>
   <i type="int" name="IBSE">     0</i>
   <v type="int" name="KPOINT">    -1     0     0     0</v>
   <i type="logical" name="LTCTE"> F  </i>
   <i type="logical" name="LTETE"> F  </i>
   <i type="logical" name="LTRIPLET"> F  </i>
   <i type="logical" name="LFXCEPS"> F  </i>
   <i type="logical" name="LFXHEG"> F  </i>
   <i type="int" name="NATURALO">     2</i>
   <i type="logical" name="L2ORDER"> F  </i>
   <i type="logical" name="LMP2LT"> F  </i>
   <i type="logical" name="LUSEW"> F  </i>
   <i name="ENCUTGW">     -2.00000000</i>
   <i name="ENCUTGWSOFT">     -2.00000000</i>
   <i name="ENCUTLF">     -1.00000000</i>
   <i type="int" name="LMAXMP2">    -1</i>
   <i name="SCISSOR">      0.00000000</i>
   <i type="int" name="NOMEGA">     0</i>
   <i type="int" name="NOMEGAR">     0</i>
   <i type="int" name="NBANDSGW">    -1</i>
   <i type="int" name="NBANDSO">    -1</i>
   <i type="int" name="NBANDSV">    -1</i>
   <i type="int" name="NELM">   300</i>
   <i type="int" name="NELMHF">     1</i>
   <i type="int" name="DIM">     3</i>
   <i type="int" name="ANTIRES">     0</i>
   <i name="OMEGAMAX">    -30.00000000</i>
   <i name="OMEGAMIN">    -30.00000000</i>
   <i name="OMEGATL">   -200.00000000</i>
   <i type="int" name="OMEGAGRID">   140</i>
   <i name="CSHIFT">     -0.10000000</i>
   <i type="logical" name="SELFENERGY"> F  </i>
   <i type="logical" name="LSPECTRAL"> F  </i>
   <i type="logical" name="LSPECTRALGW"> F  </i>
   <i type="logical" name="LSINGLES"> F  </i>
   <i type="logical" name="LFERMIGW"> F  </i>
   <i type="logical" name="ODDONLYGW"> F  </i>
   <i type="logical" name="EVENONLYGW"> F  </i>
   <i type="int" name="NKREDLFX">     1</i>
   <i type="int" name="NKREDLFY">     1</i>
   <i type="int" name="NKREDLFZ">     1</i>
   <i type="int" name="MAXMEM">  2800</i>
   <i type="int" name="TELESCOPE">     0</i>
   <i type="int" name="TAUPAR">     1</i>
   <i type="int" name="OMEGAPAR">    -1</i>
   <i name="LAMBDA">      1.00000000</i>
  </separator>
  <separator name="External order field" >
   <i name="OFIELD_KAPPA">      0.00000000</i>
   <v name="OFIELD_K">      0.00000000      0.00000000      0.00000000</v>
   <i name="OFIELD_Q6_NEAR">      0.00000000</i>
   <i name="OFIELD_Q6_FAR">      0.00000000</i>
   <i name="OFIELD_A">      0.00000000</i>
  </separator>
 </parameters>
 <atominfo>
  <atoms>      15 </atoms>
  <types>       3 </types>
  <array name="atoms" >
   <dimension dim="1">ion</dimension>
   <field type="string">element</field>
   <field type="int">atomtype</field>
   <set>
    <rc><c>Cu</c><c>   1</c></rc>
    <rc><c>Cu</c><c>   1</c></rc>
    <rc><c>Cu</c><c>   1</c></rc>
    <rc><c>Cu</c><c>   1</c></rc>
    <rc><c>Cu</c><c>   1</c></rc>
    <rc><c>Cu</c><c>   1</c></rc>
    <rc><c>Cu</c><c>   1</c></rc>
    <rc><c>Cu</c><c>   1</c></rc>
    <rc><c>Cu</c><c>   1</c></rc>
    <rc><c>Cu</c><c>   1</c></rc>
    <rc><c>Cu</c><c>   1</c></rc>
    <rc><c>Cu</c><c>   1</c></rc>
    <rc><c>Cu</c><c>   1</c></rc>
    <rc><c>C </c><c>   2</c></rc>
    <rc><c>O </c><c>   3</c></rc>
   </set>
  </array>
  <array name="atomtypes" >
   <dimension dim="1">type</dimension>
   <field type="int">atomspertype</field>
   <field type="string">element</field>
   <field>mass</field>
   <field>valence</field>
   <field type="string">pseudopotential</field>
   <set>
    <rc><c>  13</c><c>Cu</c><c>     63.54600000</c><c>     11.00000000</c><c>  PAW_PBE Cu 22Jun2005                  </c></rc>
    <rc><c>   1</c><c>C </c><c>     12.01100000</c><c>      4.00000000</c><c>  PAW_PBE C 08Apr2002                   </c></rc>
    <rc><c>   1</c><c>O </c><c>     16.00000000</c><c>      6.00000000</c><c>  PAW_PBE O 08Apr2002                   </c></rc>
   </set>
  </array>
 </atominfo>
 <structure name="initialpos" >
  <crystal>
   <varray name="basis" >
    <v>      15.00000000       0.00000000       0.00000000 </v>
    <v>       0.00000000      15.00000000       0.00000000 </v>
    <v>       0.00000000       0.00000000      15.00000000 </v>
   </varray>
   <i name="volume">   3375.00000000 </i>
   <varray name="rec_basis" >
    <v>       0.06666667       0.00000000       0.00000000 </v>
    <v>       0.00000000       0.06666667       0.00000000 </v>
    <v>       0.00000000       0.00000000       0.06666667 </v>
   </varray>
  </crystal>
  <varray name="positions" >
   <v>       0.29269800       0.41898133       0.55810133 </v>
   <v>       0.37468467       0.54408000       0.49248133 </v>
   <v>       0.39453133       0.29158333       0.55763267 </v>
   <v>       0.53197400       0.50315333       0.48359867 </v>
   <v>       0.54607200       0.34646667       0.53164467 </v>
   <v>       0.44857600       0.43999200       0.61374933 </v>
   <v>       0.41326267       0.40186533       0.44087267 </v>
   <v>       0.22636600       0.56591533       0.55350133 </v>
   <v>       0.33465667       0.54513333       0.66255400 </v>
   <v>       0.35058200       0.68462000       0.56779800 </v>
   <v>       0.48635533       0.66214200       0.47391667 </v>
   <v>       0.63397467       0.49120800       0.60071000 </v>
   <v>       0.48224933       0.59037600       0.61412667 </v>
   <v>       0.74392667       0.49359267       0.64299667 </v>
   <v>       0.81766667       0.49829667       0.66904000 </v>
  </varray>
 </structure>
 <calculation>
  <scstep>
   <time name="dav">    7.53    7.54</time>
   <time name="total">    8.73    8.74</time>
   <energy>
    <i name="alphaZ">     41.16232785 </i>
    <i name="ewald">  16350.79422786 </i>
    <i name="hartreedc"> -33372.95367065 </i>
    <i name="XCdc">    623.49195553 </i>
    <i name="pawpsdc">  16421.75059358 </i>
    <i name="pawaedc"> -17800.06104309 </i>
    <i name="eentropy">      0.01109660 </i>
    <i name="bandstr">    191.43636139 </i>
    <i name="atom">  18662.21924712 </i>
    <i name="e_fr_energy">   1117.85109619 </i>
    <i name="e_wo_entrp">   1117.83999960 </i>
    <i name="e_0_energy">   1117.84739733 </i>
   </energy>
  </scstep>
  <scstep>
   <time name="dav">    7.42    7.42</time>
   <time name="total">    7.42    7.42</time>
   <energy>
    <i name="e_fr_energy">     88.47387842 </i>
    <i name="e_wo_entrp">     88.45090332 </i>
    <i name="e_0_energy">     88.46622006 </i>
   </energy>
  </scstep>
  <scstep>
   <time name="dav">   11.46   11.46</time>
   <time name="total">   11.46   11.47</time>
   <energy>
    <i name="e_fr_energy">    -34.33052578 </i>
    <i name="e_wo_entrp">    -34.33988739 </i>
    <i name="e_0_energy">    -34.33364632 </i>
   </energy>
  </scstep>
  <scstep>
   <time name="dav">   10.12   10.15</time>
   <time name="total">   10.12   10.16</time>
   <energy>
    <i name="e_fr_energy">    -55.84068620 </i>
    <i name="e_wo_entrp">    -55.84975397 </i>
    <i name="e_0_energy">    -55.84370879 </i>
   </energy>
  </scstep>
  <scstep>
   <time name="dav">   12.04   12.05</time>
   <time name="total">   12.75   12.76</time>
   <energy>
    <i name="e_fr_energy">    -57.43726367 </i>
    <i name="e_wo_entrp">    -57.44639825 </i>
    <i name="e_0_energy">    -57.44030853 </i>
   </energy>
  </scstep>
  <scstep>
   <time name="diag">    1.09    1.09</time>
   <time name="diis">    6.91    6.92</time>
   <time name="orth">    0.06    0.06</time>
   <time name="total">    9.92    9.93</time>
   <energy>
    <i name="e_fr_energy">    -57.36998873 </i>
    <i name="e_wo_entrp">    -57.37933738 </i>
    <i name="e_0_energy">    -57.37310495 </i>
   </energy>
  </scstep>
  <scstep>
   <time name="diag">    1.09    1.09</time>
   <time name="diis">    7.25    7.25</time>
   <time name="orth">    0.06    0.06</time>
   <time name="total">   10.26   10.26</time>
   <energy>
    <i name="e_fr_energy">    -49.16036291 </i>
    <i name="e_wo_entrp">    -49.16971334 </i>
    <i name="e_0_energy">    -49.16347972 </i>
   </energy>
  </scstep>
  <scstep>
   <time name="diag">    1.09    1.09</time>
   <time name="diis">    7.10    7.11</time>
   <time name="orth">    0.06    0.06</time>
   <time name="total">   10.16   10.17</time>
   <energy>
    <i name="e_fr_energy">    -48.91275742 </i>
    <i name="e_wo_entrp">    -48.92197634 </i>
    <i name="e_0_energy">    -48.91583039 </i>
   </energy>
  </scstep>
  <scstep>
   <time name="diag">    1.10    1.10</time>
   <time name="diis">    7.31    7.32</time>
   <time name="orth">    0.06    0.06</time>
   <time name="total">   10.38   10.38</time>
   <energy>
    <i name="e_fr_energy">    -48.83875596 </i>
    <i name="e_wo_entrp">    -48.84786945 </i>
    <i name="e_0_energy">    -48.84179379 </i>
   </energy>
  </scstep>
  <scstep>
   <time name="diag">    1.09    1.09</time>
   <time name="diis">    7.68    7.69</time>
   <time name="orth">    0.06    0.06</time>
   <time name="total">   10.74   10.75</time>
   <energy>
    <i name="e_fr_energy">    -48.77238550 </i>
    <i name="e_wo_entrp">    -48.78141953 </i>
    <i name="e_0_energy">    -48.77539684 </i>
   </energy>
  </scstep>
  <scstep>
   <time name="diag">    1.09    1.09</time>
   <time name="diis">    7.31    7.32</time>
   <time name="orth">    0.06    0.06</time>
   <time name="total">   10.37   10.37</time>
   <energy>
    <i name="e_fr_energy">    -48.75811379 </i>
    <i name="e_wo_entrp">    -48.76707971 </i>
    <i name="e_0_energy">    -48.76110243 </i>
   </energy>
  </scstep>
  <scstep>
   <time name="diag">    1.09    1.09</time>
   <time name="diis">    7.57    7.57</time>
   <time name="orth">    0.05    0.05</time>
   <time name="total">   10.62   10.62</time>
   <energy>
    <i name="e_fr_energy">    -48.75625874 </i>
    <i name="e_wo_entrp">    -48.76521920 </i>
    <i name="e_0_energy">    -48.75924556 </i>
   </energy>
  </scstep>
  <scstep>
   <time name="diag">    1.09    1.09</time>
   <time name="diis">    6.98    6.98</time>
   <time name="orth">    0.06    0.06</time>
   <time name="total">   10.03   10.04</time>
   <energy>
    <i name="e_fr_energy">    -48.75477261 </i>
    <i name="e_wo_entrp">    -48.76371950 </i>
    <i name="e_0_energy">    -48.75775490 </i>
   </energy>
  </scstep>
  <scstep>
   <time name="diag">    1.09    1.09</time>
   <time name="diis">    6.94    6.95</time>
   <time name="orth">    0.05    0.06</time>
   <time name="total">   10.00   10.00</time>
   <energy>
    <i name="e_fr_energy">    -48.75560061 </i>
    <i name="e_wo_entrp">    -48.76454315 </i>
    <i name="e_0_energy">    -48.75858146 </i>
   </energy>
  </scstep>
  <scstep>
   <time name="diag">    1.09    1.09</time>
   <time name="diis">    6.66    6.66</time>
   <time name="orth">    0.06    0.06</time>
   <time name="total">    9.70    9.71</time>
   <energy>
    <i name="e_fr_energy">    -48.75694855 </i>
    <i name="e_wo_entrp">    -48.76588562 </i>
    <i name="e_0_energy">    -48.75992757 </i>
   </energy>
  </scstep>
  <scstep>
   <time name="diag">    1.09    1.09</time>
   <time name="diis">    6.56    6.56</time>
   <time name="orth">    0.05    0.05</time>
   <time name="total">    9.61    9.61</time>
   <energy>
    <i name="e_fr_energy">    -48.75828670 </i>
    <i name="e_wo_entrp">    -48.76721949 </i>
    <i name="e_0_energy">    -48.76126430 </i>
   </energy>
  </scstep>
  <scstep>
   <time name="diag">    1.09    1.09</time>
   <time name="diis">    6.64    6.65</time>
   <time name="orth">    0.06    0.06</time>
   <time name="total">    9.69    9.69</time>
   <energy>
    <i name="e_fr_energy">    -48.75999371 </i>
    <i name="e_wo_entrp">    -48.76892944 </i>
    <i name="e_0_energy">    -48.76297229 </i>
   </energy>
  </scstep>
  <scstep>
   <time name="diag">    1.09    1.09</time>
   <time name="diis">    6.52    6.53</time>
   <time name="orth">    0.06    0.06</time>
   <time name="total">    9.58    9.58</time>
   <energy>
    <i name="e_fr_energy">    -48.76084438 </i>
    <i name="e_wo_entrp">    -48.76977856 </i>
    <i name="e_0_energy">    -48.76382244 </i>
   </energy>
  </scstep>
  <scstep>
   <time name="diag">    1.09    1.09</time>
   <time name="diis">    7.59    7.60</time>
   <time name="orth">    0.05    0.05</time>
   <time name="total">   10.64   10.65</time>
   <energy>
    <i name="e_fr_energy">    -48.76164205 </i>
    <i name="e_wo_entrp">    -48.77057428 </i>
    <i name="e_0_energy">    -48.76461946 </i>
   </energy>
  </scstep>
  <scstep>
   <time name="diag">    1.09    1.09</time>
   <time name="diis">    6.60    6.61</time>
   <time name="orth">    0.05    0.05</time>
   <time name="total">    9.65    9.66</time>
   <energy>
    <i name="e_fr_energy">    -48.76220343 </i>
    <i name="e_wo_entrp">    -48.77113632 </i>
    <i name="e_0_energy">    -48.76518106 </i>
   </energy>
  </scstep>
  <scstep>
   <time name="diag">    1.09    1.09</time>
   <time name="diis">    6.72    6.72</time>
   <time name="orth">    0.06    0.06</time>
   <time name="total">    9.77    9.77</time>
   <energy>
    <i name="e_fr_energy">    -48.76256082 </i>
    <i name="e_wo_entrp">    -48.77149490 </i>
    <i name="e_0_energy">    -48.76553884 </i>
   </energy>
  </scstep>
  <scstep>
   <time name="diag">    1.09    1.09</time>
   <time name="diis">    6.48    6.49</time>
   <time name="orth">    0.05    0.05</time>
   <time name="total">    9.54    9.55</time>
   <energy>
    <i name="e_fr_energy">    -48.76284234 </i>
    <i name="e_wo_entrp">    -48.77177665 </i>
    <i name="e_0_energy">    -48.76582044 </i>
   </energy>
  </scstep>
  <scstep>
   <time name="diag">    1.09    1.09</time>
   <time name="diis">    6.75    6.75</time>
   <time name="orth">    0.05    0.05</time>
   <time name="total">    9.81    9.81</time>
   <energy>
    <i name="e_fr_energy">    -48.76298117 </i>
    <i name="e_wo_entrp">    -48.77191510 </i>
    <i name="e_0_energy">    -48.76595915 </i>
   </energy>
  </scstep>
  <scstep>
   <time name="diag">    1.09    1.09</time>
   <time name="diis">    6.85    6.86</time>
   <time name="orth">    0.05    0.05</time>
   <time name="total">    9.91    9.92</time>
   <energy>
    <i name="e_fr_energy">    -48.76306974 </i>
    <i name="e_wo_entrp">    -48.77200357 </i>
    <i name="e_0_energy">    -48.76604769 </i>
   </energy>
  </scstep>
  <scstep>
   <time name="diag">    1.09    1.09</time>
   <time name="diis">    6.74    6.74</time>
   <time name="orth">    0.05    0.05</time>
   <time name="total">    9.79    9.80</time>
   <energy>
    <i name="e_fr_energy">    -48.76314706 </i>
    <i name="e_wo_entrp">    -48.77208113 </i>
    <i name="e_0_energy">    -48.76612508 </i>
   </energy>
  </scstep>
  <scstep>
   <time name="diag">    1.09    1.09</time>
   <time name="diis">    5.80    5.80</time>
   <time name="orth">    0.05    0.05</time>
   <time name="total">    8.87    8.88</time>
   <energy>
    <i name="e_fr_energy">    -48.76317739 </i>
    <i name="e_wo_entrp">    -48.77211137 </i>
    <i name="e_0_energy">    -48.76615538 </i>
   </energy>
  </scstep>
  <scstep>
   <time name="diag">    1.08    1.10</time>
   <time name="diis">    5.16    5.16</time>
   <time name="orth">    0.06    0.06</time>
   <time name="total">    8.21    8.23</time>
   <energy>
    <i name="e_fr_energy">    -48.76319035 </i>
    <i name="e_wo_entrp">    -48.77212427 </i>
    <i name="e_0_energy">    -48.76616832 </i>
   </energy>
  </scstep>
  <scstep>
   <time name="diag">    1.09    1.09</time>
   <time name="diis">    4.37    4.38</time>
   <time name="orth">    0.06    0.06</time>
   <time name="total">    7.44    7.44</time>
   <energy>
    <i name="e_fr_energy">    -48.76319531 </i>
    <i name="e_wo_entrp">    -48.77212929 </i>
    <i name="e_0_energy">    -48.76617331 </i>
   </energy>
  </scstep>
  <scstep>
   <time name="diag">    1.09    1.09</time>
   <time name="diis">    4.18    4.18</time>
   <time name="orth">    0.06    0.06</time>
   <time name="total">    7.25    7.25</time>
   <energy>
    <i name="e_fr_energy">    -48.76319942 </i>
    <i name="e_wo_entrp">    -48.77213348 </i>
    <i name="e_0_energy">    -48.76617744 </i>
   </energy>
  </scstep>
  <scstep>
   <time name="diag">    1.09    1.09</time>
   <time name="diis">    4.71    4.71</time>
   <time name="orth">    0.06    0.06</time>
   <time name="total">    7.79    7.79</time>
   <energy>
    <i name="e_fr_energy">    -48.76320081 </i>
    <i name="e_wo_entrp">    -48.77213488 </i>
    <i name="e_0_energy">    -48.76617883 </i>
   </energy>
  </scstep>
  <scstep>
   <time name="diag">    1.09    1.09</time>
   <time name="diis">    4.34    4.34</time>
   <time name="orth">    0.06    0.06</time>
   <time name="total">    7.42    7.43</time>
   <energy>
    <i name="e_fr_energy">    -48.76320175 </i>
    <i name="e_wo_entrp">    -48.77213584 </i>
    <i name="e_0_energy">    -48.76617978 </i>
   </energy>
  </scstep>
  <scstep>
   <time name="diag">    1.09    1.09</time>
   <time name="diis">    4.33    4.33</time>
   <time name="orth">    0.06    0.06</time>
   <time name="total">    7.42    7.43</time>
   <energy>
    <i name="e_fr_energy">    -48.76320246 </i>
    <i name="e_wo_entrp">    -48.77213655 </i>
    <i name="e_0_energy">    -48.76618049 </i>
   </energy>
  </scstep>
  <scstep>
   <time name="diag">    1.09    1.09</time>
   <time name="diis">    4.20    4.20</time>
   <time name="orth">    0.06    0.06</time>
   <time name="total">    7.30    7.30</time>
   <energy>
    <i name="e_fr_energy">    -48.76320295 </i>
    <i name="e_wo_entrp">    -48.77213703 </i>
    <i name="e_0_energy">    -48.76618097 </i>
   </energy>
  </scstep>
  <scstep>
   <time name="diag">    1.09    1.09</time>
   <time name="diis">    4.22    4.22</time>
   <time name="orth">    0.06    0.06</time>
   <time name="total">    7.33    7.33</time>
   <energy>
    <i name="e_fr_energy">    -48.76320333 </i>
    <i name="e_wo_entrp">    -48.77213740 </i>
    <i name="e_0_energy">    -48.76618135 </i>
   </energy>
  </scstep>
  <scstep>
   <time name="diag">    1.09    1.09</time>
   <time name="diis">    3.75    3.75</time>
   <time name="orth">    0.06    0.06</time>
   <time name="total">    6.86    6.87</time>
   <energy>
    <i name="e_fr_energy">    -48.76320355 </i>
    <i name="e_wo_entrp">    -48.77213762 </i>
    <i name="e_0_energy">    -48.76618157 </i>
   </energy>
  </scstep>
  <scstep>
   <time name="diag">    1.09    1.09</time>
   <time name="diis">    3.61    3.61</time>
   <time name="orth">    0.06    0.06</time>
   <time name="total">    6.72    6.73</time>
   <energy>
    <i name="e_fr_energy">    -48.76320380 </i>
    <i name="e_wo_entrp">    -48.77213787 </i>
    <i name="e_0_energy">    -48.76618182 </i>
   </energy>
  </scstep>
  <scstep>
   <time name="diag">    1.09    1.09</time>
   <time name="diis">    3.41    3.42</time>
   <time name="orth">    0.06    0.06</time>
   <time name="total">    6.53    6.54</time>
   <energy>
    <i name="e_fr_energy">    -48.76320390 </i>
    <i name="e_wo_entrp">    -48.77213798 </i>
    <i name="e_0_energy">    -48.76618193 </i>
   </energy>
  </scstep>
  <scstep>
   <time name="diag">    1.09    1.09</time>
   <time name="diis">    3.27    3.27</time>
   <time name="orth">    0.06    0.06</time>
   <time name="total">    5.61    5.61</time>
   <energy>
    <i name="alphaZ">     41.16232785 </i>
    <i name="ewald">  16350.79422786 </i>
    <i name="hartreedc"> -33327.22141614 </i>
    <i name="XCdc">    615.41188754 </i>
    <i name="pawpsdc">  17648.82521515 </i>
    <i name="pawaedc"> -19047.80727817 </i>
    <i name="eentropy">      0.00893408 </i>
    <i name="bandstr">   -992.15634923 </i>
    <i name="atom">  18662.21924712 </i>
    <i name="e_fr_energy">    -48.76320395 </i>
    <i name="e_wo_entrp">    -48.77213803 </i>
    <i name="e_0_energy">    -48.76618198 </i>
   </energy>
  </scstep>
  <structure>
   <crystal>
    <varray name="basis" >
     <v>      15.00000000       0.00000000       0.00000000 </v>
     <v>       0.00000000      15.00000000       0.00000000 </v>
     <v>       0.00000000       0.00000000      15.00000000 </v>
    </varray>
    <i name="volume">   3375.00000000 </i>
    <varray name="rec_basis" >
     <v>       0.06666667       0.00000000       0.00000000 </v>
     <v>       0.00000000       0.06666667       0.00000000 </v>
     <v>       0.00000000       0.00000000       0.06666667 </v>
    </varray>
   </crystal>
   <varray name="positions" >
    <v>       0.29269800       0.41898133       0.55810133 </v>
    <v>       0.37468467       0.54408000       0.49248133 </v>
    <v>       0.39453133       0.29158333       0.55763267 </v>
    <v>       0.53197400       0.50315333       0.48359867 </v>
    <v>       0.54607200       0.34646667       0.53164467 </v>
    <v>       0.44857600       0.43999200       0.61374933 </v>
    <v>       0.41326267       0.40186533       0.44087267 </v>
    <v>       0.22636600       0.56591533       0.55350133 </v>
    <v>       0.33465667       0.54513333       0.66255400 </v>
    <v>       0.35058200       0.68462000       0.56779800 </v>
    <v>       0.48635533       0.66214200       0.47391667 </v>
    <v>       0.63397467       0.49120800       0.60071000 </v>
    <v>       0.48224933       0.59037600       0.61412667 </v>
    <v>       0.74392667       0.49359267       0.64299667 </v>
    <v>       0.81766667       0.49829667       0.66904000 </v>
   </varray>
  </structure>
  <varray name="forces" >
   <v>       0.09675489      -0.09250625       0.03614347 </v>
   <v>      -0.27570235       0.53941507       0.10694049 </v>
   <v>       0.05142441       0.10244812       0.10774428 </v>
   <v>       0.05114226       0.06771714      -0.22845252 </v>
   <v>       0.14464809       0.23501040      -0.16145677 </v>
   <v>       0.03192919      -0.76230135      -0.15741931 </v>
   <v>       0.13208667      -0.43436203       0.39055977 </v>
   <v>      -0.20455099       0.28982901      -0.15916438 </v>
   <v>       0.20623337       0.05659353      -0.23292813 </v>
   <v>       0.00786797      -0.29298747       0.04589387 </v>
   <v>      -0.08844536       0.03527734       0.08232790 </v>
   <v>      -1.07810914      -0.32730167      -0.32785532 </v>
   <v>       0.35711334       0.48482146       0.06683275 </v>
   <v>       2.25065502       0.25275627       1.18820562 </v>
   <v>      -1.68304738      -0.15440957      -0.75737170 </v>
  </varray>
  <varray name="stress" >
   <v>      -0.83745290      -0.38719719       0.03719975 </v>
   <v>      -0.38719719       0.51159401      -0.15601790 </v>
   <v>       0.03719975      -0.15601791      -0.50704306 </v>
  </varray>
  <energy>
   <i name="e_fr_energy">    -48.76320395 </i>
   <i name="e_wo_entrp">    -48.76618198 </i>
   <i name="e_0_energy">      0.00893408 </i>
  </energy>
  <time name="totalsc">  356.68  356.99</time>
  <eigenvalues>
   <array>
    <dimension dim="1">band</dimension>
    <dimension dim="2">kpoint</dimension>
    <dimension dim="3">spin</dimension>
    <field>eigene</field>
    <field>occ</field>
    <set>
     <set comment="spin 1">
      <set comment="kpoint 1">
       <r>  -28.1832    1.0000 </r>
       <r>  -13.9713    1.0000 </r>
       <r>  -11.3439    1.0000 </r>
       <r>  -11.0129    1.0000 </r>
       <r>  -10.9852    1.0000 </r>
       <r>  -10.2134    1.0000 </r>
       <r>   -8.5572    1.0000 </r>
       <r>   -8.2418    1.0000 </r>
       <r>   -7.7853    1.0000 </r>
       <r>   -7.5338    1.0000 </r>
       <r>   -7.4393    1.0000 </r>
       <r>   -7.3998    1.0000 </r>
       <r>   -7.3696    1.0000 </r>
       <r>   -7.2553    1.0000 </r>
       <r>   -7.1263    1.0000 </r>
       <r>   -7.0334    1.0000 </r>
       <r>   -6.8278    1.0000 </r>
       <r>   -6.7786    1.0000 </r>
       <r>   -6.7325    1.0000 </r>
       <r>   -6.6709    1.0000 </r>
       <r>   -6.6335    1.0000 </r>
       <r>   -6.5966    1.0000 </r>
       <r>   -6.5521    1.0000 </r>
       <r>   -6.5121    1.0000 </r>
       <r>   -6.4565    1.0000 </r>
       <r>   -6.4527    1.0000 </r>
       <r>   -6.4055    1.0000 </r>
       <r>   -6.3194    1.0000 </r>
       <r>   -6.2827    1.0000 </r>
       <r>   -6.2502    1.0000 </r>
       <r>   -6.2003    1.0000 </r>
       <r>   -6.1487    1.0000 </r>
       <r>   -6.1285    1.0000 </r>
       <r>   -6.0851    1.0000 </r>
       <r>   -5.9984    1.0000 </r>
       <r>   -5.8883    1.0000 </r>
       <r>   -5.8072    1.0000 </r>
       <r>   -5.7490    1.0000 </r>
       <r>   -5.6948    1.0000 </r>
       <r>   -5.6527    1.0000 </r>
       <r>   -5.6132    1.0000 </r>
       <r>   -5.5576    1.0000 </r>
       <r>   -5.5172    1.0000 </r>
       <r>   -5.4924    1.0000 </r>
       <r>   -5.4529    1.0000 </r>
       <r>   -5.4309    1.0000 </r>
       <r>   -5.3954    1.0000 </r>
       <r>   -5.3851    1.0000 </r>
       <r>   -5.3686    1.0000 </r>
       <r>   -5.3525    1.0000 </r>
       <r>   -5.3228    1.0000 </r>
       <r>   -5.2684    1.0000 </r>
       <r>   -5.2560    1.0000 </r>
       <r>   -5.2123    1.0000 </r>
       <r>   -5.2028    1.0000 </r>
       <r>   -5.1653    1.0000 </r>
       <r>   -5.1490    1.0000 </r>
       <r>   -5.1452    1.0000 </r>
       <r>   -5.1317    1.0000 </r>
       <r>   -5.1036    1.0000 </r>
       <r>   -5.0847    1.0000 </r>
       <r>   -5.0165    1.0000 </r>
       <r>   -5.0140    1.0000 </r>
       <r>   -4.9789    1.0000 </r>
       <r>   -4.9502    1.0000 </r>
       <r>   -4.9173    1.0000 </r>
       <r>   -4.8908    1.0000 </r>
       <r>   -4.8861    1.0000 </r>
       <r>   -4.8767    1.0000 </r>
       <r>   -4.8276    1.0000 </r>
       <r>   -4.8208    1.0000 </r>
       <r>   -4.7681    1.0000 </r>
       <r>   -4.7344    1.0000 </r>
       <r>   -4.5668    1.0000 </r>
       <r>   -4.1493    1.0000 </r>
       <r>   -4.0995    1.0000 </r>
       <r>   -3.5811    1.0000 </r>
       <r>   -3.0293   -0.0000 </r>
       <r>   -2.9641   -0.0000 </r>
       <r>   -2.5481   -0.0000 </r>
       <r>   -2.4403   -0.0000 </r>
       <r>   -1.9867   -0.0000 </r>
       <r>   -1.8991   -0.0000 </r>
       <r>   -1.7648   -0.0000 </r>
       <r>   -1.4392   -0.0000 </r>
       <r>   -1.0994   -0.0000 </r>
       <r>   -0.9510   -0.0000 </r>
       <r>   -0.6330    0.0000 </r>
       <r>   -0.3817    0.0000 </r>
       <r>   -0.2753    0.0000 </r>
       <r>   -0.1027    0.0000 </r>
       <r>    0.0773    0.0000 </r>
      </set>
     </set>
     <set comment="spin 2">
      <set comment="kpoint 1">
       <r>  -28.1654    1.0000 </r>
       <r>  -13.9338    1.0000 </r>
       <r>  -11.3149    1.0000 </r>
       <r>  -10.9779    1.0000 </r>
       <r>  -10.9562    1.0000 </r>
       <r>  -10.1701    1.0000 </r>
       <r>   -8.5350    1.0000 </r>
       <r>   -8.1923    1.0000 </r>
       <r>   -7.7421    1.0000 </r>
       <r>   -7.5135    1.0000 </r>
       <r>   -7.4155    1.0000 </r>
       <r>   -7.3567    1.0000 </r>
       <r>   -7.3158    1.0000 </r>
       <r>   -7.2317    1.0000 </r>
       <r>   -7.0966    1.0000 </r>
       <r>   -7.0010    1.0000 </r>
       <r>   -6.8056    1.0000 </r>
       <r>   -6.7466    1.0000 </r>
       <r>   -6.6982    1.0000 </r>
       <r>   -6.6528    1.0000 </r>
       <r>   -6.6130    1.0000 </r>
       <r>   -6.5736    1.0000 </r>
       <r>   -6.5249    1.0000 </r>
       <r>   -6.4840    1.0000 </r>
       <r>   -6.4321    1.0000 </r>
       <r>   -6.4279    1.0000 </r>
       <r>   -6.3721    1.0000 </r>
       <r>   -6.2970    1.0000 </r>
       <r>   -6.2610    1.0000 </r>
       <r>   -6.2252    1.0000 </r>
       <r>   -6.1797    1.0000 </r>
       <r>   -6.1227    1.0000 </r>
       <r>   -6.0992    1.0000 </r>
       <r>   -6.0620    1.0000 </r>
       <r>   -5.9731    1.0000 </r>
       <r>   -5.8633    1.0000 </r>
       <r>   -5.7731    1.0000 </r>
       <r>   -5.7269    1.0000 </r>
       <r>   -5.6752    1.0000 </r>
       <r>   -5.6259    1.0000 </r>
       <r>   -5.5887    1.0000 </r>
       <r>   -5.5258    1.0000 </r>
       <r>   -5.4934    1.0000 </r>
       <r>   -5.4659    1.0000 </r>
       <r>   -5.4269    1.0000 </r>
       <r>   -5.3927    1.0000 </r>
       <r>   -5.3676    1.0000 </r>
       <r>   -5.3594    1.0000 </r>
       <r>   -5.3474    1.0000 </r>
       <r>   -5.3210    1.0000 </r>
       <r>   -5.2910    1.0000 </r>
       <r>   -5.2438    1.0000 </r>
       <r>   -5.2293    1.0000 </r>
       <r>   -5.1877    1.0000 </r>
       <r>   -5.1817    1.0000 </r>
       <r>   -5.1403    1.0000 </r>
       <r>   -5.1297    1.0000 </r>
       <r>   -5.1177    1.0000 </r>
       <r>   -5.1135    1.0000 </r>
       <r>   -5.0685    1.0000 </r>
       <r>   -5.0642    1.0000 </r>
       <r>   -4.9953    1.0000 </r>
       <r>   -4.9894    1.0000 </r>
       <r>   -4.9483    1.0000 </r>
       <r>   -4.9204    1.0000 </r>
       <r>   -4.8942    1.0000 </r>
       <r>   -4.8646    1.0000 </r>
       <r>   -4.8515    1.0000 </r>
       <r>   -4.8392    1.0000 </r>
       <r>   -4.7985    1.0000 </r>
       <r>   -4.7842    1.0000 </r>
       <r>   -4.7431    1.0000 </r>
       <r>   -4.7033    1.0000 </r>
       <r>   -4.5255    1.0000 </r>
       <r>   -4.0845    1.0224 </r>
       <r>   -4.0624    0.9776 </r>
       <r>   -3.3673   -0.0000 </r>
       <r>   -2.9764   -0.0000 </r>
       <r>   -2.9156   -0.0000 </r>
       <r>   -2.4823   -0.0000 </r>
       <r>   -2.3589   -0.0000 </r>
       <r>   -1.9583   -0.0000 </r>
       <r>   -1.8166   -0.0000 </r>
       <r>   -1.7091   -0.0000 </r>
       <r>   -1.3322   -0.0000 </r>
       <r>   -0.9535    0.0000 </r>
       <r>   -0.8769    0.0000 </r>
       <r>   -0.5674    0.0000 </r>
       <r>   -0.2708    0.0000 </r>
       <r>   -0.2305    0.0000 </r>
       <r>   -0.0474    0.0000 </r>
       <r>    0.1285    0.0000 </r>
      </set>
     </set>
    </set>
   </array>
  </eigenvalues>
  <separator name="orbital magnetization" >
   <v name="MAGDIPOLOUT">      0.00000000      0.00000000      0.00000000</v>
  </separator>
  <dos>
   <i name="efermi">     -3.98690414 </i>
   <total>
    <array>
     <dimension dim="1">gridpoints</dimension>
     <dimension dim="2">spin</dimension>
     <field>energy</field>
     <field>total</field>
     <field>integrated</field>
     <set>
      <set comment="spin 1">
       <r>   -29.5988     0.0000     0.0000 </r>
       <r>   -29.4950     0.0000     0.0000 </r>
       <r>   -29.3912     0.0000     0.0000 </r>
       <r>   -29.2874     0.0000     0.0000 </r>
       <r>   -29.1836     0.0000     0.0000 </r>
       <r>   -29.0798    -0.0000    -0.0000 </r>
       <r>   -28.9759    -0.0000    -0.0000 </r>
       <r>   -28.8721    -0.0000    -0.0000 </r>
       <r>   -28.7683    -0.0000    -0.0000 </r>
       <r>   -28.6645    -0.0000    -0.0000 </r>
       <r>   -28.5607    -0.0000    -0.0000 </r>
       <r>   -28.4569    -0.0072    -0.0008 </r>
       <r>   -28.3531    -0.3512    -0.0372 </r>
       <r>   -28.2493     1.4111     0.1093 </r>
       <r>   -28.1455    14.2758     1.5912 </r>
       <r>   -28.0417     4.5384     2.0624 </r>
       <r>   -27.9379    -0.5735     2.0028 </r>
       <r>   -27.8340    -0.0273     2.0000 </r>
       <r>   -27.7302    -0.0001     2.0000 </r>
       <r>   -27.6264    -0.0000     2.0000 </r>
       <r>   -27.5226    -0.0000     2.0000 </r>
       <r>   -27.4188     0.0000     2.0000 </r>
       <r>   -27.3150     0.0000     2.0000 </r>
       <r>   -27.2112     0.0000     2.0000 </r>
       <r>   -27.1074     0.0000     2.0000 </r>
       <r>   -27.0036     0.0000     2.0000 </r>
       <r>   -26.8998     0.0000     2.0000 </r>
       <r>   -26.7959     0.0000     2.0000 </r>
       <r>   -26.6921     0.0000     2.0000 </r>
       <r>   -26.5883     0.0000     2.0000 </r>
       <r>   -26.4845     0.0000     2.0000 </r>
       <r>   -26.3807     0.0000     2.0000 </r>
       <r>   -26.2769     0.0000     2.0000 </r>
       <r>   -26.1731     0.0000     2.0000 </r>
       <r>   -26.0693     0.0000     2.0000 </r>
       <r>   -25.9655     0.0000     2.0000 </r>
       <r>   -25.8617     0.0000     2.0000 </r>
       <r>   -25.7578     0.0000     2.0000 </r>
       <r>   -25.6540     0.0000     2.0000 </r>
       <r>   -25.5502     0.0000     2.0000 </r>
       <r>   -25.4464     0.0000     2.0000 </r>
       <r>   -25.3426     0.0000     2.0000 </r>
       <r>   -25.2388     0.0000     2.0000 </r>
       <r>   -25.1350     0.0000     2.0000 </r>
       <r>   -25.0312     0.0000     2.0000 </r>
       <r>   -24.9274     0.0000     2.0000 </r>
       <r>   -24.8236     0.0000     2.0000 </r>
       <r>   -24.7197     0.0000     2.0000 </r>
       <r>   -24.6159     0.0000     2.0000 </r>
       <r>   -24.5121     0.0000     2.0000 </r>
       <r>   -24.4083     0.0000     2.0000 </r>
       <r>   -24.3045     0.0000     2.0000 </r>
       <r>   -24.2007     0.0000     2.0000 </r>
       <r>   -24.0969     0.0000     2.0000 </r>
       <r>   -23.9931     0.0000     2.0000 </r>
       <r>   -23.8893     0.0000     2.0000 </r>
       <r>   -23.7855     0.0000     2.0000 </r>
       <r>   -23.6817     0.0000     2.0000 </r>
       <r>   -23.5778     0.0000     2.0000 </r>
       <r>   -23.4740     0.0000     2.0000 </r>
       <r>   -23.3702     0.0000     2.0000 </r>
       <r>   -23.2664     0.0000     2.0000 </r>
       <r>   -23.1626     0.0000     2.0000 </r>
       <r>   -23.0588     0.0000     2.0000 </r>
       <r>   -22.9550     0.0000     2.0000 </r>
       <r>   -22.8512     0.0000     2.0000 </r>
       <r>   -22.7474     0.0000     2.0000 </r>
       <r>   -22.6436     0.0000     2.0000 </r>
       <r>   -22.5397     0.0000     2.0000 </r>
       <r>   -22.4359     0.0000     2.0000 </r>
       <r>   -22.3321     0.0000     2.0000 </r>
       <r>   -22.2283     0.0000     2.0000 </r>
       <r>   -22.1245     0.0000     2.0000 </r>
       <r>   -22.0207     0.0000     2.0000 </r>
       <r>   -21.9169     0.0000     2.0000 </r>
       <r>   -21.8131     0.0000     2.0000 </r>
       <r>   -21.7093     0.0000     2.0000 </r>
       <r>   -21.6055     0.0000     2.0000 </r>
       <r>   -21.5016     0.0000     2.0000 </r>
       <r>   -21.3978     0.0000     2.0000 </r>
       <r>   -21.2940     0.0000     2.0000 </r>
       <r>   -21.1902     0.0000     2.0000 </r>
       <r>   -21.0864     0.0000     2.0000 </r>
       <r>   -20.9826     0.0000     2.0000 </r>
       <r>   -20.8788     0.0000     2.0000 </r>
       <r>   -20.7750     0.0000     2.0000 </r>
       <r>   -20.6712     0.0000     2.0000 </r>
       <r>   -20.5674     0.0000     2.0000 </r>
       <r>   -20.4635     0.0000     2.0000 </r>
       <r>   -20.3597     0.0000     2.0000 </r>
       <r>   -20.2559     0.0000     2.0000 </r>
       <r>   -20.1521     0.0000     2.0000 </r>
       <r>   -20.0483     0.0000     2.0000 </r>
       <r>   -19.9445     0.0000     2.0000 </r>
       <r>   -19.8407     0.0000     2.0000 </r>
       <r>   -19.7369     0.0000     2.0000 </r>
       <r>   -19.6331     0.0000     2.0000 </r>
       <r>   -19.5293     0.0000     2.0000 </r>
       <r>   -19.4254     0.0000     2.0000 </r>
       <r>   -19.3216     0.0000     2.0000 </r>
       <r>   -19.2178     0.0000     2.0000 </r>
       <r>   -19.1140     0.0000     2.0000 </r>
       <r>   -19.0102     0.0000     2.0000 </r>
       <r>   -18.9064     0.0000     2.0000 </r>
       <r>   -18.8026     0.0000     2.0000 </r>
       <r>   -18.6988     0.0000     2.0000 </r>
       <r>   -18.5950     0.0000     2.0000 </r>
       <r>   -18.4912     0.0000     2.0000 </r>
       <r>   -18.3874     0.0000     2.0000 </r>
       <r>   -18.2835     0.0000     2.0000 </r>
       <r>   -18.1797     0.0000     2.0000 </r>
       <r>   -18.0759     0.0000     2.0000 </r>
       <r>   -17.9721     0.0000     2.0000 </r>
       <r>   -17.8683     0.0000     2.0000 </r>
       <r>   -17.7645     0.0000     2.0000 </r>
       <r>   -17.6607     0.0000     2.0000 </r>
       <r>   -17.5569     0.0000     2.0000 </r>
       <r>   -17.4531     0.0000     2.0000 </r>
       <r>   -17.3493     0.0000     2.0000 </r>
       <r>   -17.2454     0.0000     2.0000 </r>
       <r>   -17.1416     0.0000     2.0000 </r>
       <r>   -17.0378     0.0000     2.0000 </r>
       <r>   -16.9340     0.0000     2.0000 </r>
       <r>   -16.8302     0.0000     2.0000 </r>
       <r>   -16.7264     0.0000     2.0000 </r>
       <r>   -16.6226     0.0000     2.0000 </r>
       <r>   -16.5188     0.0000     2.0000 </r>
       <r>   -16.4150     0.0000     2.0000 </r>
       <r>   -16.3112     0.0000     2.0000 </r>
       <r>   -16.2073     0.0000     2.0000 </r>
       <r>   -16.1035     0.0000     2.0000 </r>
       <r>   -15.9997     0.0000     2.0000 </r>
       <r>   -15.8959     0.0000     2.0000 </r>
       <r>   -15.7921     0.0000     2.0000 </r>
       <r>   -15.6883     0.0000     2.0000 </r>
       <r>   -15.5845     0.0000     2.0000 </r>
       <r>   -15.4807     0.0000     2.0000 </r>
       <r>   -15.3769     0.0000     2.0000 </r>
       <r>   -15.2731     0.0000     2.0000 </r>
       <r>   -15.1692     0.0000     2.0000 </r>
       <r>   -15.0654     0.0000     2.0000 </r>
       <r>   -14.9616     0.0000     2.0000 </r>
       <r>   -14.8578    -0.0000     2.0000 </r>
       <r>   -14.7540    -0.0000     2.0000 </r>
       <r>   -14.6502    -0.0000     2.0000 </r>
       <r>   -14.5464    -0.0000     2.0000 </r>
       <r>   -14.4426    -0.0000     2.0000 </r>
       <r>   -14.3388    -0.0000     2.0000 </r>
       <r>   -14.2350    -0.0118     1.9988 </r>
       <r>   -14.1312    -0.4334     1.9538 </r>
       <r>   -14.0273     2.3392     2.1966 </r>
       <r>   -13.9235    14.6232     3.7146 </r>
       <r>   -13.8197     3.2684     4.0539 </r>
       <r>   -13.7159    -0.5020     4.0018 </r>
       <r>   -13.6121    -0.0175     4.0000 </r>
       <r>   -13.5083    -0.0000     4.0000 </r>
       <r>   -13.4045    -0.0000     4.0000 </r>
       <r>   -13.3007    -0.0000     4.0000 </r>
       <r>   -13.1969     0.0000     4.0000 </r>
       <r>   -13.0931     0.0000     4.0000 </r>
       <r>   -12.9892     0.0000     4.0000 </r>
       <r>   -12.8854     0.0000     4.0000 </r>
       <r>   -12.7816     0.0000     4.0000 </r>
       <r>   -12.6778     0.0000     4.0000 </r>
       <r>   -12.5740     0.0000     4.0000 </r>
       <r>   -12.4702     0.0000     4.0000 </r>
       <r>   -12.3664     0.0000     4.0000 </r>
       <r>   -12.2626     0.0000     4.0000 </r>
       <r>   -12.1588    -0.0000     4.0000 </r>
       <r>   -12.0550    -0.0000     4.0000 </r>
       <r>   -11.9511    -0.0000     4.0000 </r>
       <r>   -11.8473    -0.0000     4.0000 </r>
       <r>   -11.7435    -0.0000     4.0000 </r>
       <r>   -11.6397    -0.0023     3.9998 </r>
       <r>   -11.5359    -0.1955     3.9795 </r>
       <r>   -11.4321     0.0409     3.9837 </r>
       <r>   -11.3283    12.3013     5.2607 </r>
       <r>   -11.2245     7.6623     6.0561 </r>
       <r>   -11.1207    -1.7203     5.8776 </r>
       <r>   -11.0169    14.9080     7.4252 </r>
       <r>   -10.9130    24.6509     9.9842 </r>
       <r>   -10.8092     0.5983    10.0463 </r>
       <r>   -10.7054    -0.4392    10.0007 </r>
       <r>   -10.6016    -0.0065    10.0000 </r>
       <r>   -10.4978    -0.0042     9.9996 </r>
       <r>   -10.3940    -0.2692     9.9716 </r>
       <r>   -10.2902     0.6305    10.0371 </r>
       <r>   -10.1864    13.5034    11.4389 </r>
       <r>   -10.0826     6.0703    12.0690 </r>
       <r>    -9.9788    -0.6217    12.0045 </r>
       <r>    -9.8750    -0.0430    12.0000 </r>
       <r>    -9.7711    -0.0002    12.0000 </r>
       <r>    -9.6673    -0.0000    12.0000 </r>
       <r>    -9.5635    -0.0000    12.0000 </r>
       <r>    -9.4597    -0.0000    12.0000 </r>
       <r>    -9.3559    -0.0000    12.0000 </r>
       <r>    -9.2521    -0.0000    12.0000 </r>
       <r>    -9.1483    -0.0000    12.0000 </r>
       <r>    -9.0445    -0.0000    12.0000 </r>
       <r>    -8.9407    -0.0000    12.0000 </r>
       <r>    -8.8369    -0.0054    11.9994 </r>
       <r>    -8.7330    -0.3046    11.9678 </r>
       <r>    -8.6292     0.9514    12.0666 </r>
       <r>    -8.5254    13.8923    13.5088 </r>
       <r>    -8.4216     5.0931    14.0375 </r>
       <r>    -8.3178     0.0787    14.0456 </r>
       <r>    -8.2140    13.5430    15.4515 </r>
       <r>    -8.1102     5.9441    16.0686 </r>
       <r>    -8.0064    -0.6927    15.9967 </r>
       <r>    -7.9026    -0.6423    15.9300 </r>
       <r>    -7.7988     8.1271    16.7737 </r>
       <r>    -7.6949    11.5907    17.9769 </r>
       <r>    -7.5911     1.3958    18.1218 </r>
       <r>    -7.4873    17.0710    19.8939 </r>
       <r>    -7.3835    37.8375    23.8219 </r>
       <r>    -7.2797    27.5972    26.6867 </r>
       <r>    -7.1759    14.6478    28.2073 </r>
       <r>    -7.0721    19.2350    30.2041 </r>
       <r>    -6.9683    15.7751    31.8417 </r>
       <r>    -6.8645     5.0069    32.3614 </r>
       <r>    -6.7607    31.1189    35.5919 </r>
       <r>    -6.6568    41.7059    39.9214 </r>
       <r>    -6.5530    48.4325    44.9491 </r>
       <r>    -6.4492    52.4943    50.3986 </r>
       <r>    -6.3454    40.5725    54.6104 </r>
       <r>    -6.2416    42.4979    59.0221 </r>
       <r>    -6.1378    49.9539    64.2078 </r>
       <r>    -6.0340    39.2507    68.2824 </r>
       <r>    -5.9302    18.8109    70.2352 </r>
       <r>    -5.8264    21.7827    72.4964 </r>
       <r>    -5.7226    33.5443    75.9786 </r>
       <r>    -5.6188    43.0123    80.4437 </r>
       <r>    -5.5149    47.1893    85.3424 </r>
       <r>    -5.4111    71.4924    92.7641 </r>
       <r>    -5.3073    82.0447   101.2811 </r>
       <r>    -5.2035    71.3999   108.6931 </r>
       <r>    -5.0997    96.1157   118.6709 </r>
       <r>    -4.9959    68.0847   125.7387 </r>
       <r>    -4.8921    80.7740   134.1238 </r>
       <r>    -4.7883    78.5151   142.2745 </r>
       <r>    -4.6845    34.4278   145.8484 </r>
       <r>    -4.5807     9.6483   146.8500 </r>
       <r>    -4.4768    11.3143   148.0245 </r>
       <r>    -4.3730    -0.1227   148.0118 </r>
       <r>    -4.2692    -1.1526   147.8922 </r>
       <r>    -4.1654     9.1419   148.8412 </r>
       <r>    -4.0616    26.6486   151.6076 </r>
       <r>    -3.9578     4.5809   152.0831 </r>
       <r>    -3.8540    -0.7786   152.0023 </r>
       <r>    -3.7502    -0.3869   151.9621 </r>
       <r>    -3.6464     1.4770   152.1154 </r>
       <r>    -3.5426    14.3166   153.6016 </r>
       <r>    -3.4387     4.4323   154.0618 </r>
       <r>    -3.3349    -0.5699   154.0026 </r>
       <r>    -3.2311    -0.1804   153.9839 </r>
       <r>    -3.1273    -0.7017   153.9110 </r>
       <r>    -3.0235    13.0311   155.2638 </r>
       <r>    -2.9197    23.8580   157.7405 </r>
       <r>    -2.8159     3.1354   158.0660 </r>
       <r>    -2.7121    -1.0321   157.9588 </r>
       <r>    -2.6083     1.5520   158.1200 </r>
       <r>    -2.5045    16.0983   159.7911 </r>
       <r>    -2.4006    18.1324   161.6734 </r>
       <r>    -2.2968     3.7523   162.0630 </r>
       <r>    -2.1930    -0.7089   161.9894 </r>
       <r>    -2.0892    -0.6374   161.9232 </r>
       <r>    -1.9854    10.4276   163.0057 </r>
       <r>    -1.8816    21.9156   165.2808 </r>
       <r>    -1.7778    15.2579   166.8647 </r>
       <r>    -1.6740    11.2036   168.0277 </r>
       <r>    -1.5702    -0.7483   167.9500 </r>
       <r>    -1.4664     5.8680   168.5592 </r>
       <r>    -1.3625    13.5022   169.9608 </r>
       <r>    -1.2587     0.2006   169.9817 </r>
       <r>    -1.1549     1.9885   170.1881 </r>
       <r>    -1.0511    14.2746   171.6699 </r>
       <r>    -0.9473    13.9207   173.1150 </r>
       <r>    -0.8435     9.0356   174.0530 </r>
       <r>    -0.7397    -0.9976   173.9495 </r>
       <r>    -0.6359     9.6358   174.9497 </r>
       <r>    -0.5321    10.0736   175.9955 </r>
       <r>    -0.4283     2.5480   176.2600 </r>
       <r>    -0.3245    17.4943   178.0761 </r>
       <r>    -0.2206    16.2542   179.7634 </r>
       <r>    -0.1168     9.9196   180.7932 </r>
       <r>    -0.0130    11.6162   181.9990 </r>
       <r>     0.0908    12.0041   183.2452 </r>
       <r>     0.1946     7.9477   184.0702 </r>
       <r>     0.2984    -0.6031   184.0076 </r>
       <r>     0.4022    -0.0731   184.0000 </r>
       <r>     0.5060    -0.0004   184.0000 </r>
       <r>     0.6098    -0.0000   184.0000 </r>
       <r>     0.7136    -0.0000   184.0000 </r>
       <r>     0.8175     0.0000   184.0000 </r>
       <r>     0.9213     0.0000   184.0000 </r>
       <r>     1.0251     0.0000   184.0000 </r>
       <r>     1.1289     0.0000   184.0000 </r>
       <r>     1.2327     0.0000   184.0000 </r>
       <r>     1.3365     0.0000   184.0000 </r>
       <r>     1.4403     0.0000   184.0000 </r>
       <r>     1.5441     0.0000   184.0000 </r>
      </set>
      <set comment="spin 2">
       <r>   -29.5988     0.0000     0.0000 </r>
       <r>   -29.4950     0.0000     0.0000 </r>
       <r>   -29.3912     0.0000     0.0000 </r>
       <r>   -29.2874     0.0000     0.0000 </r>
       <r>   -29.1836     0.0000     0.0000 </r>
       <r>   -29.0798     0.0000     0.0000 </r>
       <r>   -28.9759    -0.0000    -0.0000 </r>
       <r>   -28.8721    -0.0000    -0.0000 </r>
       <r>   -28.7683    -0.0000    -0.0000 </r>
       <r>   -28.6645    -0.0000    -0.0000 </r>
       <r>   -28.5607    -0.0000    -0.0000 </r>
       <r>   -28.4569    -0.0029    -0.0003 </r>
       <r>   -28.3531    -0.2219    -0.0233 </r>
       <r>   -28.2493     0.2397     0.0015 </r>
       <r>   -28.1455    12.8032     1.3306 </r>
       <r>   -28.0417     7.1306     2.0709 </r>
       <r>   -27.9379    -0.6254     2.0059 </r>
       <r>   -27.8340    -0.0569     2.0000 </r>
       <r>   -27.7302    -0.0003     2.0000 </r>
       <r>   -27.6264    -0.0000     2.0000 </r>
       <r>   -27.5226    -0.0000     2.0000 </r>
       <r>   -27.4188     0.0000     2.0000 </r>
       <r>   -27.3150     0.0000     2.0000 </r>
       <r>   -27.2112     0.0000     2.0000 </r>
       <r>   -27.1074     0.0000     2.0000 </r>
       <r>   -27.0036     0.0000     2.0000 </r>
       <r>   -26.8998     0.0000     2.0000 </r>
       <r>   -26.7959     0.0000     2.0000 </r>
       <r>   -26.6921     0.0000     2.0000 </r>
       <r>   -26.5883     0.0000     2.0000 </r>
       <r>   -26.4845     0.0000     2.0000 </r>
       <r>   -26.3807     0.0000     2.0000 </r>
       <r>   -26.2769     0.0000     2.0000 </r>
       <r>   -26.1731     0.0000     2.0000 </r>
       <r>   -26.0693     0.0000     2.0000 </r>
       <r>   -25.9655     0.0000     2.0000 </r>
       <r>   -25.8617     0.0000     2.0000 </r>
       <r>   -25.7578     0.0000     2.0000 </r>
       <r>   -25.6540     0.0000     2.0000 </r>
       <r>   -25.5502     0.0000     2.0000 </r>
       <r>   -25.4464     0.0000     2.0000 </r>
       <r>   -25.3426     0.0000     2.0000 </r>
       <r>   -25.2388     0.0000     2.0000 </r>
       <r>   -25.1350     0.0000     2.0000 </r>
       <r>   -25.0312     0.0000     2.0000 </r>
       <r>   -24.9274     0.0000     2.0000 </r>
       <r>   -24.8236     0.0000     2.0000 </r>
       <r>   -24.7197     0.0000     2.0000 </r>
       <r>   -24.6159     0.0000     2.0000 </r>
       <r>   -24.5121     0.0000     2.0000 </r>
       <r>   -24.4083     0.0000     2.0000 </r>
       <r>   -24.3045     0.0000     2.0000 </r>
       <r>   -24.2007     0.0000     2.0000 </r>
       <r>   -24.0969     0.0000     2.0000 </r>
       <r>   -23.9931     0.0000     2.0000 </r>
       <r>   -23.8893     0.0000     2.0000 </r>
       <r>   -23.7855     0.0000     2.0000 </r>
       <r>   -23.6817     0.0000     2.0000 </r>
       <r>   -23.5778     0.0000     2.0000 </r>
       <r>   -23.4740     0.0000     2.0000 </r>
       <r>   -23.3702     0.0000     2.0000 </r>
       <r>   -23.2664     0.0000     2.0000 </r>
       <r>   -23.1626     0.0000     2.0000 </r>
       <r>   -23.0588     0.0000     2.0000 </r>
       <r>   -22.9550     0.0000     2.0000 </r>
       <r>   -22.8512     0.0000     2.0000 </r>
       <r>   -22.7474     0.0000     2.0000 </r>
       <r>   -22.6436     0.0000     2.0000 </r>
       <r>   -22.5397     0.0000     2.0000 </r>
       <r>   -22.4359     0.0000     2.0000 </r>
       <r>   -22.3321     0.0000     2.0000 </r>
       <r>   -22.2283     0.0000     2.0000 </r>
       <r>   -22.1245     0.0000     2.0000 </r>
       <r>   -22.0207     0.0000     2.0000 </r>
       <r>   -21.9169     0.0000     2.0000 </r>
       <r>   -21.8131     0.0000     2.0000 </r>
       <r>   -21.7093     0.0000     2.0000 </r>
       <r>   -21.6055     0.0000     2.0000 </r>
       <r>   -21.5016     0.0000     2.0000 </r>
       <r>   -21.3978     0.0000     2.0000 </r>
       <r>   -21.2940     0.0000     2.0000 </r>
       <r>   -21.1902     0.0000     2.0000 </r>
       <r>   -21.0864     0.0000     2.0000 </r>
       <r>   -20.9826     0.0000     2.0000 </r>
       <r>   -20.8788     0.0000     2.0000 </r>
       <r>   -20.7750     0.0000     2.0000 </r>
       <r>   -20.6712     0.0000     2.0000 </r>
       <r>   -20.5674     0.0000     2.0000 </r>
       <r>   -20.4635     0.0000     2.0000 </r>
       <r>   -20.3597     0.0000     2.0000 </r>
       <r>   -20.2559     0.0000     2.0000 </r>
       <r>   -20.1521     0.0000     2.0000 </r>
       <r>   -20.0483     0.0000     2.0000 </r>
       <r>   -19.9445     0.0000     2.0000 </r>
       <r>   -19.8407     0.0000     2.0000 </r>
       <r>   -19.7369     0.0000     2.0000 </r>
       <r>   -19.6331     0.0000     2.0000 </r>
       <r>   -19.5293     0.0000     2.0000 </r>
       <r>   -19.4254     0.0000     2.0000 </r>
       <r>   -19.3216     0.0000     2.0000 </r>
       <r>   -19.2178     0.0000     2.0000 </r>
       <r>   -19.1140     0.0000     2.0000 </r>
       <r>   -19.0102     0.0000     2.0000 </r>
       <r>   -18.9064     0.0000     2.0000 </r>
       <r>   -18.8026     0.0000     2.0000 </r>
       <r>   -18.6988     0.0000     2.0000 </r>
       <r>   -18.5950     0.0000     2.0000 </r>
       <r>   -18.4912     0.0000     2.0000 </r>
       <r>   -18.3874     0.0000     2.0000 </r>
       <r>   -18.2835     0.0000     2.0000 </r>
       <r>   -18.1797     0.0000     2.0000 </r>
       <r>   -18.0759     0.0000     2.0000 </r>
       <r>   -17.9721     0.0000     2.0000 </r>
       <r>   -17.8683     0.0000     2.0000 </r>
       <r>   -17.7645     0.0000     2.0000 </r>
       <r>   -17.6607     0.0000     2.0000 </r>
       <r>   -17.5569     0.0000     2.0000 </r>
       <r>   -17.4531     0.0000     2.0000 </r>
       <r>   -17.3493     0.0000     2.0000 </r>
       <r>   -17.2454     0.0000     2.0000 </r>
       <r>   -17.1416     0.0000     2.0000 </r>
       <r>   -17.0378     0.0000     2.0000 </r>
       <r>   -16.9340     0.0000     2.0000 </r>
       <r>   -16.8302     0.0000     2.0000 </r>
       <r>   -16.7264     0.0000     2.0000 </r>
       <r>   -16.6226     0.0000     2.0000 </r>
       <r>   -16.5188     0.0000     2.0000 </r>
       <r>   -16.4150     0.0000     2.0000 </r>
       <r>   -16.3112     0.0000     2.0000 </r>
       <r>   -16.2073     0.0000     2.0000 </r>
       <r>   -16.1035     0.0000     2.0000 </r>
       <r>   -15.9997     0.0000     2.0000 </r>
       <r>   -15.8959     0.0000     2.0000 </r>
       <r>   -15.7921     0.0000     2.0000 </r>
       <r>   -15.6883     0.0000     2.0000 </r>
       <r>   -15.5845     0.0000     2.0000 </r>
       <r>   -15.4807     0.0000     2.0000 </r>
       <r>   -15.3769     0.0000     2.0000 </r>
       <r>   -15.2731     0.0000     2.0000 </r>
       <r>   -15.1692     0.0000     2.0000 </r>
       <r>   -15.0654     0.0000     2.0000 </r>
       <r>   -14.9616     0.0000     2.0000 </r>
       <r>   -14.8578     0.0000     2.0000 </r>
       <r>   -14.7540    -0.0000     2.0000 </r>
       <r>   -14.6502    -0.0000     2.0000 </r>
       <r>   -14.5464    -0.0000     2.0000 </r>
       <r>   -14.4426    -0.0000     2.0000 </r>
       <r>   -14.3388    -0.0000     2.0000 </r>
       <r>   -14.2350    -0.0017     1.9998 </r>
       <r>   -14.1312    -0.1661     1.9826 </r>
       <r>   -14.0273    -0.1603     1.9659 </r>
       <r>   -13.9235    11.6291     3.1732 </r>
       <r>   -13.8197     8.6248     4.0685 </r>
       <r>   -13.7159    -0.5771     4.0086 </r>
       <r>   -13.6121    -0.0823     4.0001 </r>
       <r>   -13.5083    -0.0005     4.0000 </r>
       <r>   -13.4045    -0.0000     4.0000 </r>
       <r>   -13.3007    -0.0000     4.0000 </r>
       <r>   -13.1969     0.0000     4.0000 </r>
       <r>   -13.0931     0.0000     4.0000 </r>
       <r>   -12.9892     0.0000     4.0000 </r>
       <r>   -12.8854     0.0000     4.0000 </r>
       <r>   -12.7816     0.0000     4.0000 </r>
       <r>   -12.6778     0.0000     4.0000 </r>
       <r>   -12.5740     0.0000     4.0000 </r>
       <r>   -12.4702     0.0000     4.0000 </r>
       <r>   -12.3664     0.0000     4.0000 </r>
       <r>   -12.2626     0.0000     4.0000 </r>
       <r>   -12.1588    -0.0000     4.0000 </r>
       <r>   -12.0550    -0.0000     4.0000 </r>
       <r>   -11.9511    -0.0000     4.0000 </r>
       <r>   -11.8473    -0.0000     4.0000 </r>
       <r>   -11.7435    -0.0000     4.0000 </r>
       <r>   -11.6397    -0.0004     4.0000 </r>
       <r>   -11.5359    -0.0734     3.9923 </r>
       <r>   -11.4321    -0.6003     3.9300 </r>
       <r>   -11.3283     8.1519     4.7763 </r>
       <r>   -11.2245    11.9875     6.0207 </r>
       <r>   -11.1207    -1.0116     5.9157 </r>
       <r>   -11.0169     6.0843     6.5473 </r>
       <r>   -10.9130    28.8454     9.5417 </r>
       <r>   -10.8092     5.3415    10.0962 </r>
       <r>   -10.7054    -0.8977    10.0030 </r>
       <r>   -10.6016    -0.0292    10.0000 </r>
       <r>   -10.4978    -0.0004    10.0000 </r>
       <r>   -10.3940    -0.0658     9.9931 </r>
       <r>   -10.2902    -0.6152     9.9293 </r>
       <r>   -10.1864     7.7018    10.7288 </r>
       <r>   -10.0826    12.3789    12.0138 </r>
       <r>    -9.9788     0.0682    12.0209 </r>
       <r>    -9.8750    -0.1992    12.0002 </r>
       <r>    -9.7711    -0.0023    12.0000 </r>
       <r>    -9.6673    -0.0000    12.0000 </r>
       <r>    -9.5635    -0.0000    12.0000 </r>
       <r>    -9.4597    -0.0000    12.0000 </r>
       <r>    -9.3559    -0.0000    12.0000 </r>
       <r>    -9.2521    -0.0000    12.0000 </r>
       <r>    -9.1483    -0.0000    12.0000 </r>
       <r>    -9.0445    -0.0000    12.0000 </r>
       <r>    -8.9407    -0.0000    12.0000 </r>
       <r>    -8.8369    -0.0016    11.9998 </r>
       <r>    -8.7330    -0.1626    11.9829 </r>
       <r>    -8.6292    -0.1824    11.9640 </r>
       <r>    -8.5254    11.5408    13.1621 </r>
       <r>    -8.4216     8.6741    14.0625 </r>
       <r>    -8.3178    -1.1980    13.9382 </r>
       <r>    -8.2140     6.7846    14.6425 </r>
       <r>    -8.1102    12.9864    15.9906 </r>
       <r>    -8.0064     0.3153    16.0233 </r>
       <r>    -7.9026    -0.6619    15.9546 </r>
       <r>    -7.7988     2.2770    16.1910 </r>
       <r>    -7.6949    14.3446    17.6801 </r>
       <r>    -7.5911     3.5597    18.0496 </r>
       <r>    -7.4873    12.9143    19.3903 </r>
       <r>    -7.3835    26.9507    22.1880 </r>
       <r>    -7.2797    35.3626    25.8590 </r>
       <r>    -7.1759    19.5320    27.8866 </r>
       <r>    -7.0721    15.7676    29.5234 </r>
       <r>    -6.9683    19.4351    31.5410 </r>
       <r>    -6.8645     5.5540    32.1175 </r>
       <r>    -6.7607    22.3703    34.4398 </r>
       <r>    -6.6568    42.6495    38.8672 </r>
       <r>    -6.5530    47.2275    43.7699 </r>
       <r>    -6.4492    49.9041    48.9504 </r>
       <r>    -6.3454    45.6674    53.6912 </r>
       <r>    -6.2416    40.9718    57.9444 </r>
       <r>    -6.1378    47.9878    62.9260 </r>
       <r>    -6.0340    44.6157    67.5576 </r>
       <r>    -5.9302    21.8329    69.8240 </r>
       <r>    -5.8264    18.5061    71.7452 </r>
       <r>    -5.7226    31.7338    75.0394 </r>
       <r>    -5.6188    41.7631    79.3748 </r>
       <r>    -5.5149    43.6547    83.9066 </r>
       <r>    -5.4111    62.3400    90.3781 </r>
       <r>    -5.3073    85.3619    99.2395 </r>
       <r>    -5.2035    71.7747   106.6905 </r>
       <r>    -5.0997    94.6831   116.5195 </r>
       <r>    -4.9959    73.1888   124.1172 </r>
       <r>    -4.8921    70.8078   131.4677 </r>
       <r>    -4.7883    84.0875   140.1968 </r>
       <r>    -4.6845    49.6235   145.3482 </r>
       <r>    -4.5807     9.6190   146.3468 </r>
       <r>    -4.4768    13.3544   147.7331 </r>
       <r>    -4.3730     3.0781   148.0526 </r>
       <r>    -4.2692    -0.8571   147.9637 </r>
       <r>    -4.1654    -0.0431   147.9592 </r>
       <r>    -4.0616    23.4099   150.3894 </r>
       <r>    -3.9578    16.7574   152.1289 </r>
       <r>    -3.8540    -1.0747   152.0174 </r>
       <r>    -3.7502    -0.1662   152.0001 </r>
       <r>    -3.6464    -0.0066   151.9994 </r>
       <r>    -3.5426    -0.3090   151.9674 </r>
       <r>    -3.4387     0.9930   152.0704 </r>
       <r>    -3.3349    13.9388   153.5174 </r>
       <r>    -3.2311     5.2670   154.0642 </r>
       <r>    -3.1273    -1.2124   153.9383 </r>
       <r>    -3.0235     2.8057   154.2296 </r>
       <r>    -2.9197    24.1802   156.7397 </r>
       <r>    -2.8159    13.0572   158.0952 </r>
       <r>    -2.7121    -0.8209   158.0100 </r>
       <r>    -2.6083    -0.7977   157.9272 </r>
       <r>    -2.5045     6.2521   158.5762 </r>
       <r>    -2.4006    17.0417   160.3453 </r>
       <r>    -2.2968    14.8106   161.8828 </r>
       <r>    -2.1930     1.4820   162.0366 </r>
       <r>    -2.0892    -1.0162   161.9311 </r>
       <r>    -1.9854     5.6824   162.5210 </r>
       <r>    -1.8816    14.6798   164.0450 </r>
       <r>    -1.7778    16.1674   165.7233 </r>
       <r>    -1.6740    18.2533   167.6182 </r>
       <r>    -1.5702     4.2861   168.0631 </r>
       <r>    -1.4664    -1.2261   167.9358 </r>
       <r>    -1.3625     5.5516   168.5121 </r>
       <r>    -1.2587    13.7820   169.9428 </r>
       <r>    -1.1549     0.6964   170.0151 </r>
       <r>    -1.0511    -0.8978   169.9219 </r>
       <r>    -0.9473    12.1331   171.1815 </r>
       <r>    -0.8435    23.2685   173.5970 </r>
       <r>    -0.7397     4.2713   174.0404 </r>
       <r>    -0.6359     0.5197   174.0943 </r>
       <r>    -0.5321    14.0859   175.5566 </r>
       <r>    -0.4283     4.2571   175.9985 </r>
       <r>    -0.3245     1.8295   176.1884 </r>
       <r>    -0.2206    25.8739   178.8744 </r>
       <r>    -0.1168    12.7849   180.2016 </r>
       <r>    -0.0130    12.4487   181.4939 </r>
       <r>     0.0908     9.4378   182.4736 </r>
       <r>     0.1946    13.6826   183.8940 </r>
       <r>     0.2984     1.3796   184.0372 </r>
       <r>     0.4022    -0.3513   184.0008 </r>
       <r>     0.5060    -0.0072   184.0000 </r>
       <r>     0.6098    -0.0000   184.0000 </r>
       <r>     0.7136    -0.0000   184.0000 </r>
       <r>     0.8175    -0.0000   184.0000 </r>
       <r>     0.9213     0.0000   184.0000 </r>
       <r>     1.0251     0.0000   184.0000 </r>
       <r>     1.1289     0.0000   184.0000 </r>
       <r>     1.2327     0.0000   184.0000 </r>
       <r>     1.3365     0.0000   184.0000 </r>
       <r>     1.4403     0.0000   184.0000 </r>
       <r>     1.5441     0.0000   184.0000 </r>
      </set>
     </set>
    </array>
   </total>
  </dos>
 </calculation>
 <structure name="finalpos" >
  <crystal>
   <varray name="basis" >
    <v>      15.00000000       0.00000000       0.00000000 </v>
    <v>       0.00000000      15.00000000       0.00000000 </v>
    <v>       0.00000000       0.00000000      15.00000000 </v>
   </varray>
   <i name="volume">   3375.00000000 </i>
   <varray name="rec_basis" >
    <v>       0.06666667       0.00000000       0.00000000 </v>
    <v>       0.00000000       0.06666667       0.00000000 </v>
    <v>       0.00000000       0.00000000       0.06666667 </v>
   </varray>
  </crystal>
  <varray name="positions" >
   <v>       0.29269800       0.41898133       0.55810133 </v>
   <v>       0.37468467       0.54408000       0.49248133 </v>
   <v>       0.39453133       0.29158333       0.55763267 </v>
   <v>       0.53197400       0.50315333       0.48359867 </v>
   <v>       0.54607200       0.34646667       0.53164467 </v>
   <v>       0.44857600       0.43999200       0.61374933 </v>
   <v>       0.41326267       0.40186533       0.44087267 </v>
   <v>       0.22636600       0.56591533       0.55350133 </v>
   <v>       0.33465667       0.54513333       0.66255400 </v>
   <v>       0.35058200       0.68462000       0.56779800 </v>
   <v>       0.48635533       0.66214200       0.47391667 </v>
   <v>       0.63397467       0.49120800       0.60071000 </v>
   <v>       0.48224933       0.59037600       0.61412667 </v>
   <v>       0.74392667       0.49359267       0.64299667 </v>
   <v>       0.81766667       0.49829667       0.66904000 </v>
  </varray>
 </structure>
</modeling>
