<?xml version="1.0" encoding="ISO-8859-1"?>
<modeling>
 <generator>
  <i name="program" type="string">vasp </i>
  <i name="version" type="string">5.4.4.18Apr17-6-g9f103f2a35  </i>
  <i name="subversion" type="string">(build May 08 2019 13:49:07) complex            parallel </i>
  <i name="platform" type="string">LinuxIFC </i>
  <i name="date" type="string">2019 11 13 </i>
  <i name="time" type="string">13:10:07 </i>
 </generator>
 <incar>
  <i type="string" name="SYSTEM"> CuCO</i>
  <i type="int" name="ISTART">     0</i>
  <i type="string" name="PREC">accurate</i>
  <i type="string" name="ALGO"> Fast</i>
  <i type="int" name="ISPIN">     2</i>
  <i type="int" name="INIWAV">     1</i>
  <i type="int" name="NELM">   300</i>
  <i type="int" name="NELMIN">     3</i>
  <i type="int" name="IBRION">    -1</i>
  <i name="EDIFF">      0.00000010</i>
  <i name="EDIFFG">     -0.00100000</i>
  <i type="int" name="NSW">     0</i>
  <i type="int" name="ISYM">     0</i>
  <i name="ENCUT">    600.00000000</i>
  <i name="NUPDOWN">      1.00000000</i>
  <i type="logical" name="LREAL"> F  </i>
  <i type="int" name="ISMEAR">     1</i>
  <i name="SIGMA">      0.10000000</i>
  <i name="KSPACING">      0.50000000</i>
  <i type="logical" name="KGAMMA"> F  </i>
  <i type="logical" name="LWAVE"> F  </i>
  <i type="logical" name="LCHARG"> F  </i>
  <v type="int" name="KPOINT_BSE">    -1     0     0     0</v>
  <i type="int" name="NELM">   300</i>
  <i type="string" name="GGA"> PE</i>
 </incar>
 <structure name="primitive_cell" >
  <crystal>
   <varray name="basis" >
    <v>      15.00000000       0.00000000       0.00000000 </v>
    <v>       0.00000000      15.00000000       0.00000000 </v>
    <v>       0.00000000       0.00000000      15.00000000 </v>
   </varray>
   <i name="volume">   3375.00000000 </i>
   <varray name="rec_basis" >
    <v>       0.06666667       0.00000000       0.00000000 </v>
    <v>       0.00000000       0.06666667       0.00000000 </v>
    <v>       0.00000000       0.00000000       0.06666667 </v>
   </varray>
  </crystal>
  <varray name="positions" >
   <v>       0.28835467       0.42235533      -0.43976733 </v>
   <v>       0.37411667      -0.45933267       0.49396267 </v>
   <v>       0.22374067      -0.42994533      -0.44810333 </v>
   <v>       0.39079400       0.29168400      -0.43965267 </v>
   <v>       0.44797133       0.43941133      -0.38764400 </v>
   <v>       0.33639200      -0.44769867      -0.33851333 </v>
   <v>       0.41287867       0.39259000       0.44399533 </v>
   <v>       0.35775067      -0.32334667      -0.42649267 </v>
   <v>      -0.47093067       0.49969000       0.47755933 </v>
   <v>       0.48868933      -0.40699600      -0.38332133 </v>
   <v>      -0.45059333       0.35498533      -0.46759333 </v>
   <v>       0.48823667      -0.33484133       0.47277000 </v>
   <v>      -0.36883800       0.48849800      -0.40835400 </v>
   <v>      -0.26176000       0.48907533      -0.35184333 </v>
   <v>      -0.18830667       0.49557867      -0.32751333 </v>
  </varray>
 </structure>
 <varray name="primitive_index" >
  <v type="int" >        1 </v>
  <v type="int" >        2 </v>
  <v type="int" >        8 </v>
  <v type="int" >        3 </v>
  <v type="int" >        6 </v>
  <v type="int" >        9 </v>
  <v type="int" >        7 </v>
  <v type="int" >       10 </v>
  <v type="int" >        4 </v>
  <v type="int" >       13 </v>
  <v type="int" >        5 </v>
  <v type="int" >       11 </v>
  <v type="int" >       12 </v>
  <v type="int" >       14 </v>
  <v type="int" >       15 </v>
 </varray>
 <kpoints>
  <generation param="Monkhorst-Pack">
   <v type="int" name="divisions">       1        1        1 </v>
   <v name="usershift">      0.00000000       0.00000000       0.00000000 </v>
   <v name="genvec1">      1.00000000       0.00000000       0.00000000 </v>
   <v name="genvec2">      0.00000000       1.00000000       0.00000000 </v>
   <v name="genvec3">      0.00000000       0.00000000       1.00000000 </v>
   <v name="shift">      0.00000000       0.00000000       0.00000000 </v>
  </generation>
  <varray name="kpointlist" >
   <v>       0.00000000       0.00000000       0.00000000 </v>
  </varray>
  <varray name="weights" >
   <v>       1.00000000 </v>
  </varray>
 </kpoints>
 <parameters>
  <separator name="general" >
   <i type="string" name="SYSTEM">CuCO</i>
   <i type="logical" name="LCOMPAT"> F  </i>
  </separator>
  <separator name="electronic" >
   <i type="string" name="PREC">accura</i>
   <i name="ENMAX">    600.00000000</i>
   <i name="ENAUG">    644.87300000</i>
   <i name="EDIFF">      0.00000010</i>
   <i type="int" name="IALGO">    68</i>
   <i type="int" name="IWAVPR">    10</i>
   <i type="int" name="NBANDS">    92</i>
   <i name="NELECT">    153.00000000</i>
   <i type="int" name="TURBO">     0</i>
   <i type="int" name="IRESTART">     0</i>
   <i type="int" name="NREBOOT">     0</i>
   <i type="int" name="NMIN">     0</i>
   <i name="EREF">      0.00000000</i>
   <separator name="electronic smearing" >
    <i type="int" name="ISMEAR">     1</i>
    <i name="SIGMA">      0.10000000</i>
    <i name="KSPACING">      0.50000000</i>
    <i type="logical" name="KGAMMA"> F  </i>
   </separator>
   <separator name="electronic projectors" >
    <i type="logical" name="LREAL"> F  </i>
    <v name="ROPT">      0.00000000      0.00000000      0.00000000</v>
    <i type="int" name="LMAXPAW">  -100</i>
    <i type="int" name="LMAXMIX">     2</i>
    <i type="logical" name="NLSPLINE"> F  </i>
   </separator>
   <separator name="electronic startup" >
    <i type="int" name="ISTART">     0</i>
    <i type="int" name="ICHARG">     2</i>
    <i type="int" name="INIWAV">     1</i>
   </separator>
   <separator name="electronic spin" >
    <i type="int" name="ISPIN">     2</i>
    <i type="logical" name="LNONCOLLINEAR"> F  </i>
    <v name="MAGMOM">      0.06666667      0.06666667      0.06666667      0.06666667      0.06666667      0.06666667      0.06666667      0.06666667      0.06666667      0.06666667      0.06666667      0.06666667      0.06666667      0.06666667      0.06666667</v>
    <i name="NUPDOWN">      1.00000000</i>
    <i type="logical" name="LSORBIT"> F  </i>
    <v name="SAXIS">      0.00000000      0.00000000      1.00000000</v>
    <i type="logical" name="LSPIRAL"> F  </i>
    <v name="QSPIRAL">      0.00000000      0.00000000      0.00000000</v>
    <i type="logical" name="LZEROZ"> F  </i>
   </separator>
   <separator name="electronic exchange-correlation" >
    <i type="logical" name="LASPH"> F  </i>
    <i type="logical" name="LMETAGGA"> F  </i>
   </separator>
   <separator name="electronic convergence" >
    <i type="int" name="NELM">   300</i>
    <i type="int" name="NELMDL">    -5</i>
    <i type="int" name="NELMIN">     3</i>
    <i name="ENINI">    600.00000000</i>
    <separator name="electronic convergence detail" >
     <i type="logical" name="LDIAG"> T  </i>
     <i type="logical" name="LSUBROT"> F  </i>
     <i name="WEIMIN">      0.00000000</i>
     <i name="EBREAK">      0.00000000</i>
     <i name="DEPER">      0.30000000</i>
     <i type="int" name="NRMM">     4</i>
     <i name="TIME">      0.40000000</i>
    </separator>
   </separator>
   <separator name="electronic mixer" >
    <i name="AMIX">      0.40000000</i>
    <i name="BMIX">      1.00000000</i>
    <i name="AMIN">      0.10000000</i>
    <i name="AMIX_MAG">      1.60000000</i>
    <i name="BMIX_MAG">      1.00000000</i>
    <separator name="electronic mixer details" >
     <i type="int" name="IMIX">     4</i>
     <i type="logical" name="MIXFIRST"> F  </i>
     <i type="int" name="MAXMIX">   -45</i>
     <i name="WC">    100.00000000</i>
     <i type="int" name="INIMIX">     1</i>
     <i type="int" name="MIXPRE">     1</i>
     <i type="int" name="MREMOVE">     5</i>
    </separator>
   </separator>
   <separator name="electronic dipolcorrection" >
    <i type="logical" name="LDIPOL"> F  </i>
    <i type="logical" name="LMONO"> F  </i>
    <i type="int" name="IDIPOL">     0</i>
    <i name="EPSILON">      1.00000000</i>
    <v name="DIPOL">   -100.00000000   -100.00000000   -100.00000000</v>
    <i name="EFIELD">      0.00000000</i>
   </separator>
  </separator>
  <separator name="grids" >
   <i type="int" name="NGX">   120</i>
   <i type="int" name="NGY">   120</i>
   <i type="int" name="NGZ">   120</i>
   <i type="int" name="NGXF">   240</i>
   <i type="int" name="NGYF">   240</i>
   <i type="int" name="NGZF">   240</i>
   <i type="logical" name="ADDGRID"> F  </i>
  </separator>
  <separator name="ionic" >
   <i type="int" name="NSW">     0</i>
   <i type="int" name="IBRION">    -1</i>
   <i type="int" name="MDALGO">     0</i>
   <i type="int" name="ISIF">     2</i>
   <i name="PSTRESS">      0.00000000</i>
   <i name="EDIFFG">     -0.00100000</i>
   <i type="int" name="NFREE">     0</i>
   <i name="POTIM">      0.50000000</i>
   <i name="SMASS">     -3.00000000</i>
   <i name="SCALEE">      1.00000000</i>
  </separator>
  <separator name="ionic md" >
   <i name="TEBEG">      0.00010000</i>
   <i name="TEEND">      0.00010000</i>
   <i type="int" name="NBLOCK">     1</i>
   <i type="int" name="KBLOCK">     1</i>
   <i type="int" name="NPACO">   256</i>
   <i name="APACO">     16.00000000</i>
  </separator>
  <separator name="symmetry" >
   <i type="int" name="ISYM">     0</i>
   <i name="SYMPREC">      0.00001000</i>
  </separator>
  <separator name="dos" >
   <i type="int" name="LORBIT">     0</i>
   <v name="RWIGS">     -1.00000000     -1.00000000     -1.00000000</v>
   <i type="int" name="NEDOS">   301</i>
   <i name="EMIN">     10.00000000</i>
   <i name="EMAX">    -10.00000000</i>
   <i name="EFERMI">      0.00000000</i>
  </separator>
  <separator name="writing" >
   <i type="int" name="NWRITE">     2</i>
   <i type="logical" name="LWAVE"> F  </i>
   <i type="logical" name="LDOWNSAMPLE"> F  </i>
   <i type="logical" name="LCHARG"> F  </i>
   <i type="logical" name="LPARD"> F  </i>
   <i type="logical" name="LVTOT"> F  </i>
   <i type="logical" name="LVHAR"> F  </i>
   <i type="logical" name="LELF"> F  </i>
   <i type="logical" name="LOPTICS"> F  </i>
   <v name="STM">      0.00000000      0.00000000      0.00000000      0.00000000      0.00000000      0.00000000      0.00000000</v>
  </separator>
  <separator name="performance" >
   <i type="int" name="NPAR">     4</i>
   <i type="int" name="NSIM">     4</i>
   <i type="int" name="NBLK">    -1</i>
   <i type="logical" name="LPLANE"> T  </i>
   <i type="logical" name="LSCALAPACK"> T  </i>
   <i type="logical" name="LSCAAWARE"> F  </i>
   <i type="logical" name="LSCALU"> F  </i>
   <i type="logical" name="LASYNC"> F  </i>
   <i type="logical" name="LORBITALREAL"> F  </i>
  </separator>
  <separator name="miscellaneous" >
   <i type="int" name="IDIOT">     3</i>
   <i type="int" name="ISPECIAL">     0</i>
   <i type="logical" name="LMUSIC"> F  </i>
   <v name="POMASS">     63.54600000     12.01100000     16.00000000</v>
   <v name="DARWINR">      0.00000000      0.00000000      0.00000000</v>
   <v name="DARWINV">      1.00000000      1.00000000      1.00000000</v>
   <i type="logical" name="LCORR"> T  </i>
  </separator>
  <i type="logical" name="GGA_COMPAT"> T  </i>
  <i type="logical" name="LBERRY"> F  </i>
  <i type="int" name="ICORELEVEL">     0</i>
  <i type="logical" name="LDAU"> F  </i>
  <i type="int" name="I_CONSTRAINED_M">     0</i>
  <separator name="electronic exchange-correlation" >
   <i type="string" name="GGA">PE</i>
   <i type="int" name="VOSKOWN">     0</i>
   <i type="logical" name="LHFCALC"> F  </i>
   <i type="string" name="PRECFOCK"></i>
   <i type="logical" name="LSYMGRAD"> F  </i>
   <i type="logical" name="LHFONE"> F  </i>
   <i type="logical" name="LRHFCALC"> F  </i>
   <i type="logical" name="LTHOMAS"> F  </i>
   <i type="logical" name="LMODELHF"> F  </i>
   <i name="ENCUT4O">     -1.00000000</i>
   <i type="int" name="EXXOEP">     0</i>
   <i type="int" name="FOURORBIT">     0</i>
   <i name="AEXX">      0.00000000</i>
   <i name="HFALPHA">      0.00000000</i>
   <i name="MCALPHA">      0.00000000</i>
   <i name="ALDAX">      1.00000000</i>
   <i name="AGGAX">      1.00000000</i>
   <i name="ALDAC">      1.00000000</i>
   <i name="AGGAC">      1.00000000</i>
   <i type="int" name="NKREDX">     1</i>
   <i type="int" name="NKREDY">     1</i>
   <i type="int" name="NKREDZ">     1</i>
   <i type="logical" name="SHIFTRED"> F  </i>
   <i type="logical" name="ODDONLY"> F  </i>
   <i type="logical" name="EVENONLY"> F  </i>
   <i type="int" name="LMAXFOCK">     0</i>
   <i type="int" name="NMAXFOCKAE">     0</i>
   <i type="logical" name="LFOCKAEDFT"> F  </i>
   <i name="HFSCREEN">      0.00000000</i>
   <i name="HFSCREENC">      0.00000000</i>
   <i type="int" name="NBANDSGWLOW">     0</i>
  </separator>
  <separator name="vdW DFT" >
   <i type="logical" name="LUSE_VDW"> F  </i>
   <i name="Zab_VDW">     -0.84910000</i>
   <i name="PARAM1">      0.12340000</i>
   <i name="PARAM2">      1.00000000</i>
   <i name="PARAM3">      0.00000000</i>
  </separator>
  <separator name="model GW" >
   <i type="int" name="MODEL_GW">     0</i>
   <i name="MODEL_EPS0">    135.00000000</i>
   <i name="MODEL_ALPHA">      1.00000000</i>
  </separator>
  <separator name="linear response parameters" >
   <i type="logical" name="LEPSILON"> F  </i>
   <i type="logical" name="LRPA"> F  </i>
   <i type="logical" name="LNABLA"> F  </i>
   <i type="logical" name="LVEL"> F  </i>
   <i type="int" name="KINTER">     0</i>
   <i name="CSHIFT">      0.10000000</i>
   <i name="OMEGAMAX">     -1.00000000</i>
   <i name="DEG_THRESHOLD">      0.00200000</i>
   <i name="RTIME">     -0.10000000</i>
   <i name="WPLASMAI">      0.00000000</i>
   <v name="DFIELD">      0.00000000      0.00000000      0.00000000</v>
   <v name="WPLASMA">      0.00000000      0.00000000      0.00000000      0.00000000      0.00000000      0.00000000      0.00000000      0.00000000      0.00000000</v>
  </separator>
  <separator name="orbital magnetization" >
   <i type="logical" name="NUCIND"> F  </i>
   <v name="MAGPOS">      0.00000000      0.00000000      0.00000000</v>
   <i type="logical" name="LNICSALL"> T  </i>
   <i type="logical" name="ORBITALMAG"> F  </i>
   <i type="logical" name="LMAGBLOCH"> F  </i>
   <i type="logical" name="LCHIMAG"> F  </i>
   <i type="logical" name="LGAUGE"> T  </i>
   <i type="int" name="MAGATOM">     0</i>
   <v name="MAGDIPOL">      0.00000000      0.00000000      0.00000000</v>
   <v name="AVECCONST">      0.00000000      0.00000000      0.00000000</v>
  </separator>
  <separator name="response functions" >
   <i type="logical" name="LADDER"> F  </i>
   <i type="logical" name="LRPAFORCE"> F  </i>
   <i type="logical" name="LFXC"> F  </i>
   <i type="logical" name="LHARTREE"> T  </i>
   <i type="int" name="IBSE">     0</i>
   <v type="int" name="KPOINT">    -1     0     0     0</v>
   <i type="logical" name="LTCTE"> F  </i>
   <i type="logical" name="LTETE"> F  </i>
   <i type="logical" name="LTRIPLET"> F  </i>
   <i type="logical" name="LFXCEPS"> F  </i>
   <i type="logical" name="LFXHEG"> F  </i>
   <i type="int" name="NATURALO">     2</i>
   <i type="logical" name="L2ORDER"> F  </i>
   <i type="logical" name="LMP2LT"> F  </i>
   <i type="logical" name="LUSEW"> F  </i>
   <i name="ENCUTGW">     -2.00000000</i>
   <i name="ENCUTGWSOFT">     -2.00000000</i>
   <i name="ENCUTLF">     -1.00000000</i>
   <i type="int" name="LMAXMP2">    -1</i>
   <i name="SCISSOR">      0.00000000</i>
   <i type="int" name="NOMEGA">     0</i>
   <i type="int" name="NOMEGAR">     0</i>
   <i type="int" name="NBANDSGW">    -1</i>
   <i type="int" name="NBANDSO">    -1</i>
   <i type="int" name="NBANDSV">    -1</i>
   <i type="int" name="NELM">   300</i>
   <i type="int" name="NELMHF">     1</i>
   <i type="int" name="DIM">     3</i>
   <i type="int" name="ANTIRES">     0</i>
   <i name="OMEGAMAX">    -30.00000000</i>
   <i name="OMEGAMIN">    -30.00000000</i>
   <i name="OMEGATL">   -200.00000000</i>
   <i type="int" name="OMEGAGRID">   140</i>
   <i name="CSHIFT">     -0.10000000</i>
   <i type="logical" name="SELFENERGY"> F  </i>
   <i type="logical" name="LSPECTRAL"> F  </i>
   <i type="logical" name="LSPECTRALGW"> F  </i>
   <i type="logical" name="LSINGLES"> F  </i>
   <i type="logical" name="LFERMIGW"> F  </i>
   <i type="logical" name="ODDONLYGW"> F  </i>
   <i type="logical" name="EVENONLYGW"> F  </i>
   <i type="int" name="NKREDLFX">     1</i>
   <i type="int" name="NKREDLFY">     1</i>
   <i type="int" name="NKREDLFZ">     1</i>
   <i type="int" name="MAXMEM">  2800</i>
   <i type="int" name="TELESCOPE">     0</i>
   <i type="int" name="TAUPAR">     1</i>
   <i type="int" name="OMEGAPAR">    -1</i>
   <i name="LAMBDA">      1.00000000</i>
  </separator>
  <separator name="External order field" >
   <i name="OFIELD_KAPPA">      0.00000000</i>
   <v name="OFIELD_K">      0.00000000      0.00000000      0.00000000</v>
   <i name="OFIELD_Q6_NEAR">      0.00000000</i>
   <i name="OFIELD_Q6_FAR">      0.00000000</i>
   <i name="OFIELD_A">      0.00000000</i>
  </separator>
 </parameters>
 <atominfo>
  <atoms>      15 </atoms>
  <types>       3 </types>
  <array name="atoms" >
   <dimension dim="1">ion</dimension>
   <field type="string">element</field>
   <field type="int">atomtype</field>
   <set>
    <rc><c>Cu</c><c>   1</c></rc>
    <rc><c>Cu</c><c>   1</c></rc>
    <rc><c>Cu</c><c>   1</c></rc>
    <rc><c>Cu</c><c>   1</c></rc>
    <rc><c>Cu</c><c>   1</c></rc>
    <rc><c>Cu</c><c>   1</c></rc>
    <rc><c>Cu</c><c>   1</c></rc>
    <rc><c>Cu</c><c>   1</c></rc>
    <rc><c>Cu</c><c>   1</c></rc>
    <rc><c>Cu</c><c>   1</c></rc>
    <rc><c>Cu</c><c>   1</c></rc>
    <rc><c>Cu</c><c>   1</c></rc>
    <rc><c>Cu</c><c>   1</c></rc>
    <rc><c>C </c><c>   2</c></rc>
    <rc><c>O </c><c>   3</c></rc>
   </set>
  </array>
  <array name="atomtypes" >
   <dimension dim="1">type</dimension>
   <field type="int">atomspertype</field>
   <field type="string">element</field>
   <field>mass</field>
   <field>valence</field>
   <field type="string">pseudopotential</field>
   <set>
    <rc><c>  13</c><c>Cu</c><c>     63.54600000</c><c>     11.00000000</c><c>  PAW_PBE Cu 22Jun2005                  </c></rc>
    <rc><c>   1</c><c>C </c><c>     12.01100000</c><c>      4.00000000</c><c>  PAW_PBE C 08Apr2002                   </c></rc>
    <rc><c>   1</c><c>O </c><c>     16.00000000</c><c>      6.00000000</c><c>  PAW_PBE O 08Apr2002                   </c></rc>
   </set>
  </array>
 </atominfo>
 <structure name="initialpos" >
  <crystal>
   <varray name="basis" >
    <v>      15.00000000       0.00000000       0.00000000 </v>
    <v>       0.00000000      15.00000000       0.00000000 </v>
    <v>       0.00000000       0.00000000      15.00000000 </v>
   </varray>
   <i name="volume">   3375.00000000 </i>
   <varray name="rec_basis" >
    <v>       0.06666667       0.00000000       0.00000000 </v>
    <v>       0.00000000       0.06666667       0.00000000 </v>
    <v>       0.00000000       0.00000000       0.06666667 </v>
   </varray>
  </crystal>
  <varray name="positions" >
   <v>       0.28835467       0.42235533       0.56023267 </v>
   <v>       0.37411667       0.54066733       0.49396267 </v>
   <v>       0.39079400       0.29168400       0.56034733 </v>
   <v>       0.52906933       0.49969000       0.47755933 </v>
   <v>       0.54940667       0.35498533       0.53240667 </v>
   <v>       0.44797133       0.43941133       0.61235600 </v>
   <v>       0.41287867       0.39259000       0.44399533 </v>
   <v>       0.22374067       0.57005467       0.55189667 </v>
   <v>       0.33639200       0.55230133       0.66148667 </v>
   <v>       0.35775067       0.67665333       0.57350733 </v>
   <v>       0.48823667       0.66515867       0.47277000 </v>
   <v>       0.63116200       0.48849800       0.59164600 </v>
   <v>       0.48868933       0.59300400       0.61667867 </v>
   <v>       0.73824000       0.48907533       0.64815667 </v>
   <v>       0.81169333       0.49557867       0.67248667 </v>
  </varray>
 </structure>
 <calculation>
  <scstep>
   <time name="dav">    7.45    7.45</time>
   <time name="total">    8.64    8.65</time>
   <energy>
    <i name="alphaZ">     41.16232785 </i>
    <i name="ewald">  16403.34460118 </i>
    <i name="hartreedc"> -33424.11163979 </i>
    <i name="XCdc">    623.56162508 </i>
    <i name="pawpsdc">  16421.75059358 </i>
    <i name="pawaedc"> -17800.06104309 </i>
    <i name="eentropy">     -0.01388173 </i>
    <i name="bandstr">    190.24062480 </i>
    <i name="atom">  18662.21924712 </i>
    <i name="e_fr_energy">   1118.09245498 </i>
    <i name="e_wo_entrp">   1118.10633671 </i>
    <i name="e_0_energy">   1118.09708223 </i>
   </energy>
  </scstep>
  <scstep>
   <time name="dav">    7.33    7.33</time>
   <time name="total">    7.33    7.33</time>
   <energy>
    <i name="e_fr_energy">     87.28547137 </i>
    <i name="e_wo_entrp">     87.27967300 </i>
    <i name="e_0_energy">     87.28353858 </i>
   </energy>
  </scstep>
  <scstep>
   <time name="dav">   11.71   11.71</time>
   <time name="total">   11.71   11.71</time>
   <energy>
    <i name="e_fr_energy">    -34.06629405 </i>
    <i name="e_wo_entrp">    -34.07571037 </i>
    <i name="e_0_energy">    -34.06943283 </i>
   </energy>
  </scstep>
  <scstep>
   <time name="dav">   10.23   10.24</time>
   <time name="total">   10.24   10.24</time>
   <energy>
    <i name="e_fr_energy">    -55.74684207 </i>
    <i name="e_wo_entrp">    -55.75400562 </i>
    <i name="e_0_energy">    -55.74922992 </i>
   </energy>
  </scstep>
  <scstep>
   <time name="dav">   12.14   12.14</time>
   <time name="total">   12.83   12.84</time>
   <energy>
    <i name="e_fr_energy">    -57.29399971 </i>
    <i name="e_wo_entrp">    -57.30373213 </i>
    <i name="e_0_energy">    -57.29724385 </i>
   </energy>
  </scstep>
  <scstep>
   <time name="diag">    1.11    1.11</time>
   <time name="diis">    6.95    6.95</time>
   <time name="orth">    0.06    0.06</time>
   <time name="total">    9.98    9.98</time>
   <energy>
    <i name="e_fr_energy">    -56.71641981 </i>
    <i name="e_wo_entrp">    -56.72222511 </i>
    <i name="e_0_energy">    -56.71835491 </i>
   </energy>
  </scstep>
  <scstep>
   <time name="diag">    1.11    1.11</time>
   <time name="diis">    6.35    6.35</time>
   <time name="orth">    0.06    0.06</time>
   <time name="total">    9.38    9.39</time>
   <energy>
    <i name="e_fr_energy">    -49.13200712 </i>
    <i name="e_wo_entrp">    -49.13788235 </i>
    <i name="e_0_energy">    -49.13396553 </i>
   </energy>
  </scstep>
  <scstep>
   <time name="diag">    1.11    1.11</time>
   <time name="diis">    6.96    6.99</time>
   <time name="orth">    0.06    0.06</time>
   <time name="total">    9.99   10.03</time>
   <energy>
    <i name="e_fr_energy">    -48.88182402 </i>
    <i name="e_wo_entrp">    -48.88788233 </i>
    <i name="e_0_energy">    -48.88384346 </i>
   </energy>
  </scstep>
  <scstep>
   <time name="diag">    1.11    1.11</time>
   <time name="diis">    6.96    6.97</time>
   <time name="orth">    0.06    0.06</time>
   <time name="total">   10.00   10.01</time>
   <energy>
    <i name="e_fr_energy">    -48.83578526 </i>
    <i name="e_wo_entrp">    -48.84177720 </i>
    <i name="e_0_energy">    -48.83778258 </i>
   </energy>
  </scstep>
  <scstep>
   <time name="diag">    1.11    1.11</time>
   <time name="diis">    7.04    7.04</time>
   <time name="orth">    0.06    0.06</time>
   <time name="total">   10.07   10.08</time>
   <energy>
    <i name="e_fr_energy">    -48.77065900 </i>
    <i name="e_wo_entrp">    -48.77662585 </i>
    <i name="e_0_energy">    -48.77264795 </i>
   </energy>
  </scstep>
  <scstep>
   <time name="diag">    1.11    1.11</time>
   <time name="diis">    7.37    7.37</time>
   <time name="orth">    0.06    0.06</time>
   <time name="total">   10.40   10.40</time>
   <energy>
    <i name="e_fr_energy">    -48.76043218 </i>
    <i name="e_wo_entrp">    -48.76642549 </i>
    <i name="e_0_energy">    -48.76242995 </i>
   </energy>
  </scstep>
  <scstep>
   <time name="diag">    1.11    1.11</time>
   <time name="diis">    6.99    6.99</time>
   <time name="orth">    0.06    0.06</time>
   <time name="total">   10.02   10.02</time>
   <energy>
    <i name="e_fr_energy">    -48.75814787 </i>
    <i name="e_wo_entrp">    -48.76412583 </i>
    <i name="e_0_energy">    -48.76014052 </i>
   </energy>
  </scstep>
  <scstep>
   <time name="diag">    1.10    1.10</time>
   <time name="diis">    7.18    7.18</time>
   <time name="orth">    0.06    0.06</time>
   <time name="total">   10.21   10.22</time>
   <energy>
    <i name="e_fr_energy">    -48.75703745 </i>
    <i name="e_wo_entrp">    -48.76301221 </i>
    <i name="e_0_energy">    -48.75902904 </i>
   </energy>
  </scstep>
  <scstep>
   <time name="diag">    1.10    1.10</time>
   <time name="diis">    6.76    6.76</time>
   <time name="orth">    0.06    0.06</time>
   <time name="total">    9.79    9.79</time>
   <energy>
    <i name="e_fr_energy">    -48.75809573 </i>
    <i name="e_wo_entrp">    -48.76407083 </i>
    <i name="e_0_energy">    -48.76008743 </i>
   </energy>
  </scstep>
  <scstep>
   <time name="diag">    1.10    1.11</time>
   <time name="diis">    6.80    6.81</time>
   <time name="orth">    0.06    0.06</time>
   <time name="total">    9.84    9.84</time>
   <energy>
    <i name="e_fr_energy">    -48.75926930 </i>
    <i name="e_wo_entrp">    -48.76524152 </i>
    <i name="e_0_energy">    -48.76126004 </i>
   </energy>
  </scstep>
  <scstep>
   <time name="diag">    1.10    1.11</time>
   <time name="diis">    7.25    7.25</time>
   <time name="orth">    0.06    0.06</time>
   <time name="total">   10.28   10.29</time>
   <energy>
    <i name="e_fr_energy">    -48.76074483 </i>
    <i name="e_wo_entrp">    -48.76672455 </i>
    <i name="e_0_energy">    -48.76273807 </i>
   </energy>
  </scstep>
  <scstep>
   <time name="diag">    1.11    1.11</time>
   <time name="diis">    7.23    7.23</time>
   <time name="orth">    0.06    0.06</time>
   <time name="total">   10.27   10.27</time>
   <energy>
    <i name="e_fr_energy">    -48.76248958 </i>
    <i name="e_wo_entrp">    -48.76846994 </i>
    <i name="e_0_energy">    -48.76448303 </i>
   </energy>
  </scstep>
  <scstep>
   <time name="diag">    1.11    1.11</time>
   <time name="diis">    7.09    7.10</time>
   <time name="orth">    0.06    0.06</time>
   <time name="total">   10.13   10.14</time>
   <energy>
    <i name="e_fr_energy">    -48.76333601 </i>
    <i name="e_wo_entrp">    -48.76931611 </i>
    <i name="e_0_energy">    -48.76532938 </i>
   </energy>
  </scstep>
  <scstep>
   <time name="diag">    1.11    1.11</time>
   <time name="diis">    7.65    7.65</time>
   <time name="orth">    0.06    0.06</time>
   <time name="total">   10.69   10.69</time>
   <energy>
    <i name="e_fr_energy">    -48.76412817 </i>
    <i name="e_wo_entrp">    -48.77010747 </i>
    <i name="e_0_energy">    -48.76612127 </i>
   </energy>
  </scstep>
  <scstep>
   <time name="diag">    1.11    1.11</time>
   <time name="diis">    6.67    6.68</time>
   <time name="orth">    0.06    0.06</time>
   <time name="total">    9.72    9.72</time>
   <energy>
    <i name="e_fr_energy">    -48.76462717 </i>
    <i name="e_wo_entrp">    -48.77060596 </i>
    <i name="e_0_energy">    -48.76662010 </i>
   </energy>
  </scstep>
  <scstep>
   <time name="diag">    1.11    1.11</time>
   <time name="diis">    6.99    6.99</time>
   <time name="orth">    0.06    0.06</time>
   <time name="total">   10.03   10.04</time>
   <energy>
    <i name="e_fr_energy">    -48.76501989 </i>
    <i name="e_wo_entrp">    -48.77099824 </i>
    <i name="e_0_energy">    -48.76701267 </i>
   </energy>
  </scstep>
  <scstep>
   <time name="diag">    1.11    1.11</time>
   <time name="diis">    6.62    6.62</time>
   <time name="orth">    0.06    0.06</time>
   <time name="total">    9.66    9.67</time>
   <energy>
    <i name="e_fr_energy">    -48.76527092 </i>
    <i name="e_wo_entrp">    -48.77124976 </i>
    <i name="e_0_energy">    -48.76726387 </i>
   </energy>
  </scstep>
  <scstep>
   <time name="diag">    1.11    1.11</time>
   <time name="diis">    6.55    6.55</time>
   <time name="orth">    0.06    0.06</time>
   <time name="total">    9.59    9.60</time>
   <energy>
    <i name="e_fr_energy">    -48.76538935 </i>
    <i name="e_wo_entrp">    -48.77136833 </i>
    <i name="e_0_energy">    -48.76738234 </i>
   </energy>
  </scstep>
  <scstep>
   <time name="diag">    1.11    1.11</time>
   <time name="diis">    6.83    6.84</time>
   <time name="orth">    0.06    0.06</time>
   <time name="total">    9.88    9.89</time>
   <energy>
    <i name="e_fr_energy">    -48.76549749 </i>
    <i name="e_wo_entrp">    -48.77147645 </i>
    <i name="e_0_energy">    -48.76749048 </i>
   </energy>
  </scstep>
  <scstep>
   <time name="diag">    1.11    1.11</time>
   <time name="diis">    6.28    6.28</time>
   <time name="orth">    0.06    0.06</time>
   <time name="total">    9.33    9.34</time>
   <energy>
    <i name="e_fr_energy">    -48.76556014 </i>
    <i name="e_wo_entrp">    -48.77153912 </i>
    <i name="e_0_energy">    -48.76755314 </i>
   </energy>
  </scstep>
  <scstep>
   <time name="diag">    1.11    1.11</time>
   <time name="diis">    7.01    7.01</time>
   <time name="orth">    0.06    0.06</time>
   <time name="total">   10.06   10.06</time>
   <energy>
    <i name="e_fr_energy">    -48.76559564 </i>
    <i name="e_wo_entrp">    -48.77157458 </i>
    <i name="e_0_energy">    -48.76758862 </i>
   </energy>
  </scstep>
  <scstep>
   <time name="diag">    1.11    1.11</time>
   <time name="diis">    5.07    5.07</time>
   <time name="orth">    0.06    0.06</time>
   <time name="total">    8.12    8.13</time>
   <energy>
    <i name="e_fr_energy">    -48.76560856 </i>
    <i name="e_wo_entrp">    -48.77158747 </i>
    <i name="e_0_energy">    -48.76760153 </i>
   </energy>
  </scstep>
  <scstep>
   <time name="diag">    1.11    1.11</time>
   <time name="diis">    4.90    4.90</time>
   <time name="orth">    0.06    0.06</time>
   <time name="total">    7.96    7.97</time>
   <energy>
    <i name="e_fr_energy">    -48.76561440 </i>
    <i name="e_wo_entrp">    -48.77159332 </i>
    <i name="e_0_energy">    -48.76760737 </i>
   </energy>
  </scstep>
  <scstep>
   <time name="diag">    1.11    1.11</time>
   <time name="diis">    4.46    4.46</time>
   <time name="orth">    0.06    0.06</time>
   <time name="total">    7.53    7.53</time>
   <energy>
    <i name="e_fr_energy">    -48.76561776 </i>
    <i name="e_wo_entrp">    -48.77159670 </i>
    <i name="e_0_energy">    -48.76761074 </i>
   </energy>
  </scstep>
  <scstep>
   <time name="diag">    1.11    1.11</time>
   <time name="diis">    4.44    4.44</time>
   <time name="orth">    0.06    0.06</time>
   <time name="total">    7.52    7.52</time>
   <energy>
    <i name="e_fr_energy">    -48.76561945 </i>
    <i name="e_wo_entrp">    -48.77159837 </i>
    <i name="e_0_energy">    -48.76761242 </i>
   </energy>
  </scstep>
  <scstep>
   <time name="diag">    1.11    1.11</time>
   <time name="diis">    4.37    4.37</time>
   <time name="orth">    0.06    0.06</time>
   <time name="total">    7.45    7.45</time>
   <energy>
    <i name="e_fr_energy">    -48.76562024 </i>
    <i name="e_wo_entrp">    -48.77159917 </i>
    <i name="e_0_energy">    -48.76761322 </i>
   </energy>
  </scstep>
  <scstep>
   <time name="diag">    1.11    1.11</time>
   <time name="diis">    4.28    4.28</time>
   <time name="orth">    0.06    0.06</time>
   <time name="total">    7.36    7.36</time>
   <energy>
    <i name="e_fr_energy">    -48.76562095 </i>
    <i name="e_wo_entrp">    -48.77159987 </i>
    <i name="e_0_energy">    -48.76761392 </i>
   </energy>
  </scstep>
  <scstep>
   <time name="diag">    1.11    1.11</time>
   <time name="diis">    4.23    4.24</time>
   <time name="orth">    0.06    0.06</time>
   <time name="total">    7.33    7.33</time>
   <energy>
    <i name="e_fr_energy">    -48.76562148 </i>
    <i name="e_wo_entrp">    -48.77160041 </i>
    <i name="e_0_energy">    -48.76761445 </i>
   </energy>
  </scstep>
  <scstep>
   <time name="diag">    1.11    1.11</time>
   <time name="diis">    4.15    4.15</time>
   <time name="orth">    0.06    0.06</time>
   <time name="total">    7.23    7.26</time>
   <energy>
    <i name="e_fr_energy">    -48.76562191 </i>
    <i name="e_wo_entrp">    -48.77160084 </i>
    <i name="e_0_energy">    -48.76761489 </i>
   </energy>
  </scstep>
  <scstep>
   <time name="diag">    1.10    1.11</time>
   <time name="diis">    3.79    3.79</time>
   <time name="orth">    0.06    0.06</time>
   <time name="total">    6.88    6.90</time>
   <energy>
    <i name="e_fr_energy">    -48.76562219 </i>
    <i name="e_wo_entrp">    -48.77160111 </i>
    <i name="e_0_energy">    -48.76761516 </i>
   </energy>
  </scstep>
  <scstep>
   <time name="diag">    1.11    1.11</time>
   <time name="diis">    3.62    3.62</time>
   <time name="orth">    0.06    0.06</time>
   <time name="total">    6.73    6.73</time>
   <energy>
    <i name="e_fr_energy">    -48.76562234 </i>
    <i name="e_wo_entrp">    -48.77160127 </i>
    <i name="e_0_energy">    -48.76761532 </i>
   </energy>
  </scstep>
  <scstep>
   <time name="diag">    1.10    1.11</time>
   <time name="diis">    3.44    3.44</time>
   <time name="orth">    0.06    0.06</time>
   <time name="total">    6.56    6.56</time>
   <energy>
    <i name="e_fr_energy">    -48.76562248 </i>
    <i name="e_wo_entrp">    -48.77160140 </i>
    <i name="e_0_energy">    -48.76761545 </i>
   </energy>
  </scstep>
  <scstep>
   <time name="diag">    1.10    1.11</time>
   <time name="diis">    3.20    3.20</time>
   <time name="orth">    0.06    0.06</time>
   <time name="total">    5.54    5.54</time>
   <energy>
    <i name="alphaZ">     41.16232785 </i>
    <i name="ewald">  16403.34460118 </i>
    <i name="hartreedc"> -33380.06381142 </i>
    <i name="XCdc">    615.50525697 </i>
    <i name="pawpsdc">  17659.60585516 </i>
    <i name="pawaedc"> -19058.65026158 </i>
    <i name="eentropy">      0.00597892 </i>
    <i name="bandstr">   -991.89481671 </i>
    <i name="atom">  18662.21924712 </i>
    <i name="e_fr_energy">    -48.76562251 </i>
    <i name="e_wo_entrp">    -48.77160144 </i>
    <i name="e_0_energy">    -48.76761549 </i>
   </energy>
  </scstep>
  <structure>
   <crystal>
    <varray name="basis" >
     <v>      15.00000000       0.00000000       0.00000000 </v>
     <v>       0.00000000      15.00000000       0.00000000 </v>
     <v>       0.00000000       0.00000000      15.00000000 </v>
    </varray>
    <i name="volume">   3375.00000000 </i>
    <varray name="rec_basis" >
     <v>       0.06666667       0.00000000       0.00000000 </v>
     <v>       0.00000000       0.06666667       0.00000000 </v>
     <v>       0.00000000       0.00000000       0.06666667 </v>
    </varray>
   </crystal>
   <varray name="positions" >
    <v>       0.28835467       0.42235533       0.56023267 </v>
    <v>       0.37411667       0.54066733       0.49396267 </v>
    <v>       0.39079400       0.29168400       0.56034733 </v>
    <v>       0.52906933       0.49969000       0.47755933 </v>
    <v>       0.54940667       0.35498533       0.53240667 </v>
    <v>       0.44797133       0.43941133       0.61235600 </v>
    <v>       0.41287867       0.39259000       0.44399533 </v>
    <v>       0.22374067       0.57005467       0.55189667 </v>
    <v>       0.33639200       0.55230133       0.66148667 </v>
    <v>       0.35775067       0.67665333       0.57350733 </v>
    <v>       0.48823667       0.66515867       0.47277000 </v>
    <v>       0.63116200       0.48849800       0.59164600 </v>
    <v>       0.48868933       0.59300400       0.61667867 </v>
    <v>       0.73824000       0.48907533       0.64815667 </v>
    <v>       0.81169333       0.49557867       0.67248667 </v>
   </varray>
  </structure>
  <varray name="forces" >
   <v>       0.24314483      -0.20307290       0.05908612 </v>
   <v>      -0.04305296       0.45020332      -0.09211756 </v>
   <v>       0.17645829       0.05455455       0.28001642 </v>
   <v>      -0.15971898       0.74608313      -0.30311074 </v>
   <v>       0.14486526      -0.72386190      -0.21289428 </v>
   <v>      -0.26018103      -0.18952555       0.01953974 </v>
   <v>      -0.03645960       0.11975029       0.25290207 </v>
   <v>       0.08452137       0.19571508      -0.01070402 </v>
   <v>       0.12342223      -0.64213671       0.00447678 </v>
   <v>      -0.20766754       0.74748055      -0.36465164 </v>
   <v>      -0.17324450      -0.38568779       0.26516454 </v>
   <v>      -0.24682465      -0.20189982       0.38539583 </v>
   <v>       0.29235490      -0.11184070      -0.32557765 </v>
   <v>       0.93246458       0.30803697       0.32980123 </v>
   <v>      -0.87008220      -0.16379850      -0.28732684 </v>
  </varray>
  <varray name="stress" >
   <v>      -1.06676083      -0.62527516       0.14083336 </v>
   <v>      -0.62527515       1.10249831      -0.86964304 </v>
   <v>       0.14083335      -0.86964305      -0.24956191 </v>
  </varray>
  <energy>
   <i name="e_fr_energy">    -48.76562251 </i>
   <i name="e_wo_entrp">    -48.76761549 </i>
   <i name="e_0_energy">      0.00597892 </i>
  </energy>
  <time name="totalsc">  357.09  357.33</time>
  <eigenvalues>
   <array>
    <dimension dim="1">band</dimension>
    <dimension dim="2">kpoint</dimension>
    <dimension dim="3">spin</dimension>
    <field>eigene</field>
    <field>occ</field>
    <set>
     <set comment="spin 1">
      <set comment="kpoint 1">
       <r>  -28.3738    1.0000 </r>
       <r>  -13.8987    1.0000 </r>
       <r>  -11.2986    1.0000 </r>
       <r>  -11.0857    1.0000 </r>
       <r>  -11.0517    1.0000 </r>
       <r>  -10.1821    1.0000 </r>
       <r>   -8.6468    1.0000 </r>
       <r>   -8.1971    1.0000 </r>
       <r>   -7.7514    1.0000 </r>
       <r>   -7.5928    1.0000 </r>
       <r>   -7.4231    1.0000 </r>
       <r>   -7.3605    1.0000 </r>
       <r>   -7.2893    1.0000 </r>
       <r>   -7.2220    1.0000 </r>
       <r>   -7.0699    1.0000 </r>
       <r>   -7.0130    1.0000 </r>
       <r>   -6.8651    1.0000 </r>
       <r>   -6.7637    1.0000 </r>
       <r>   -6.7278    1.0000 </r>
       <r>   -6.6690    1.0000 </r>
       <r>   -6.6103    1.0000 </r>
       <r>   -6.5867    1.0000 </r>
       <r>   -6.5591    1.0000 </r>
       <r>   -6.5125    1.0000 </r>
       <r>   -6.4503    1.0000 </r>
       <r>   -6.4279    1.0000 </r>
       <r>   -6.3762    1.0000 </r>
       <r>   -6.3437    1.0000 </r>
       <r>   -6.2633    1.0000 </r>
       <r>   -6.2173    1.0000 </r>
       <r>   -6.1836    1.0000 </r>
       <r>   -6.1418    1.0000 </r>
       <r>   -6.0877    1.0000 </r>
       <r>   -6.0694    1.0000 </r>
       <r>   -6.0180    1.0000 </r>
       <r>   -5.8691    1.0000 </r>
       <r>   -5.7876    1.0000 </r>
       <r>   -5.7555    1.0000 </r>
       <r>   -5.6919    1.0000 </r>
       <r>   -5.6783    1.0000 </r>
       <r>   -5.6038    1.0000 </r>
       <r>   -5.5575    1.0000 </r>
       <r>   -5.5012    1.0000 </r>
       <r>   -5.4831    1.0000 </r>
       <r>   -5.4682    1.0000 </r>
       <r>   -5.4229    1.0000 </r>
       <r>   -5.4065    1.0000 </r>
       <r>   -5.3754    1.0000 </r>
       <r>   -5.3690    1.0000 </r>
       <r>   -5.3254    1.0000 </r>
       <r>   -5.3067    1.0000 </r>
       <r>   -5.2798    1.0000 </r>
       <r>   -5.2477    1.0000 </r>
       <r>   -5.2308    1.0000 </r>
       <r>   -5.2055    1.0000 </r>
       <r>   -5.1710    1.0000 </r>
       <r>   -5.1636    1.0000 </r>
       <r>   -5.1392    1.0000 </r>
       <r>   -5.1203    1.0000 </r>
       <r>   -5.0985    1.0000 </r>
       <r>   -5.0795    1.0000 </r>
       <r>   -5.0525    1.0000 </r>
       <r>   -5.0267    1.0000 </r>
       <r>   -4.9941    1.0000 </r>
       <r>   -4.9691    1.0000 </r>
       <r>   -4.9179    1.0000 </r>
       <r>   -4.9032    1.0000 </r>
       <r>   -4.8797    1.0000 </r>
       <r>   -4.8761    1.0000 </r>
       <r>   -4.8413    1.0000 </r>
       <r>   -4.8212    1.0000 </r>
       <r>   -4.8046    1.0000 </r>
       <r>   -4.7150    1.0000 </r>
       <r>   -4.5175    1.0000 </r>
       <r>   -4.2295    1.0000 </r>
       <r>   -4.0315    1.0000 </r>
       <r>   -3.6154    1.0000 </r>
       <r>   -3.0570   -0.0000 </r>
       <r>   -2.9213   -0.0000 </r>
       <r>   -2.5158   -0.0000 </r>
       <r>   -2.4215   -0.0000 </r>
       <r>   -1.9190   -0.0000 </r>
       <r>   -1.8446   -0.0000 </r>
       <r>   -1.7182   -0.0000 </r>
       <r>   -1.4637   -0.0000 </r>
       <r>   -1.1718   -0.0000 </r>
       <r>   -0.9480   -0.0000 </r>
       <r>   -0.6799    0.0000 </r>
       <r>   -0.4129    0.0000 </r>
       <r>   -0.2251    0.0000 </r>
       <r>   -0.0605    0.0000 </r>
       <r>    0.0853    0.0000 </r>
      </set>
     </set>
     <set comment="spin 2">
      <set comment="kpoint 1">
       <r>  -28.3562    1.0000 </r>
       <r>  -13.8635    1.0000 </r>
       <r>  -11.2738    1.0000 </r>
       <r>  -11.0723    1.0000 </r>
       <r>  -10.9932    1.0000 </r>
       <r>  -10.1405    1.0000 </r>
       <r>   -8.6236    1.0000 </r>
       <r>   -8.1524    1.0000 </r>
       <r>   -7.7074    1.0000 </r>
       <r>   -7.5753    1.0000 </r>
       <r>   -7.3910    1.0000 </r>
       <r>   -7.3242    1.0000 </r>
       <r>   -7.2416    1.0000 </r>
       <r>   -7.1962    1.0000 </r>
       <r>   -7.0347    1.0000 </r>
       <r>   -6.9797    1.0000 </r>
       <r>   -6.8438    1.0000 </r>
       <r>   -6.7345    1.0000 </r>
       <r>   -6.6968    1.0000 </r>
       <r>   -6.6469    1.0000 </r>
       <r>   -6.5893    1.0000 </r>
       <r>   -6.5608    1.0000 </r>
       <r>   -6.5351    1.0000 </r>
       <r>   -6.4884    1.0000 </r>
       <r>   -6.4241    1.0000 </r>
       <r>   -6.4011    1.0000 </r>
       <r>   -6.3517    1.0000 </r>
       <r>   -6.3207    1.0000 </r>
       <r>   -6.2404    1.0000 </r>
       <r>   -6.1951    1.0000 </r>
       <r>   -6.1624    1.0000 </r>
       <r>   -6.1175    1.0000 </r>
       <r>   -6.0672    1.0000 </r>
       <r>   -6.0349    1.0000 </r>
       <r>   -5.9896    1.0000 </r>
       <r>   -5.8490    1.0000 </r>
       <r>   -5.7552    1.0000 </r>
       <r>   -5.7258    1.0000 </r>
       <r>   -5.6682    1.0000 </r>
       <r>   -5.6487    1.0000 </r>
       <r>   -5.5817    1.0000 </r>
       <r>   -5.5241    1.0000 </r>
       <r>   -5.4763    1.0000 </r>
       <r>   -5.4559    1.0000 </r>
       <r>   -5.4398    1.0000 </r>
       <r>   -5.3974    1.0000 </r>
       <r>   -5.3707    1.0000 </r>
       <r>   -5.3503    1.0000 </r>
       <r>   -5.3413    1.0000 </r>
       <r>   -5.2959    1.0000 </r>
       <r>   -5.2771    1.0000 </r>
       <r>   -5.2480    1.0000 </r>
       <r>   -5.2220    1.0000 </r>
       <r>   -5.2028    1.0000 </r>
       <r>   -5.1772    1.0000 </r>
       <r>   -5.1422    1.0000 </r>
       <r>   -5.1353    1.0000 </r>
       <r>   -5.1195    1.0000 </r>
       <r>   -5.0990    1.0000 </r>
       <r>   -5.0734    1.0000 </r>
       <r>   -5.0492    1.0000 </r>
       <r>   -5.0273    1.0000 </r>
       <r>   -4.9938    1.0000 </r>
       <r>   -4.9776    1.0000 </r>
       <r>   -4.9411    1.0000 </r>
       <r>   -4.8912    1.0000 </r>
       <r>   -4.8736    1.0000 </r>
       <r>   -4.8475    1.0000 </r>
       <r>   -4.8344    1.0000 </r>
       <r>   -4.8074    1.0000 </r>
       <r>   -4.7922    1.0000 </r>
       <r>   -4.7734    1.0000 </r>
       <r>   -4.6866    1.0000 </r>
       <r>   -4.4725    1.0000 </r>
       <r>   -4.1659    1.0010 </r>
       <r>   -3.9952    0.9990 </r>
       <r>   -3.4099   -0.0000 </r>
       <r>   -3.0019   -0.0000 </r>
       <r>   -2.8703   -0.0000 </r>
       <r>   -2.4574   -0.0000 </r>
       <r>   -2.3230   -0.0000 </r>
       <r>   -1.8284   -0.0000 </r>
       <r>   -1.8082   -0.0000 </r>
       <r>   -1.6602   -0.0000 </r>
       <r>   -1.3772   -0.0000 </r>
       <r>   -1.0238    0.0000 </r>
       <r>   -0.8864    0.0000 </r>
       <r>   -0.6092    0.0000 </r>
       <r>   -0.3006    0.0000 </r>
       <r>   -0.1401    0.0000 </r>
       <r>   -0.0219    0.0000 </r>
       <r>    0.1363    0.0000 </r>
      </set>
     </set>
    </set>
   </array>
  </eigenvalues>
  <separator name="orbital magnetization" >
   <v name="MAGDIPOLOUT">      0.00000000      0.00000000      0.00000000</v>
  </separator>
  <dos>
   <i name="efermi">     -3.91148710 </i>
   <total>
    <array>
     <dimension dim="1">gridpoints</dimension>
     <dimension dim="2">spin</dimension>
     <field>energy</field>
     <field>total</field>
     <field>integrated</field>
     <set>
      <set comment="spin 1">
       <r>   -29.7993     0.0000     0.0000 </r>
       <r>   -29.6948     0.0000     0.0000 </r>
       <r>   -29.5902     0.0000     0.0000 </r>
       <r>   -29.4857     0.0000     0.0000 </r>
       <r>   -29.3811     0.0000     0.0000 </r>
       <r>   -29.2766    -0.0000    -0.0000 </r>
       <r>   -29.1721    -0.0000    -0.0000 </r>
       <r>   -29.0675    -0.0000    -0.0000 </r>
       <r>   -28.9630    -0.0000    -0.0000 </r>
       <r>   -28.8585    -0.0000    -0.0000 </r>
       <r>   -28.7539    -0.0000    -0.0000 </r>
       <r>   -28.6494    -0.0065    -0.0007 </r>
       <r>   -28.5449    -0.3395    -0.0362 </r>
       <r>   -28.4403     1.3573     0.1057 </r>
       <r>   -28.3358    14.2442     1.5948 </r>
       <r>   -28.2312     4.4659     2.0616 </r>
       <r>   -28.1267    -0.5641     2.0026 </r>
       <r>   -28.0222    -0.0251     2.0000 </r>
       <r>   -27.9176    -0.0001     2.0000 </r>
       <r>   -27.8131    -0.0000     2.0000 </r>
       <r>   -27.7086    -0.0000     2.0000 </r>
       <r>   -27.6040     0.0000     2.0000 </r>
       <r>   -27.4995     0.0000     2.0000 </r>
       <r>   -27.3949     0.0000     2.0000 </r>
       <r>   -27.2904     0.0000     2.0000 </r>
       <r>   -27.1859     0.0000     2.0000 </r>
       <r>   -27.0813     0.0000     2.0000 </r>
       <r>   -26.9768     0.0000     2.0000 </r>
       <r>   -26.8723     0.0000     2.0000 </r>
       <r>   -26.7677     0.0000     2.0000 </r>
       <r>   -26.6632     0.0000     2.0000 </r>
       <r>   -26.5586     0.0000     2.0000 </r>
       <r>   -26.4541     0.0000     2.0000 </r>
       <r>   -26.3496     0.0000     2.0000 </r>
       <r>   -26.2450     0.0000     2.0000 </r>
       <r>   -26.1405     0.0000     2.0000 </r>
       <r>   -26.0360     0.0000     2.0000 </r>
       <r>   -25.9314     0.0000     2.0000 </r>
       <r>   -25.8269     0.0000     2.0000 </r>
       <r>   -25.7223     0.0000     2.0000 </r>
       <r>   -25.6178     0.0000     2.0000 </r>
       <r>   -25.5133     0.0000     2.0000 </r>
       <r>   -25.4087     0.0000     2.0000 </r>
       <r>   -25.3042     0.0000     2.0000 </r>
       <r>   -25.1997     0.0000     2.0000 </r>
       <r>   -25.0951     0.0000     2.0000 </r>
       <r>   -24.9906     0.0000     2.0000 </r>
       <r>   -24.8861     0.0000     2.0000 </r>
       <r>   -24.7815     0.0000     2.0000 </r>
       <r>   -24.6770     0.0000     2.0000 </r>
       <r>   -24.5724     0.0000     2.0000 </r>
       <r>   -24.4679     0.0000     2.0000 </r>
       <r>   -24.3634     0.0000     2.0000 </r>
       <r>   -24.2588     0.0000     2.0000 </r>
       <r>   -24.1543     0.0000     2.0000 </r>
       <r>   -24.0498     0.0000     2.0000 </r>
       <r>   -23.9452     0.0000     2.0000 </r>
       <r>   -23.8407     0.0000     2.0000 </r>
       <r>   -23.7361     0.0000     2.0000 </r>
       <r>   -23.6316     0.0000     2.0000 </r>
       <r>   -23.5271     0.0000     2.0000 </r>
       <r>   -23.4225     0.0000     2.0000 </r>
       <r>   -23.3180     0.0000     2.0000 </r>
       <r>   -23.2135     0.0000     2.0000 </r>
       <r>   -23.1089     0.0000     2.0000 </r>
       <r>   -23.0044     0.0000     2.0000 </r>
       <r>   -22.8998     0.0000     2.0000 </r>
       <r>   -22.7953     0.0000     2.0000 </r>
       <r>   -22.6908     0.0000     2.0000 </r>
       <r>   -22.5862     0.0000     2.0000 </r>
       <r>   -22.4817     0.0000     2.0000 </r>
       <r>   -22.3772     0.0000     2.0000 </r>
       <r>   -22.2726     0.0000     2.0000 </r>
       <r>   -22.1681     0.0000     2.0000 </r>
       <r>   -22.0635     0.0000     2.0000 </r>
       <r>   -21.9590     0.0000     2.0000 </r>
       <r>   -21.8545     0.0000     2.0000 </r>
       <r>   -21.7499     0.0000     2.0000 </r>
       <r>   -21.6454     0.0000     2.0000 </r>
       <r>   -21.5409     0.0000     2.0000 </r>
       <r>   -21.4363     0.0000     2.0000 </r>
       <r>   -21.3318     0.0000     2.0000 </r>
       <r>   -21.2273     0.0000     2.0000 </r>
       <r>   -21.1227     0.0000     2.0000 </r>
       <r>   -21.0182     0.0000     2.0000 </r>
       <r>   -20.9136     0.0000     2.0000 </r>
       <r>   -20.8091     0.0000     2.0000 </r>
       <r>   -20.7046     0.0000     2.0000 </r>
       <r>   -20.6000     0.0000     2.0000 </r>
       <r>   -20.4955     0.0000     2.0000 </r>
       <r>   -20.3910     0.0000     2.0000 </r>
       <r>   -20.2864     0.0000     2.0000 </r>
       <r>   -20.1819     0.0000     2.0000 </r>
       <r>   -20.0773     0.0000     2.0000 </r>
       <r>   -19.9728     0.0000     2.0000 </r>
       <r>   -19.8683     0.0000     2.0000 </r>
       <r>   -19.7637     0.0000     2.0000 </r>
       <r>   -19.6592     0.0000     2.0000 </r>
       <r>   -19.5547     0.0000     2.0000 </r>
       <r>   -19.4501     0.0000     2.0000 </r>
       <r>   -19.3456     0.0000     2.0000 </r>
       <r>   -19.2410     0.0000     2.0000 </r>
       <r>   -19.1365     0.0000     2.0000 </r>
       <r>   -19.0320     0.0000     2.0000 </r>
       <r>   -18.9274     0.0000     2.0000 </r>
       <r>   -18.8229     0.0000     2.0000 </r>
       <r>   -18.7184     0.0000     2.0000 </r>
       <r>   -18.6138     0.0000     2.0000 </r>
       <r>   -18.5093     0.0000     2.0000 </r>
       <r>   -18.4047     0.0000     2.0000 </r>
       <r>   -18.3002     0.0000     2.0000 </r>
       <r>   -18.1957     0.0000     2.0000 </r>
       <r>   -18.0911     0.0000     2.0000 </r>
       <r>   -17.9866     0.0000     2.0000 </r>
       <r>   -17.8821     0.0000     2.0000 </r>
       <r>   -17.7775     0.0000     2.0000 </r>
       <r>   -17.6730     0.0000     2.0000 </r>
       <r>   -17.5685     0.0000     2.0000 </r>
       <r>   -17.4639     0.0000     2.0000 </r>
       <r>   -17.3594     0.0000     2.0000 </r>
       <r>   -17.2548     0.0000     2.0000 </r>
       <r>   -17.1503     0.0000     2.0000 </r>
       <r>   -17.0458     0.0000     2.0000 </r>
       <r>   -16.9412     0.0000     2.0000 </r>
       <r>   -16.8367     0.0000     2.0000 </r>
       <r>   -16.7322     0.0000     2.0000 </r>
       <r>   -16.6276     0.0000     2.0000 </r>
       <r>   -16.5231     0.0000     2.0000 </r>
       <r>   -16.4185     0.0000     2.0000 </r>
       <r>   -16.3140     0.0000     2.0000 </r>
       <r>   -16.2095     0.0000     2.0000 </r>
       <r>   -16.1049     0.0000     2.0000 </r>
       <r>   -16.0004     0.0000     2.0000 </r>
       <r>   -15.8959     0.0000     2.0000 </r>
       <r>   -15.7913     0.0000     2.0000 </r>
       <r>   -15.6868     0.0000     2.0000 </r>
       <r>   -15.5822     0.0000     2.0000 </r>
       <r>   -15.4777     0.0000     2.0000 </r>
       <r>   -15.3732     0.0000     2.0000 </r>
       <r>   -15.2686     0.0000     2.0000 </r>
       <r>   -15.1641     0.0000     2.0000 </r>
       <r>   -15.0596     0.0000     2.0000 </r>
       <r>   -14.9550     0.0000     2.0000 </r>
       <r>   -14.8505     0.0000     2.0000 </r>
       <r>   -14.7459    -0.0000     2.0000 </r>
       <r>   -14.6414    -0.0000     2.0000 </r>
       <r>   -14.5369    -0.0000     2.0000 </r>
       <r>   -14.4323    -0.0000     2.0000 </r>
       <r>   -14.3278    -0.0000     2.0000 </r>
       <r>   -14.2233    -0.0004     2.0000 </r>
       <r>   -14.1187    -0.0757     1.9920 </r>
       <r>   -14.0142    -0.5863     1.9308 </r>
       <r>   -13.9097     8.4722     2.8164 </r>
       <r>   -13.8051    11.6508     4.0343 </r>
       <r>   -13.7006    -0.1663     4.0170 </r>
       <r>   -13.5960    -0.1607     4.0002 </r>
       <r>   -13.4915    -0.0015     4.0000 </r>
       <r>   -13.3870    -0.0000     4.0000 </r>
       <r>   -13.2824    -0.0000     4.0000 </r>
       <r>   -13.1779     0.0000     4.0000 </r>
       <r>   -13.0734     0.0000     4.0000 </r>
       <r>   -12.9688     0.0000     4.0000 </r>
       <r>   -12.8643     0.0000     4.0000 </r>
       <r>   -12.7597     0.0000     4.0000 </r>
       <r>   -12.6552     0.0000     4.0000 </r>
       <r>   -12.5507     0.0000     4.0000 </r>
       <r>   -12.4461     0.0000     4.0000 </r>
       <r>   -12.3416     0.0000     4.0000 </r>
       <r>   -12.2371     0.0000     4.0000 </r>
       <r>   -12.1325    -0.0000     4.0000 </r>
       <r>   -12.0280    -0.0000     4.0000 </r>
       <r>   -11.9234    -0.0000     4.0000 </r>
       <r>   -11.8189    -0.0000     4.0000 </r>
       <r>   -11.7144    -0.0000     4.0000 </r>
       <r>   -11.6098    -0.0009     3.9999 </r>
       <r>   -11.5053    -0.1217     3.9872 </r>
       <r>   -11.4008    -0.3983     3.9455 </r>
       <r>   -11.2962    10.3435     5.0268 </r>
       <r>   -11.1917     8.7133     5.9377 </r>
       <r>   -11.0871    14.2287     7.4251 </r>
       <r>   -10.9826    24.3376     9.9693 </r>
       <r>   -10.8781     0.7378    10.0464 </r>
       <r>   -10.7735    -0.4374    10.0007 </r>
       <r>   -10.6690    -0.0066    10.0000 </r>
       <r>   -10.5645    -0.0000    10.0000 </r>
       <r>   -10.4599    -0.0058     9.9994 </r>
       <r>   -10.3554    -0.3219     9.9657 </r>
       <r>   -10.2509     1.1792    10.0890 </r>
       <r>   -10.1463    14.1157    11.5646 </r>
       <r>   -10.0418     4.7705    12.0633 </r>
       <r>    -9.9372    -0.5779    12.0029 </r>
       <r>    -9.8327    -0.0277    12.0000 </r>
       <r>    -9.7282    -0.0001    12.0000 </r>
       <r>    -9.6236    -0.0000    12.0000 </r>
       <r>    -9.5191    -0.0000    12.0000 </r>
       <r>    -9.4146    -0.0000    12.0000 </r>
       <r>    -9.3100    -0.0000    12.0000 </r>
       <r>    -9.2055    -0.0000    12.0000 </r>
       <r>    -9.1009    -0.0000    12.0000 </r>
       <r>    -8.9964    -0.0001    12.0000 </r>
       <r>    -8.8919    -0.0275    11.9971 </r>
       <r>    -8.7873    -0.5767    11.9368 </r>
       <r>    -8.6828     4.7420    12.4326 </r>
       <r>    -8.5783    14.1283    13.9095 </r>
       <r>    -8.4737     1.1891    14.0338 </r>
       <r>    -8.3692    -0.6547    13.9653 </r>
       <r>    -8.2646     1.2665    14.0977 </r>
       <r>    -8.1601    14.1860    15.5807 </r>
       <r>    -8.0556     4.6067    16.0623 </r>
       <r>    -7.9510    -0.7241    15.9866 </r>
       <r>    -7.8465    -0.2593    15.9595 </r>
       <r>    -7.7420    10.9351    17.1026 </r>
       <r>    -7.6374    12.2136    18.3794 </r>
       <r>    -7.5329    13.0557    19.7442 </r>
       <r>    -7.4283    11.7374    20.9712 </r>
       <r>    -7.3238    29.1978    24.0234 </r>
       <r>    -7.2193    28.2327    26.9748 </r>
       <r>    -7.1147    13.2631    28.3613 </r>
       <r>    -7.0102    23.6393    30.8325 </r>
       <r>    -6.9057    14.8032    32.3800 </r>
       <r>    -6.8011    17.9232    34.2536 </r>
       <r>    -6.6966    34.1161    37.8200 </r>
       <r>    -6.5921    46.3037    42.6605 </r>
       <r>    -6.4875    50.4607    47.9355 </r>
       <r>    -6.3830    46.9867    52.8473 </r>
       <r>    -6.2784    37.6685    56.7851 </r>
       <r>    -6.1739    42.9297    61.2728 </r>
       <r>    -6.0694    51.1083    66.6155 </r>
       <r>    -5.9648    31.0425    69.8606 </r>
       <r>    -5.8603    12.3459    71.1512 </r>
       <r>    -5.7558    33.5903    74.6627 </r>
       <r>    -5.6512    44.6166    79.3268 </r>
       <r>    -5.5467    38.9108    83.3944 </r>
       <r>    -5.4421    63.8852    90.0728 </r>
       <r>    -5.3376    79.7875    98.4135 </r>
       <r>    -5.2331    78.1744   106.5856 </r>
       <r>    -5.1285    90.8555   116.0834 </r>
       <r>    -5.0240    84.9559   124.9645 </r>
       <r>    -4.9195    69.6297   132.2434 </r>
       <r>    -4.8149    85.8087   141.2136 </r>
       <r>    -4.7104    39.4896   145.3417 </r>
       <r>    -4.6058     7.0630   146.0800 </r>
       <r>    -4.5013    11.4813   147.2802 </r>
       <r>    -4.3968     7.1858   148.0314 </r>
       <r>    -4.2922     1.0466   148.1408 </r>
       <r>    -4.1877    13.8952   149.5934 </r>
       <r>    -4.0832     6.7604   150.3001 </r>
       <r>    -3.9786    14.0890   151.7729 </r>
       <r>    -3.8741     2.6216   152.0470 </r>
       <r>    -3.7695    -0.9295   151.9498 </r>
       <r>    -3.6650     3.0016   152.2636 </r>
       <r>    -3.5605    14.6153   153.7915 </r>
       <r>    -3.4559     2.4414   154.0467 </r>
       <r>    -3.3514    -0.4372   154.0010 </r>
       <r>    -3.2469    -0.2186   153.9781 </r>
       <r>    -3.1423     0.0882   153.9873 </r>
       <r>    -3.0378    12.0633   155.2484 </r>
       <r>    -2.9333    15.5159   156.8704 </r>
       <r>    -2.8287    11.1598   158.0370 </r>
       <r>    -2.7242    -0.3030   158.0053 </r>
       <r>    -2.6196    -0.7602   157.9258 </r>
       <r>    -2.5151    10.0606   158.9775 </r>
       <r>    -2.4106    21.6812   161.2440 </r>
       <r>    -2.3060     8.0045   162.0808 </r>
       <r>    -2.2015    -0.7008   162.0075 </r>
       <r>    -2.0970    -0.3831   161.9675 </r>
       <r>    -1.9924     0.3080   161.9997 </r>
       <r>    -1.8879    17.2288   163.8007 </r>
       <r>    -1.7833    21.3679   166.0345 </r>
       <r>    -1.6788    15.4356   167.6481 </r>
       <r>    -1.5743     3.3245   167.9956 </r>
       <r>    -1.4697     8.6597   168.9009 </r>
       <r>    -1.3652    10.7767   170.0274 </r>
       <r>    -1.2607    -0.3049   169.9955 </r>
       <r>    -1.1561    11.9938   171.2493 </r>
       <r>    -1.0516     7.3135   172.0139 </r>
       <r>    -0.9470     9.6448   173.0221 </r>
       <r>    -0.8425     9.5095   174.0162 </r>
       <r>    -0.7380     1.6510   174.1888 </r>
       <r>    -0.6334    14.3812   175.6922 </r>
       <r>    -0.5289     2.7990   175.9848 </r>
       <r>    -0.4244     7.7302   176.7929 </r>
       <r>    -0.3198    11.4885   177.9938 </r>
       <r>    -0.2153    10.8868   179.1319 </r>
       <r>    -0.1107    11.2470   180.3076 </r>
       <r>    -0.0062    13.9487   181.7658 </r>
       <r>     0.0983    14.3494   183.2658 </r>
       <r>     0.2029     7.7056   184.0714 </r>
       <r>     0.3074    -0.6125   184.0073 </r>
       <r>     0.4119    -0.0699   184.0000 </r>
       <r>     0.5165    -0.0004   184.0000 </r>
       <r>     0.6210    -0.0000   184.0000 </r>
       <r>     0.7255    -0.0000   184.0000 </r>
       <r>     0.8301     0.0000   184.0000 </r>
       <r>     0.9346     0.0000   184.0000 </r>
       <r>     1.0392     0.0000   184.0000 </r>
       <r>     1.1437     0.0000   184.0000 </r>
       <r>     1.2482     0.0000   184.0000 </r>
       <r>     1.3528     0.0000   184.0000 </r>
       <r>     1.4573     0.0000   184.0000 </r>
       <r>     1.5618     0.0000   184.0000 </r>
      </set>
      <set comment="spin 2">
       <r>   -29.7993     0.0000     0.0000 </r>
       <r>   -29.6948     0.0000     0.0000 </r>
       <r>   -29.5902     0.0000     0.0000 </r>
       <r>   -29.4857     0.0000     0.0000 </r>
       <r>   -29.3811     0.0000     0.0000 </r>
       <r>   -29.2766     0.0000     0.0000 </r>
       <r>   -29.1721    -0.0000    -0.0000 </r>
       <r>   -29.0675    -0.0000    -0.0000 </r>
       <r>   -28.9630    -0.0000    -0.0000 </r>
       <r>   -28.8585    -0.0000    -0.0000 </r>
       <r>   -28.7539    -0.0000    -0.0000 </r>
       <r>   -28.6494    -0.0026    -0.0003 </r>
       <r>   -28.5449    -0.2143    -0.0227 </r>
       <r>   -28.4403     0.2200     0.0003 </r>
       <r>   -28.3358    12.7944     1.3378 </r>
       <r>   -28.2312     7.0110     2.0707 </r>
       <r>   -28.1267    -0.6239     2.0055 </r>
       <r>   -28.0222    -0.0525     2.0000 </r>
       <r>   -27.9176    -0.0002     2.0000 </r>
       <r>   -27.8131    -0.0000     2.0000 </r>
       <r>   -27.7086    -0.0000     2.0000 </r>
       <r>   -27.6040     0.0000     2.0000 </r>
       <r>   -27.4995     0.0000     2.0000 </r>
       <r>   -27.3949     0.0000     2.0000 </r>
       <r>   -27.2904     0.0000     2.0000 </r>
       <r>   -27.1859     0.0000     2.0000 </r>
       <r>   -27.0813     0.0000     2.0000 </r>
       <r>   -26.9768     0.0000     2.0000 </r>
       <r>   -26.8723     0.0000     2.0000 </r>
       <r>   -26.7677     0.0000     2.0000 </r>
       <r>   -26.6632     0.0000     2.0000 </r>
       <r>   -26.5586     0.0000     2.0000 </r>
       <r>   -26.4541     0.0000     2.0000 </r>
       <r>   -26.3496     0.0000     2.0000 </r>
       <r>   -26.2450     0.0000     2.0000 </r>
       <r>   -26.1405     0.0000     2.0000 </r>
       <r>   -26.0360     0.0000     2.0000 </r>
       <r>   -25.9314     0.0000     2.0000 </r>
       <r>   -25.8269     0.0000     2.0000 </r>
       <r>   -25.7223     0.0000     2.0000 </r>
       <r>   -25.6178     0.0000     2.0000 </r>
       <r>   -25.5133     0.0000     2.0000 </r>
       <r>   -25.4087     0.0000     2.0000 </r>
       <r>   -25.3042     0.0000     2.0000 </r>
       <r>   -25.1997     0.0000     2.0000 </r>
       <r>   -25.0951     0.0000     2.0000 </r>
       <r>   -24.9906     0.0000     2.0000 </r>
       <r>   -24.8861     0.0000     2.0000 </r>
       <r>   -24.7815     0.0000     2.0000 </r>
       <r>   -24.6770     0.0000     2.0000 </r>
       <r>   -24.5724     0.0000     2.0000 </r>
       <r>   -24.4679     0.0000     2.0000 </r>
       <r>   -24.3634     0.0000     2.0000 </r>
       <r>   -24.2588     0.0000     2.0000 </r>
       <r>   -24.1543     0.0000     2.0000 </r>
       <r>   -24.0498     0.0000     2.0000 </r>
       <r>   -23.9452     0.0000     2.0000 </r>
       <r>   -23.8407     0.0000     2.0000 </r>
       <r>   -23.7361     0.0000     2.0000 </r>
       <r>   -23.6316     0.0000     2.0000 </r>
       <r>   -23.5271     0.0000     2.0000 </r>
       <r>   -23.4225     0.0000     2.0000 </r>
       <r>   -23.3180     0.0000     2.0000 </r>
       <r>   -23.2135     0.0000     2.0000 </r>
       <r>   -23.1089     0.0000     2.0000 </r>
       <r>   -23.0044     0.0000     2.0000 </r>
       <r>   -22.8998     0.0000     2.0000 </r>
       <r>   -22.7953     0.0000     2.0000 </r>
       <r>   -22.6908     0.0000     2.0000 </r>
       <r>   -22.5862     0.0000     2.0000 </r>
       <r>   -22.4817     0.0000     2.0000 </r>
       <r>   -22.3772     0.0000     2.0000 </r>
       <r>   -22.2726     0.0000     2.0000 </r>
       <r>   -22.1681     0.0000     2.0000 </r>
       <r>   -22.0635     0.0000     2.0000 </r>
       <r>   -21.9590     0.0000     2.0000 </r>
       <r>   -21.8545     0.0000     2.0000 </r>
       <r>   -21.7499     0.0000     2.0000 </r>
       <r>   -21.6454     0.0000     2.0000 </r>
       <r>   -21.5409     0.0000     2.0000 </r>
       <r>   -21.4363     0.0000     2.0000 </r>
       <r>   -21.3318     0.0000     2.0000 </r>
       <r>   -21.2273     0.0000     2.0000 </r>
       <r>   -21.1227     0.0000     2.0000 </r>
       <r>   -21.0182     0.0000     2.0000 </r>
       <r>   -20.9136     0.0000     2.0000 </r>
       <r>   -20.8091     0.0000     2.0000 </r>
       <r>   -20.7046     0.0000     2.0000 </r>
       <r>   -20.6000     0.0000     2.0000 </r>
       <r>   -20.4955     0.0000     2.0000 </r>
       <r>   -20.3910     0.0000     2.0000 </r>
       <r>   -20.2864     0.0000     2.0000 </r>
       <r>   -20.1819     0.0000     2.0000 </r>
       <r>   -20.0773     0.0000     2.0000 </r>
       <r>   -19.9728     0.0000     2.0000 </r>
       <r>   -19.8683     0.0000     2.0000 </r>
       <r>   -19.7637     0.0000     2.0000 </r>
       <r>   -19.6592     0.0000     2.0000 </r>
       <r>   -19.5547     0.0000     2.0000 </r>
       <r>   -19.4501     0.0000     2.0000 </r>
       <r>   -19.3456     0.0000     2.0000 </r>
       <r>   -19.2410     0.0000     2.0000 </r>
       <r>   -19.1365     0.0000     2.0000 </r>
       <r>   -19.0320     0.0000     2.0000 </r>
       <r>   -18.9274     0.0000     2.0000 </r>
       <r>   -18.8229     0.0000     2.0000 </r>
       <r>   -18.7184     0.0000     2.0000 </r>
       <r>   -18.6138     0.0000     2.0000 </r>
       <r>   -18.5093     0.0000     2.0000 </r>
       <r>   -18.4047     0.0000     2.0000 </r>
       <r>   -18.3002     0.0000     2.0000 </r>
       <r>   -18.1957     0.0000     2.0000 </r>
       <r>   -18.0911     0.0000     2.0000 </r>
       <r>   -17.9866     0.0000     2.0000 </r>
       <r>   -17.8821     0.0000     2.0000 </r>
       <r>   -17.7775     0.0000     2.0000 </r>
       <r>   -17.6730     0.0000     2.0000 </r>
       <r>   -17.5685     0.0000     2.0000 </r>
       <r>   -17.4639     0.0000     2.0000 </r>
       <r>   -17.3594     0.0000     2.0000 </r>
       <r>   -17.2548     0.0000     2.0000 </r>
       <r>   -17.1503     0.0000     2.0000 </r>
       <r>   -17.0458     0.0000     2.0000 </r>
       <r>   -16.9412     0.0000     2.0000 </r>
       <r>   -16.8367     0.0000     2.0000 </r>
       <r>   -16.7322     0.0000     2.0000 </r>
       <r>   -16.6276     0.0000     2.0000 </r>
       <r>   -16.5231     0.0000     2.0000 </r>
       <r>   -16.4185     0.0000     2.0000 </r>
       <r>   -16.3140     0.0000     2.0000 </r>
       <r>   -16.2095     0.0000     2.0000 </r>
       <r>   -16.1049     0.0000     2.0000 </r>
       <r>   -16.0004     0.0000     2.0000 </r>
       <r>   -15.8959     0.0000     2.0000 </r>
       <r>   -15.7913     0.0000     2.0000 </r>
       <r>   -15.6868     0.0000     2.0000 </r>
       <r>   -15.5822     0.0000     2.0000 </r>
       <r>   -15.4777     0.0000     2.0000 </r>
       <r>   -15.3732     0.0000     2.0000 </r>
       <r>   -15.2686     0.0000     2.0000 </r>
       <r>   -15.1641     0.0000     2.0000 </r>
       <r>   -15.0596     0.0000     2.0000 </r>
       <r>   -14.9550     0.0000     2.0000 </r>
       <r>   -14.8505     0.0000     2.0000 </r>
       <r>   -14.7459    -0.0000     2.0000 </r>
       <r>   -14.6414    -0.0000     2.0000 </r>
       <r>   -14.5369    -0.0000     2.0000 </r>
       <r>   -14.4323    -0.0000     2.0000 </r>
       <r>   -14.3278    -0.0000     2.0000 </r>
       <r>   -14.2233    -0.0000     2.0000 </r>
       <r>   -14.1187    -0.0174     1.9982 </r>
       <r>   -14.0142    -0.5055     1.9453 </r>
       <r>   -13.9097     3.4244     2.3033 </r>
       <r>   -13.8051    14.5574     3.8251 </r>
       <r>   -13.7006     2.0888     4.0435 </r>
       <r>   -13.5960    -0.4059     4.0010 </r>
       <r>   -13.4915    -0.0098     4.0000 </r>
       <r>   -13.3870    -0.0000     4.0000 </r>
       <r>   -13.2824    -0.0000     4.0000 </r>
       <r>   -13.1779    -0.0000     4.0000 </r>
       <r>   -13.0734     0.0000     4.0000 </r>
       <r>   -12.9688     0.0000     4.0000 </r>
       <r>   -12.8643     0.0000     4.0000 </r>
       <r>   -12.7597     0.0000     4.0000 </r>
       <r>   -12.6552     0.0000     4.0000 </r>
       <r>   -12.5507     0.0000     4.0000 </r>
       <r>   -12.4461     0.0000     4.0000 </r>
       <r>   -12.3416     0.0000     4.0000 </r>
       <r>   -12.2371     0.0000     4.0000 </r>
       <r>   -12.1325    -0.0000     4.0000 </r>
       <r>   -12.0280    -0.0000     4.0000 </r>
       <r>   -11.9234    -0.0000     4.0000 </r>
       <r>   -11.8189    -0.0000     4.0000 </r>
       <r>   -11.7144    -0.0000     4.0000 </r>
       <r>   -11.6098    -0.0002     4.0000 </r>
       <r>   -11.5053    -0.0484     3.9949 </r>
       <r>   -11.4008    -0.6245     3.9296 </r>
       <r>   -11.2962     6.6392     4.6237 </r>
       <r>   -11.1917    12.2386     5.9031 </r>
       <r>   -11.0871     8.0087     6.7403 </r>
       <r>   -10.9826    23.5330     9.2003 </r>
       <r>   -10.8781     8.4940    10.0883 </r>
       <r>   -10.7735    -0.7656    10.0082 </r>
       <r>   -10.6690    -0.0785    10.0000 </r>
       <r>   -10.5645    -0.0004    10.0000 </r>
       <r>   -10.4599    -0.0006     9.9999 </r>
       <r>   -10.3554    -0.0913     9.9904 </r>
       <r>   -10.2509    -0.5354     9.9344 </r>
       <r>   -10.1463     9.2588    10.9023 </r>
       <r>   -10.0418    10.9555    12.0476 </r>
       <r>    -9.9372    -0.3178    12.0144 </r>
       <r>    -9.8327    -0.1362    12.0001 </r>
       <r>    -9.7282    -0.0011    12.0000 </r>
       <r>    -9.6236    -0.0000    12.0000 </r>
       <r>    -9.5191    -0.0000    12.0000 </r>
       <r>    -9.4146    -0.0000    12.0000 </r>
       <r>    -9.3100    -0.0000    12.0000 </r>
       <r>    -9.2055    -0.0000    12.0000 </r>
       <r>    -9.1009    -0.0000    12.0000 </r>
       <r>    -8.9964    -0.0000    12.0000 </r>
       <r>    -8.8919    -0.0094    11.9990 </r>
       <r>    -8.7873    -0.3991    11.9573 </r>
       <r>    -8.6828     2.0088    12.1673 </r>
       <r>    -8.5783    14.5370    13.6869 </r>
       <r>    -8.4737     3.5242    14.0554 </r>
       <r>    -8.3692    -0.5971    13.9929 </r>
       <r>    -8.2646    -0.5753    13.9328 </r>
       <r>    -8.1601     8.9672    14.8702 </r>
       <r>    -8.0556    11.2195    16.0431 </r>
       <r>    -7.9510    -0.2949    16.0122 </r>
       <r>    -7.8465    -0.7378    15.9351 </r>
       <r>    -7.7420     4.5595    16.4117 </r>
       <r>    -7.6374    15.7474    18.0579 </r>
       <r>    -7.5329    14.8467    19.6100 </r>
       <r>    -7.4283     7.4174    20.3854 </r>
       <r>    -7.3238    23.5469    22.8469 </r>
       <r>    -7.2193    30.6873    26.0548 </r>
       <r>    -7.1147    18.8216    28.0224 </r>
       <r>    -7.0102    17.9518    29.8990 </r>
       <r>    -6.9057    21.1471    32.1097 </r>
       <r>    -6.8011    14.9103    33.6684 </r>
       <r>    -6.6966    29.3098    36.7323 </r>
       <r>    -6.5921    44.9678    41.4331 </r>
       <r>    -6.4875    51.3029    46.7962 </r>
       <r>    -6.3830    46.3270    51.6391 </r>
       <r>    -6.2784    41.8471    56.0137 </r>
       <r>    -6.1739    39.9479    60.1897 </r>
       <r>    -6.0694    48.7910    65.2902 </r>
       <r>    -5.9648    39.0398    69.3713 </r>
       <r>    -5.8603    13.3723    70.7692 </r>
       <r>    -5.7558    25.4603    73.4307 </r>
       <r>    -5.6512    45.7402    78.2123 </r>
       <r>    -5.5467    38.3124    82.2174 </r>
       <r>    -5.4421    55.1706    87.9847 </r>
       <r>    -5.3376    77.8117    96.1189 </r>
       <r>    -5.2331    78.0419   104.2772 </r>
       <r>    -5.1285    89.5300   113.6364 </r>
       <r>    -5.0240    90.2058   123.0663 </r>
       <r>    -4.9195    67.1651   130.0875 </r>
       <r>    -4.8149    81.2547   138.5817 </r>
       <r>    -4.7104    58.7095   144.7190 </r>
       <r>    -4.6058    12.3031   146.0051 </r>
       <r>    -4.5013     5.3129   146.5605 </r>
       <r>    -4.3968    13.3088   147.9518 </r>
       <r>    -4.2922     0.0591   147.9580 </r>
       <r>    -4.1877     6.3337   148.6201 </r>
       <r>    -4.0832    12.9900   149.9780 </r>
       <r>    -3.9786    12.6528   151.3007 </r>
       <r>    -3.8741     7.3702   152.0712 </r>
       <r>    -3.7695    -0.6195   152.0064 </r>
       <r>    -3.6650    -0.0784   151.9982 </r>
       <r>    -3.5605    -0.5069   151.9452 </r>
       <r>    -3.4559     3.4413   152.3049 </r>
       <r>    -3.3514    14.5541   153.8264 </r>
       <r>    -3.2469     2.0477   154.0404 </r>
       <r>    -3.1423    -0.9895   153.9370 </r>
       <r>    -3.0378     4.3700   154.3938 </r>
       <r>    -2.9333    15.7850   156.0440 </r>
       <r>    -2.8287    15.6026   157.6750 </r>
       <r>    -2.7242     3.6662   158.0583 </r>
       <r>    -2.6196    -0.9594   157.9580 </r>
       <r>    -2.5151     1.9386   158.1606 </r>
       <r>    -2.4106    14.6327   159.6903 </r>
       <r>    -2.3060    15.7437   161.3361 </r>
       <r>    -2.2015     7.0460   162.0727 </r>
       <r>    -2.0970    -0.6471   162.0050 </r>
       <r>    -1.9924    -0.7000   161.9318 </r>
       <r>    -1.8879     2.3772   162.1803 </r>
       <r>    -1.7833    27.1586   165.0194 </r>
       <r>    -1.6788    17.1879   166.8162 </r>
       <r>    -1.5743    11.2899   167.9964 </r>
       <r>    -1.4697    -0.0581   167.9903 </r>
       <r>    -1.3652    11.5843   169.2013 </r>
       <r>    -1.2607     8.2681   170.0656 </r>
       <r>    -1.1561    -1.2170   169.9384 </r>
       <r>    -1.0516     5.4451   170.5076 </r>
       <r>    -0.9470    15.3888   172.1163 </r>
       <r>    -0.8425    15.0752   173.6923 </r>
       <r>    -0.7380     2.8228   173.9873 </r>
       <r>    -0.6334     5.9029   174.6044 </r>
       <r>    -0.5289    13.1178   175.9757 </r>
       <r>    -0.4244    -0.2076   175.9540 </r>
       <r>    -0.3198     6.6820   176.6525 </r>
       <r>    -0.2153    13.1969   178.0321 </r>
       <r>    -0.1107    13.8032   179.4750 </r>
       <r>    -0.0062    17.1549   181.2684 </r>
       <r>     0.0983    11.5889   182.4798 </r>
       <r>     0.2029    13.5943   183.9009 </r>
       <r>     0.3074     1.2940   184.0362 </r>
       <r>     0.4119    -0.3398   184.0007 </r>
       <r>     0.5165    -0.0065   184.0000 </r>
       <r>     0.6210    -0.0000   184.0000 </r>
       <r>     0.7255    -0.0000   184.0000 </r>
       <r>     0.8301    -0.0000   184.0000 </r>
       <r>     0.9346     0.0000   184.0000 </r>
       <r>     1.0392     0.0000   184.0000 </r>
       <r>     1.1437     0.0000   184.0000 </r>
       <r>     1.2482     0.0000   184.0000 </r>
       <r>     1.3528     0.0000   184.0000 </r>
       <r>     1.4573     0.0000   184.0000 </r>
       <r>     1.5618     0.0000   184.0000 </r>
      </set>
     </set>
    </array>
   </total>
  </dos>
 </calculation>
 <structure name="finalpos" >
  <crystal>
   <varray name="basis" >
    <v>      15.00000000       0.00000000       0.00000000 </v>
    <v>       0.00000000      15.00000000       0.00000000 </v>
    <v>       0.00000000       0.00000000      15.00000000 </v>
   </varray>
   <i name="volume">   3375.00000000 </i>
   <varray name="rec_basis" >
    <v>       0.06666667       0.00000000       0.00000000 </v>
    <v>       0.00000000       0.06666667       0.00000000 </v>
    <v>       0.00000000       0.00000000       0.06666667 </v>
   </varray>
  </crystal>
  <varray name="positions" >
   <v>       0.28835467       0.42235533       0.56023267 </v>
   <v>       0.37411667       0.54066733       0.49396267 </v>
   <v>       0.39079400       0.29168400       0.56034733 </v>
   <v>       0.52906933       0.49969000       0.47755933 </v>
   <v>       0.54940667       0.35498533       0.53240667 </v>
   <v>       0.44797133       0.43941133       0.61235600 </v>
   <v>       0.41287867       0.39259000       0.44399533 </v>
   <v>       0.22374067       0.57005467       0.55189667 </v>
   <v>       0.33639200       0.55230133       0.66148667 </v>
   <v>       0.35775067       0.67665333       0.57350733 </v>
   <v>       0.48823667       0.66515867       0.47277000 </v>
   <v>       0.63116200       0.48849800       0.59164600 </v>
   <v>       0.48868933       0.59300400       0.61667867 </v>
   <v>       0.73824000       0.48907533       0.64815667 </v>
   <v>       0.81169333       0.49557867       0.67248667 </v>
  </varray>
 </structure>
</modeling>
