<?xml version="1.0" encoding="ISO-8859-1"?>
<modeling>
 <generator>
  <i name="program" type="string">vasp </i>
  <i name="version" type="string">5.4.4.18Apr17-6-g9f103f2a35  </i>
  <i name="subversion" type="string">(build May 08 2019 13:49:07) complex            parallel </i>
  <i name="platform" type="string">LinuxIFC </i>
  <i name="date" type="string">2019 11 13 </i>
  <i name="time" type="string">13:40:45 </i>
 </generator>
 <incar>
  <i type="string" name="SYSTEM"> CuCO</i>
  <i type="int" name="ISTART">     0</i>
  <i type="string" name="PREC">accurate</i>
  <i type="string" name="ALGO"> Fast</i>
  <i type="int" name="ISPIN">     2</i>
  <i type="int" name="INIWAV">     1</i>
  <i type="int" name="NELM">   300</i>
  <i type="int" name="NELMIN">     3</i>
  <i type="int" name="IBRION">    -1</i>
  <i name="EDIFF">      0.00000010</i>
  <i name="EDIFFG">     -0.00100000</i>
  <i type="int" name="NSW">     0</i>
  <i type="int" name="ISYM">     0</i>
  <i name="ENCUT">    600.00000000</i>
  <i name="NUPDOWN">      1.00000000</i>
  <i type="logical" name="LREAL"> F  </i>
  <i type="int" name="ISMEAR">     1</i>
  <i name="SIGMA">      0.10000000</i>
  <i name="KSPACING">      0.50000000</i>
  <i type="logical" name="KGAMMA"> F  </i>
  <i type="logical" name="LWAVE"> F  </i>
  <i type="logical" name="LCHARG"> F  </i>
  <v type="int" name="KPOINT_BSE">    -1     0     0     0</v>
  <i type="int" name="NELM">   300</i>
  <i type="string" name="GGA"> PE</i>
 </incar>
 <structure name="primitive_cell" >
  <crystal>
   <varray name="basis" >
    <v>      15.00000000       0.00000000       0.00000000 </v>
    <v>       0.00000000      15.00000000       0.00000000 </v>
    <v>       0.00000000       0.00000000      15.00000000 </v>
   </varray>
   <i name="volume">   3375.00000000 </i>
   <varray name="rec_basis" >
    <v>       0.06666667       0.00000000       0.00000000 </v>
    <v>       0.00000000       0.06666667       0.00000000 </v>
    <v>       0.00000000       0.00000000       0.06666667 </v>
   </varray>
  </crystal>
  <varray name="positions" >
   <v>       0.29297467       0.41814467      -0.44159200 </v>
   <v>       0.39471533       0.29318533      -0.44154933 </v>
   <v>       0.22289000      -0.43490000      -0.45096667 </v>
   <v>       0.44535667       0.44028467      -0.38736000 </v>
   <v>       0.37691133      -0.45536200       0.49590600 </v>
   <v>       0.33181067      -0.45380533      -0.33889133 </v>
   <v>       0.41511267       0.39764933       0.44129867 </v>
   <v>      -0.45400133       0.34699733      -0.46613600 </v>
   <v>       0.48554467      -0.40630133      -0.38366133 </v>
   <v>      -0.46436933      -0.49651933       0.48223933 </v>
   <v>       0.35449733      -0.31615333      -0.43131800 </v>
   <v>       0.48299333      -0.33715067       0.47326133 </v>
   <v>      -0.36817867       0.48855533      -0.39904200 </v>
   <v>      -0.25719333       0.49630400      -0.35625667 </v>
   <v>      -0.18258000       0.49979467      -0.33748067 </v>
  </varray>
 </structure>
 <varray name="primitive_index" >
  <v type="int" >        1 </v>
  <v type="int" >        3 </v>
  <v type="int" >        8 </v>
  <v type="int" >        6 </v>
  <v type="int" >        2 </v>
  <v type="int" >        9 </v>
  <v type="int" >        7 </v>
  <v type="int" >        5 </v>
  <v type="int" >       13 </v>
  <v type="int" >        4 </v>
  <v type="int" >       10 </v>
  <v type="int" >       11 </v>
  <v type="int" >       12 </v>
  <v type="int" >       14 </v>
  <v type="int" >       15 </v>
 </varray>
 <kpoints>
  <generation param="Monkhorst-Pack">
   <v type="int" name="divisions">       1        1        1 </v>
   <v name="usershift">      0.00000000       0.00000000       0.00000000 </v>
   <v name="genvec1">      1.00000000       0.00000000       0.00000000 </v>
   <v name="genvec2">      0.00000000       1.00000000       0.00000000 </v>
   <v name="genvec3">      0.00000000       0.00000000       1.00000000 </v>
   <v name="shift">      0.00000000       0.00000000       0.00000000 </v>
  </generation>
  <varray name="kpointlist" >
   <v>       0.00000000       0.00000000       0.00000000 </v>
  </varray>
  <varray name="weights" >
   <v>       1.00000000 </v>
  </varray>
 </kpoints>
 <parameters>
  <separator name="general" >
   <i type="string" name="SYSTEM">CuCO</i>
   <i type="logical" name="LCOMPAT"> F  </i>
  </separator>
  <separator name="electronic" >
   <i type="string" name="PREC">accura</i>
   <i name="ENMAX">    600.00000000</i>
   <i name="ENAUG">    644.87300000</i>
   <i name="EDIFF">      0.00000010</i>
   <i type="int" name="IALGO">    68</i>
   <i type="int" name="IWAVPR">    10</i>
   <i type="int" name="NBANDS">    92</i>
   <i name="NELECT">    153.00000000</i>
   <i type="int" name="TURBO">     0</i>
   <i type="int" name="IRESTART">     0</i>
   <i type="int" name="NREBOOT">     0</i>
   <i type="int" name="NMIN">     0</i>
   <i name="EREF">      0.00000000</i>
   <separator name="electronic smearing" >
    <i type="int" name="ISMEAR">     1</i>
    <i name="SIGMA">      0.10000000</i>
    <i name="KSPACING">      0.50000000</i>
    <i type="logical" name="KGAMMA"> F  </i>
   </separator>
   <separator name="electronic projectors" >
    <i type="logical" name="LREAL"> F  </i>
    <v name="ROPT">      0.00000000      0.00000000      0.00000000</v>
    <i type="int" name="LMAXPAW">  -100</i>
    <i type="int" name="LMAXMIX">     2</i>
    <i type="logical" name="NLSPLINE"> F  </i>
   </separator>
   <separator name="electronic startup" >
    <i type="int" name="ISTART">     0</i>
    <i type="int" name="ICHARG">     2</i>
    <i type="int" name="INIWAV">     1</i>
   </separator>
   <separator name="electronic spin" >
    <i type="int" name="ISPIN">     2</i>
    <i type="logical" name="LNONCOLLINEAR"> F  </i>
    <v name="MAGMOM">      0.06666667      0.06666667      0.06666667      0.06666667      0.06666667      0.06666667      0.06666667      0.06666667      0.06666667      0.06666667      0.06666667      0.06666667      0.06666667      0.06666667      0.06666667</v>
    <i name="NUPDOWN">      1.00000000</i>
    <i type="logical" name="LSORBIT"> F  </i>
    <v name="SAXIS">      0.00000000      0.00000000      1.00000000</v>
    <i type="logical" name="LSPIRAL"> F  </i>
    <v name="QSPIRAL">      0.00000000      0.00000000      0.00000000</v>
    <i type="logical" name="LZEROZ"> F  </i>
   </separator>
   <separator name="electronic exchange-correlation" >
    <i type="logical" name="LASPH"> F  </i>
    <i type="logical" name="LMETAGGA"> F  </i>
   </separator>
   <separator name="electronic convergence" >
    <i type="int" name="NELM">   300</i>
    <i type="int" name="NELMDL">    -5</i>
    <i type="int" name="NELMIN">     3</i>
    <i name="ENINI">    600.00000000</i>
    <separator name="electronic convergence detail" >
     <i type="logical" name="LDIAG"> T  </i>
     <i type="logical" name="LSUBROT"> F  </i>
     <i name="WEIMIN">      0.00000000</i>
     <i name="EBREAK">      0.00000000</i>
     <i name="DEPER">      0.30000000</i>
     <i type="int" name="NRMM">     4</i>
     <i name="TIME">      0.40000000</i>
    </separator>
   </separator>
   <separator name="electronic mixer" >
    <i name="AMIX">      0.40000000</i>
    <i name="BMIX">      1.00000000</i>
    <i name="AMIN">      0.10000000</i>
    <i name="AMIX_MAG">      1.60000000</i>
    <i name="BMIX_MAG">      1.00000000</i>
    <separator name="electronic mixer details" >
     <i type="int" name="IMIX">     4</i>
     <i type="logical" name="MIXFIRST"> F  </i>
     <i type="int" name="MAXMIX">   -45</i>
     <i name="WC">    100.00000000</i>
     <i type="int" name="INIMIX">     1</i>
     <i type="int" name="MIXPRE">     1</i>
     <i type="int" name="MREMOVE">     5</i>
    </separator>
   </separator>
   <separator name="electronic dipolcorrection" >
    <i type="logical" name="LDIPOL"> F  </i>
    <i type="logical" name="LMONO"> F  </i>
    <i type="int" name="IDIPOL">     0</i>
    <i name="EPSILON">      1.00000000</i>
    <v name="DIPOL">   -100.00000000   -100.00000000   -100.00000000</v>
    <i name="EFIELD">      0.00000000</i>
   </separator>
  </separator>
  <separator name="grids" >
   <i type="int" name="NGX">   120</i>
   <i type="int" name="NGY">   120</i>
   <i type="int" name="NGZ">   120</i>
   <i type="int" name="NGXF">   240</i>
   <i type="int" name="NGYF">   240</i>
   <i type="int" name="NGZF">   240</i>
   <i type="logical" name="ADDGRID"> F  </i>
  </separator>
  <separator name="ionic" >
   <i type="int" name="NSW">     0</i>
   <i type="int" name="IBRION">    -1</i>
   <i type="int" name="MDALGO">     0</i>
   <i type="int" name="ISIF">     2</i>
   <i name="PSTRESS">      0.00000000</i>
   <i name="EDIFFG">     -0.00100000</i>
   <i type="int" name="NFREE">     0</i>
   <i name="POTIM">      0.50000000</i>
   <i name="SMASS">     -3.00000000</i>
   <i name="SCALEE">      1.00000000</i>
  </separator>
  <separator name="ionic md" >
   <i name="TEBEG">      0.00010000</i>
   <i name="TEEND">      0.00010000</i>
   <i type="int" name="NBLOCK">     1</i>
   <i type="int" name="KBLOCK">     1</i>
   <i type="int" name="NPACO">   256</i>
   <i name="APACO">     16.00000000</i>
  </separator>
  <separator name="symmetry" >
   <i type="int" name="ISYM">     0</i>
   <i name="SYMPREC">      0.00001000</i>
  </separator>
  <separator name="dos" >
   <i type="int" name="LORBIT">     0</i>
   <v name="RWIGS">     -1.00000000     -1.00000000     -1.00000000</v>
   <i type="int" name="NEDOS">   301</i>
   <i name="EMIN">     10.00000000</i>
   <i name="EMAX">    -10.00000000</i>
   <i name="EFERMI">      0.00000000</i>
  </separator>
  <separator name="writing" >
   <i type="int" name="NWRITE">     2</i>
   <i type="logical" name="LWAVE"> F  </i>
   <i type="logical" name="LDOWNSAMPLE"> F  </i>
   <i type="logical" name="LCHARG"> F  </i>
   <i type="logical" name="LPARD"> F  </i>
   <i type="logical" name="LVTOT"> F  </i>
   <i type="logical" name="LVHAR"> F  </i>
   <i type="logical" name="LELF"> F  </i>
   <i type="logical" name="LOPTICS"> F  </i>
   <v name="STM">      0.00000000      0.00000000      0.00000000      0.00000000      0.00000000      0.00000000      0.00000000</v>
  </separator>
  <separator name="performance" >
   <i type="int" name="NPAR">     4</i>
   <i type="int" name="NSIM">     4</i>
   <i type="int" name="NBLK">    -1</i>
   <i type="logical" name="LPLANE"> T  </i>
   <i type="logical" name="LSCALAPACK"> T  </i>
   <i type="logical" name="LSCAAWARE"> F  </i>
   <i type="logical" name="LSCALU"> F  </i>
   <i type="logical" name="LASYNC"> F  </i>
   <i type="logical" name="LORBITALREAL"> F  </i>
  </separator>
  <separator name="miscellaneous" >
   <i type="int" name="IDIOT">     3</i>
   <i type="int" name="ISPECIAL">     0</i>
   <i type="logical" name="LMUSIC"> F  </i>
   <v name="POMASS">     63.54600000     12.01100000     16.00000000</v>
   <v name="DARWINR">      0.00000000      0.00000000      0.00000000</v>
   <v name="DARWINV">      1.00000000      1.00000000      1.00000000</v>
   <i type="logical" name="LCORR"> T  </i>
  </separator>
  <i type="logical" name="GGA_COMPAT"> T  </i>
  <i type="logical" name="LBERRY"> F  </i>
  <i type="int" name="ICORELEVEL">     0</i>
  <i type="logical" name="LDAU"> F  </i>
  <i type="int" name="I_CONSTRAINED_M">     0</i>
  <separator name="electronic exchange-correlation" >
   <i type="string" name="GGA">PE</i>
   <i type="int" name="VOSKOWN">     0</i>
   <i type="logical" name="LHFCALC"> F  </i>
   <i type="string" name="PRECFOCK"></i>
   <i type="logical" name="LSYMGRAD"> F  </i>
   <i type="logical" name="LHFONE"> F  </i>
   <i type="logical" name="LRHFCALC"> F  </i>
   <i type="logical" name="LTHOMAS"> F  </i>
   <i type="logical" name="LMODELHF"> F  </i>
   <i name="ENCUT4O">     -1.00000000</i>
   <i type="int" name="EXXOEP">     0</i>
   <i type="int" name="FOURORBIT">     0</i>
   <i name="AEXX">      0.00000000</i>
   <i name="HFALPHA">      0.00000000</i>
   <i name="MCALPHA">      0.00000000</i>
   <i name="ALDAX">      1.00000000</i>
   <i name="AGGAX">      1.00000000</i>
   <i name="ALDAC">      1.00000000</i>
   <i name="AGGAC">      1.00000000</i>
   <i type="int" name="NKREDX">     1</i>
   <i type="int" name="NKREDY">     1</i>
   <i type="int" name="NKREDZ">     1</i>
   <i type="logical" name="SHIFTRED"> F  </i>
   <i type="logical" name="ODDONLY"> F  </i>
   <i type="logical" name="EVENONLY"> F  </i>
   <i type="int" name="LMAXFOCK">     0</i>
   <i type="int" name="NMAXFOCKAE">     0</i>
   <i type="logical" name="LFOCKAEDFT"> F  </i>
   <i name="HFSCREEN">      0.00000000</i>
   <i name="HFSCREENC">      0.00000000</i>
   <i type="int" name="NBANDSGWLOW">     0</i>
  </separator>
  <separator name="vdW DFT" >
   <i type="logical" name="LUSE_VDW"> F  </i>
   <i name="Zab_VDW">     -0.84910000</i>
   <i name="PARAM1">      0.12340000</i>
   <i name="PARAM2">      1.00000000</i>
   <i name="PARAM3">      0.00000000</i>
  </separator>
  <separator name="model GW" >
   <i type="int" name="MODEL_GW">     0</i>
   <i name="MODEL_EPS0">    135.00000000</i>
   <i name="MODEL_ALPHA">      1.00000000</i>
  </separator>
  <separator name="linear response parameters" >
   <i type="logical" name="LEPSILON"> F  </i>
   <i type="logical" name="LRPA"> F  </i>
   <i type="logical" name="LNABLA"> F  </i>
   <i type="logical" name="LVEL"> F  </i>
   <i type="int" name="KINTER">     0</i>
   <i name="CSHIFT">      0.10000000</i>
   <i name="OMEGAMAX">     -1.00000000</i>
   <i name="DEG_THRESHOLD">      0.00200000</i>
   <i name="RTIME">     -0.10000000</i>
   <i name="WPLASMAI">      0.00000000</i>
   <v name="DFIELD">      0.00000000      0.00000000      0.00000000</v>
   <v name="WPLASMA">      0.00000000      0.00000000      0.00000000      0.00000000      0.00000000      0.00000000      0.00000000      0.00000000      0.00000000</v>
  </separator>
  <separator name="orbital magnetization" >
   <i type="logical" name="NUCIND"> F  </i>
   <v name="MAGPOS">      0.00000000      0.00000000      0.00000000</v>
   <i type="logical" name="LNICSALL"> T  </i>
   <i type="logical" name="ORBITALMAG"> F  </i>
   <i type="logical" name="LMAGBLOCH"> F  </i>
   <i type="logical" name="LCHIMAG"> F  </i>
   <i type="logical" name="LGAUGE"> T  </i>
   <i type="int" name="MAGATOM">     0</i>
   <v name="MAGDIPOL">      0.00000000      0.00000000      0.00000000</v>
   <v name="AVECCONST">      0.00000000      0.00000000      0.00000000</v>
  </separator>
  <separator name="response functions" >
   <i type="logical" name="LADDER"> F  </i>
   <i type="logical" name="LRPAFORCE"> F  </i>
   <i type="logical" name="LFXC"> F  </i>
   <i type="logical" name="LHARTREE"> T  </i>
   <i type="int" name="IBSE">     0</i>
   <v type="int" name="KPOINT">    -1     0     0     0</v>
   <i type="logical" name="LTCTE"> F  </i>
   <i type="logical" name="LTETE"> F  </i>
   <i type="logical" name="LTRIPLET"> F  </i>
   <i type="logical" name="LFXCEPS"> F  </i>
   <i type="logical" name="LFXHEG"> F  </i>
   <i type="int" name="NATURALO">     2</i>
   <i type="logical" name="L2ORDER"> F  </i>
   <i type="logical" name="LMP2LT"> F  </i>
   <i type="logical" name="LUSEW"> F  </i>
   <i name="ENCUTGW">     -2.00000000</i>
   <i name="ENCUTGWSOFT">     -2.00000000</i>
   <i name="ENCUTLF">     -1.00000000</i>
   <i type="int" name="LMAXMP2">    -1</i>
   <i name="SCISSOR">      0.00000000</i>
   <i type="int" name="NOMEGA">     0</i>
   <i type="int" name="NOMEGAR">     0</i>
   <i type="int" name="NBANDSGW">    -1</i>
   <i type="int" name="NBANDSO">    -1</i>
   <i type="int" name="NBANDSV">    -1</i>
   <i type="int" name="NELM">   300</i>
   <i type="int" name="NELMHF">     1</i>
   <i type="int" name="DIM">     3</i>
   <i type="int" name="ANTIRES">     0</i>
   <i name="OMEGAMAX">    -30.00000000</i>
   <i name="OMEGAMIN">    -30.00000000</i>
   <i name="OMEGATL">   -200.00000000</i>
   <i type="int" name="OMEGAGRID">   140</i>
   <i name="CSHIFT">     -0.10000000</i>
   <i type="logical" name="SELFENERGY"> F  </i>
   <i type="logical" name="LSPECTRAL"> F  </i>
   <i type="logical" name="LSPECTRALGW"> F  </i>
   <i type="logical" name="LSINGLES"> F  </i>
   <i type="logical" name="LFERMIGW"> F  </i>
   <i type="logical" name="ODDONLYGW"> F  </i>
   <i type="logical" name="EVENONLYGW"> F  </i>
   <i type="int" name="NKREDLFX">     1</i>
   <i type="int" name="NKREDLFY">     1</i>
   <i type="int" name="NKREDLFZ">     1</i>
   <i type="int" name="MAXMEM">  2800</i>
   <i type="int" name="TELESCOPE">     0</i>
   <i type="int" name="TAUPAR">     1</i>
   <i type="int" name="OMEGAPAR">    -1</i>
   <i name="LAMBDA">      1.00000000</i>
  </separator>
  <separator name="External order field" >
   <i name="OFIELD_KAPPA">      0.00000000</i>
   <v name="OFIELD_K">      0.00000000      0.00000000      0.00000000</v>
   <i name="OFIELD_Q6_NEAR">      0.00000000</i>
   <i name="OFIELD_Q6_FAR">      0.00000000</i>
   <i name="OFIELD_A">      0.00000000</i>
  </separator>
 </parameters>
 <atominfo>
  <atoms>      15 </atoms>
  <types>       3 </types>
  <array name="atoms" >
   <dimension dim="1">ion</dimension>
   <field type="string">element</field>
   <field type="int">atomtype</field>
   <set>
    <rc><c>Cu</c><c>   1</c></rc>
    <rc><c>Cu</c><c>   1</c></rc>
    <rc><c>Cu</c><c>   1</c></rc>
    <rc><c>Cu</c><c>   1</c></rc>
    <rc><c>Cu</c><c>   1</c></rc>
    <rc><c>Cu</c><c>   1</c></rc>
    <rc><c>Cu</c><c>   1</c></rc>
    <rc><c>Cu</c><c>   1</c></rc>
    <rc><c>Cu</c><c>   1</c></rc>
    <rc><c>Cu</c><c>   1</c></rc>
    <rc><c>Cu</c><c>   1</c></rc>
    <rc><c>Cu</c><c>   1</c></rc>
    <rc><c>Cu</c><c>   1</c></rc>
    <rc><c>C </c><c>   2</c></rc>
    <rc><c>O </c><c>   3</c></rc>
   </set>
  </array>
  <array name="atomtypes" >
   <dimension dim="1">type</dimension>
   <field type="int">atomspertype</field>
   <field type="string">element</field>
   <field>mass</field>
   <field>valence</field>
   <field type="string">pseudopotential</field>
   <set>
    <rc><c>  13</c><c>Cu</c><c>     63.54600000</c><c>     11.00000000</c><c>  PAW_PBE Cu 22Jun2005                  </c></rc>
    <rc><c>   1</c><c>C </c><c>     12.01100000</c><c>      4.00000000</c><c>  PAW_PBE C 08Apr2002                   </c></rc>
    <rc><c>   1</c><c>O </c><c>     16.00000000</c><c>      6.00000000</c><c>  PAW_PBE O 08Apr2002                   </c></rc>
   </set>
  </array>
 </atominfo>
 <structure name="initialpos" >
  <crystal>
   <varray name="basis" >
    <v>      15.00000000       0.00000000       0.00000000 </v>
    <v>       0.00000000      15.00000000       0.00000000 </v>
    <v>       0.00000000       0.00000000      15.00000000 </v>
   </varray>
   <i name="volume">   3375.00000000 </i>
   <varray name="rec_basis" >
    <v>       0.06666667       0.00000000       0.00000000 </v>
    <v>       0.00000000       0.06666667       0.00000000 </v>
    <v>       0.00000000       0.00000000       0.06666667 </v>
   </varray>
  </crystal>
  <varray name="positions" >
   <v>       0.29297467       0.41814467       0.55840800 </v>
   <v>       0.37691133       0.54463800       0.49590600 </v>
   <v>       0.39471533       0.29318533       0.55845067 </v>
   <v>       0.53563067       0.50348067       0.48223933 </v>
   <v>       0.54599867       0.34699733       0.53386400 </v>
   <v>       0.44535667       0.44028467       0.61264000 </v>
   <v>       0.41511267       0.39764933       0.44129867 </v>
   <v>       0.22289000       0.56510000       0.54903333 </v>
   <v>       0.33181067       0.54619467       0.66110867 </v>
   <v>       0.35449733       0.68384667       0.56868200 </v>
   <v>       0.48299333       0.66284933       0.47326133 </v>
   <v>       0.63182133       0.48855533       0.60095800 </v>
   <v>       0.48554467       0.59369867       0.61633867 </v>
   <v>       0.74280667       0.49630400       0.64374333 </v>
   <v>       0.81742000       0.49979467       0.66251933 </v>
  </varray>
 </structure>
 <calculation>
  <scstep>
   <time name="dav">    7.47    7.47</time>
   <time name="total">    8.68    8.69</time>
   <energy>
    <i name="alphaZ">     41.16232785 </i>
    <i name="ewald">  16308.50421128 </i>
    <i name="hartreedc"> -33330.09893677 </i>
    <i name="XCdc">    623.48765032 </i>
    <i name="pawpsdc">  16421.75059358 </i>
    <i name="pawaedc"> -17800.06104309 </i>
    <i name="eentropy">     -0.00733686 </i>
    <i name="bandstr">    192.39328107 </i>
    <i name="atom">  18662.21924712 </i>
    <i name="e_fr_energy">   1119.34999449 </i>
    <i name="e_wo_entrp">   1119.35733136 </i>
    <i name="e_0_energy">   1119.35244011 </i>
   </energy>
  </scstep>
  <scstep>
   <time name="dav">    7.35    7.35</time>
   <time name="total">    7.35    7.36</time>
   <energy>
    <i name="e_fr_energy">     88.35828495 </i>
    <i name="e_wo_entrp">     88.34610456 </i>
    <i name="e_0_energy">     88.35422482 </i>
   </energy>
  </scstep>
  <scstep>
   <time name="dav">   11.56   11.58</time>
   <time name="total">   11.56   11.58</time>
   <energy>
    <i name="e_fr_energy">    -33.41216698 </i>
    <i name="e_wo_entrp">    -33.41915738 </i>
    <i name="e_0_energy">    -33.41449712 </i>
   </energy>
  </scstep>
  <scstep>
   <time name="dav">   10.04   10.05</time>
   <time name="total">   10.04   10.05</time>
   <energy>
    <i name="e_fr_energy">    -55.75323945 </i>
    <i name="e_wo_entrp">    -55.76260115 </i>
    <i name="e_0_energy">    -55.75636002 </i>
   </energy>
  </scstep>
  <scstep>
   <time name="dav">   11.87   11.87</time>
   <time name="total">   12.59   12.60</time>
   <energy>
    <i name="e_fr_energy">    -57.42698057 </i>
    <i name="e_wo_entrp">    -57.43647004 </i>
    <i name="e_0_energy">    -57.43014373 </i>
   </energy>
  </scstep>
  <scstep>
   <time name="diag">    1.09    1.10</time>
   <time name="diis">    6.82    6.82</time>
   <time name="orth">    0.06    0.06</time>
   <time name="total">    9.87    9.87</time>
   <energy>
    <i name="e_fr_energy">    -56.88231513 </i>
    <i name="e_wo_entrp">    -56.88942816 </i>
    <i name="e_0_energy">    -56.88468614 </i>
   </energy>
  </scstep>
  <scstep>
   <time name="diag">    1.10    1.10</time>
   <time name="diis">    6.53    6.53</time>
   <time name="orth">    0.06    0.06</time>
   <time name="total">    9.58    9.59</time>
   <energy>
    <i name="e_fr_energy">    -49.20838879 </i>
    <i name="e_wo_entrp">    -49.21657135 </i>
    <i name="e_0_energy">    -49.21111631 </i>
   </energy>
  </scstep>
  <scstep>
   <time name="diag">    1.10    1.10</time>
   <time name="diis">    7.59    7.60</time>
   <time name="orth">    0.06    0.06</time>
   <time name="total">   10.60   10.63</time>
   <energy>
    <i name="e_fr_energy">    -48.97328346 </i>
    <i name="e_wo_entrp">    -48.98239295 </i>
    <i name="e_0_energy">    -48.97631995 </i>
   </energy>
  </scstep>
  <scstep>
   <time name="diag">    1.10    1.10</time>
   <time name="diis">    6.81    6.82</time>
   <time name="orth">    0.06    0.06</time>
   <time name="total">    9.86    9.88</time>
   <energy>
    <i name="e_fr_energy">    -48.91687979 </i>
    <i name="e_wo_entrp">    -48.92603719 </i>
    <i name="e_0_energy">    -48.91993226 </i>
   </energy>
  </scstep>
  <scstep>
   <time name="diag">    1.10    1.10</time>
   <time name="diis">    7.08    7.08</time>
   <time name="orth">    0.06    0.06</time>
   <time name="total">   10.13   10.14</time>
   <energy>
    <i name="e_fr_energy">    -48.85056799 </i>
    <i name="e_wo_entrp">    -48.85962464 </i>
    <i name="e_0_energy">    -48.85358688 </i>
   </energy>
  </scstep>
  <scstep>
   <time name="diag">    1.09    1.09</time>
   <time name="diis">    7.24    7.24</time>
   <time name="orth">    0.06    0.06</time>
   <time name="total">   10.28   10.29</time>
   <energy>
    <i name="e_fr_energy">    -48.83838876 </i>
    <i name="e_wo_entrp">    -48.84762224 </i>
    <i name="e_0_energy">    -48.84146658 </i>
   </energy>
  </scstep>
  <scstep>
   <time name="diag">    1.09    1.09</time>
   <time name="diis">    7.15    7.15</time>
   <time name="orth">    0.06    0.06</time>
   <time name="total">   10.20   10.21</time>
   <energy>
    <i name="e_fr_energy">    -48.83580067 </i>
    <i name="e_wo_entrp">    -48.84496638 </i>
    <i name="e_0_energy">    -48.83885591 </i>
   </energy>
  </scstep>
  <scstep>
   <time name="diag">    1.09    1.09</time>
   <time name="diis">    7.24    7.24</time>
   <time name="orth">    0.06    0.06</time>
   <time name="total">   10.28   10.28</time>
   <energy>
    <i name="e_fr_energy">    -48.83460509 </i>
    <i name="e_wo_entrp">    -48.84378920 </i>
    <i name="e_0_energy">    -48.83766646 </i>
   </energy>
  </scstep>
  <scstep>
   <time name="diag">    1.09    1.09</time>
   <time name="diis">    6.90    6.90</time>
   <time name="orth">    0.06    0.06</time>
   <time name="total">    9.93    9.93</time>
   <energy>
    <i name="e_fr_energy">    -48.83558780 </i>
    <i name="e_wo_entrp">    -48.84477650 </i>
    <i name="e_0_energy">    -48.83865070 </i>
   </energy>
  </scstep>
  <scstep>
   <time name="diag">    1.09    1.10</time>
   <time name="diis">    7.28    7.28</time>
   <time name="orth">    0.06    0.06</time>
   <time name="total">   10.31   10.32</time>
   <energy>
    <i name="e_fr_energy">    -48.83674858 </i>
    <i name="e_wo_entrp">    -48.84592759 </i>
    <i name="e_0_energy">    -48.83980825 </i>
   </energy>
  </scstep>
  <scstep>
   <time name="diag">    1.09    1.09</time>
   <time name="diis">    6.74    6.74</time>
   <time name="orth">    0.06    0.06</time>
   <time name="total">    9.77    9.78</time>
   <energy>
    <i name="e_fr_energy">    -48.83834061 </i>
    <i name="e_wo_entrp">    -48.84753886 </i>
    <i name="e_0_energy">    -48.84140669 </i>
   </energy>
  </scstep>
  <scstep>
   <time name="diag">    1.09    1.09</time>
   <time name="diis">    6.61    6.61</time>
   <time name="orth">    0.06    0.06</time>
   <time name="total">    9.64    9.65</time>
   <energy>
    <i name="e_fr_energy">    -48.83998737 </i>
    <i name="e_wo_entrp">    -48.84918963 </i>
    <i name="e_0_energy">    -48.84305479 </i>
   </energy>
  </scstep>
  <scstep>
   <time name="diag">    1.10    1.10</time>
   <time name="diis">    6.66    6.66</time>
   <time name="orth">    0.06    0.06</time>
   <time name="total">    9.69    9.70</time>
   <energy>
    <i name="e_fr_energy">    -48.84091255 </i>
    <i name="e_wo_entrp">    -48.85011486 </i>
    <i name="e_0_energy">    -48.84397998 </i>
   </energy>
  </scstep>
  <scstep>
   <time name="diag">    1.09    1.09</time>
   <time name="diis">    7.41    7.41</time>
   <time name="orth">    0.06    0.06</time>
   <time name="total">   10.45   10.46</time>
   <energy>
    <i name="e_fr_energy">    -48.84180250 </i>
    <i name="e_wo_entrp">    -48.85100214 </i>
    <i name="e_0_energy">    -48.84486905 </i>
   </energy>
  </scstep>
  <scstep>
   <time name="diag">    1.10    1.10</time>
   <time name="diis">    7.12    7.13</time>
   <time name="orth">    0.06    0.06</time>
   <time name="total">   10.16   10.17</time>
   <energy>
    <i name="e_fr_energy">    -48.84230299 </i>
    <i name="e_wo_entrp">    -48.85150211 </i>
    <i name="e_0_energy">    -48.84536937 </i>
   </energy>
  </scstep>
  <scstep>
   <time name="diag">    1.10    1.10</time>
   <time name="diis">    7.07    7.07</time>
   <time name="orth">    0.06    0.06</time>
   <time name="total">   10.17   10.17</time>
   <energy>
    <i name="e_fr_energy">    -48.84270583 </i>
    <i name="e_wo_entrp">    -48.85190328 </i>
    <i name="e_0_energy">    -48.84577165 </i>
   </energy>
  </scstep>
  <scstep>
   <time name="diag">    1.09    1.09</time>
   <time name="diis">    6.80    6.80</time>
   <time name="orth">    0.06    0.06</time>
   <time name="total">    9.84    9.84</time>
   <energy>
    <i name="e_fr_energy">    -48.84298662 </i>
    <i name="e_wo_entrp">    -48.85218559 </i>
    <i name="e_0_energy">    -48.84605294 </i>
   </energy>
  </scstep>
  <scstep>
   <time name="diag">    1.09    1.09</time>
   <time name="diis">    6.97    6.97</time>
   <time name="orth">    0.06    0.06</time>
   <time name="total">   10.02   10.02</time>
   <energy>
    <i name="e_fr_energy">    -48.84310001 </i>
    <i name="e_wo_entrp">    -48.85229894 </i>
    <i name="e_0_energy">    -48.84616632 </i>
   </energy>
  </scstep>
  <scstep>
   <time name="diag">    1.09    1.09</time>
   <time name="diis">    6.94    6.94</time>
   <time name="orth">    0.06    0.06</time>
   <time name="total">    9.98    9.99</time>
   <energy>
    <i name="e_fr_energy">    -48.84320075 </i>
    <i name="e_wo_entrp">    -48.85239980 </i>
    <i name="e_0_energy">    -48.84626710 </i>
   </energy>
  </scstep>
  <scstep>
   <time name="diag">    1.09    1.09</time>
   <time name="diis">    6.74    6.74</time>
   <time name="orth">    0.06    0.06</time>
   <time name="total">    9.78    9.79</time>
   <energy>
    <i name="e_fr_energy">    -48.84327024 </i>
    <i name="e_wo_entrp">    -48.85246907 </i>
    <i name="e_0_energy">    -48.84633652 </i>
   </energy>
  </scstep>
  <scstep>
   <time name="diag">    1.10    1.10</time>
   <time name="diis">    6.33    6.34</time>
   <time name="orth">    0.06    0.06</time>
   <time name="total">    9.37    9.38</time>
   <energy>
    <i name="e_fr_energy">    -48.84330032 </i>
    <i name="e_wo_entrp">    -48.85249916 </i>
    <i name="e_0_energy">    -48.84636660 </i>
   </energy>
  </scstep>
  <scstep>
   <time name="diag">    1.09    1.10</time>
   <time name="diis">    5.35    5.35</time>
   <time name="orth">    0.06    0.06</time>
   <time name="total">    8.39    8.39</time>
   <energy>
    <i name="e_fr_energy">    -48.84331507 </i>
    <i name="e_wo_entrp">    -48.85251396 </i>
    <i name="e_0_energy">    -48.84638137 </i>
   </energy>
  </scstep>
  <scstep>
   <time name="diag">    1.09    1.10</time>
   <time name="diis">    4.59    4.60</time>
   <time name="orth">    0.06    0.06</time>
   <time name="total">    7.63    7.65</time>
   <energy>
    <i name="e_fr_energy">    -48.84332031 </i>
    <i name="e_wo_entrp">    -48.85251916 </i>
    <i name="e_0_energy">    -48.84638659 </i>
   </energy>
  </scstep>
  <scstep>
   <time name="diag">    1.09    1.09</time>
   <time name="diis">    4.30    4.30</time>
   <time name="orth">    0.06    0.06</time>
   <time name="total">    7.34    7.35</time>
   <energy>
    <i name="e_fr_energy">    -48.84332343 </i>
    <i name="e_wo_entrp">    -48.85252223 </i>
    <i name="e_0_energy">    -48.84638970 </i>
   </energy>
  </scstep>
  <scstep>
   <time name="diag">    1.09    1.10</time>
   <time name="diis">    4.60    4.60</time>
   <time name="orth">    0.06    0.06</time>
   <time name="total">    7.66    7.67</time>
   <energy>
    <i name="e_fr_energy">    -48.84332472 </i>
    <i name="e_wo_entrp">    -48.85252346 </i>
    <i name="e_0_energy">    -48.84639097 </i>
   </energy>
  </scstep>
  <scstep>
   <time name="diag">    1.10    1.10</time>
   <time name="diis">    4.45    4.45</time>
   <time name="orth">    0.06    0.06</time>
   <time name="total">    7.53    7.53</time>
   <energy>
    <i name="e_fr_energy">    -48.84332556 </i>
    <i name="e_wo_entrp">    -48.85252432 </i>
    <i name="e_0_energy">    -48.84639181 </i>
   </energy>
  </scstep>
  <scstep>
   <time name="diag">    1.09    1.10</time>
   <time name="diis">    4.16    4.16</time>
   <time name="orth">    0.06    0.06</time>
   <time name="total">    7.24    7.25</time>
   <energy>
    <i name="e_fr_energy">    -48.84332635 </i>
    <i name="e_wo_entrp">    -48.85252511 </i>
    <i name="e_0_energy">    -48.84639260 </i>
   </energy>
  </scstep>
  <scstep>
   <time name="diag">    1.09    1.10</time>
   <time name="diis">    4.47    4.47</time>
   <time name="orth">    0.06    0.06</time>
   <time name="total">    7.56    7.57</time>
   <energy>
    <i name="e_fr_energy">    -48.84332689 </i>
    <i name="e_wo_entrp">    -48.85252566 </i>
    <i name="e_0_energy">    -48.84639315 </i>
   </energy>
  </scstep>
  <scstep>
   <time name="diag">    1.10    1.10</time>
   <time name="diis">    4.29    4.29</time>
   <time name="orth">    0.06    0.06</time>
   <time name="total">    7.39    7.40</time>
   <energy>
    <i name="e_fr_energy">    -48.84332726 </i>
    <i name="e_wo_entrp">    -48.85252603 </i>
    <i name="e_0_energy">    -48.84639352 </i>
   </energy>
  </scstep>
  <scstep>
   <time name="diag">    1.10    1.10</time>
   <time name="diis">    4.19    4.20</time>
   <time name="orth">    0.06    0.06</time>
   <time name="total">    7.29    7.31</time>
   <energy>
    <i name="e_fr_energy">    -48.84332751 </i>
    <i name="e_wo_entrp">    -48.85252627 </i>
    <i name="e_0_energy">    -48.84639376 </i>
   </energy>
  </scstep>
  <scstep>
   <time name="diag">    1.10    1.10</time>
   <time name="diis">    3.55    3.56</time>
   <time name="orth">    0.06    0.06</time>
   <time name="total">    6.66    6.67</time>
   <energy>
    <i name="e_fr_energy">    -48.84332776 </i>
    <i name="e_wo_entrp">    -48.85252653 </i>
    <i name="e_0_energy">    -48.84639402 </i>
   </energy>
  </scstep>
  <scstep>
   <time name="diag">    1.10    1.10</time>
   <time name="diis">    3.41    3.41</time>
   <time name="orth">    0.06    0.06</time>
   <time name="total">    6.52    6.53</time>
   <energy>
    <i name="e_fr_energy">    -48.84332789 </i>
    <i name="e_wo_entrp">    -48.85252665 </i>
    <i name="e_0_energy">    -48.84639414 </i>
   </energy>
  </scstep>
  <scstep>
   <time name="diag">    1.10    1.10</time>
   <time name="diis">    3.29    3.29</time>
   <time name="orth">    0.06    0.06</time>
   <time name="total">    5.63    5.64</time>
   <energy>
    <i name="alphaZ">     41.16232785 </i>
    <i name="ewald">  16308.50421128 </i>
    <i name="hartreedc"> -33287.31704381 </i>
    <i name="XCdc">    615.49861909 </i>
    <i name="pawpsdc">  17661.58533790 </i>
    <i name="pawaedc"> -19060.24008385 </i>
    <i name="eentropy">      0.00919876 </i>
    <i name="bandstr">   -990.26514229 </i>
    <i name="atom">  18662.21924712 </i>
    <i name="e_fr_energy">    -48.84332794 </i>
    <i name="e_wo_entrp">    -48.85252670 </i>
    <i name="e_0_energy">    -48.84639419 </i>
   </energy>
  </scstep>
  <structure>
   <crystal>
    <varray name="basis" >
     <v>      15.00000000       0.00000000       0.00000000 </v>
     <v>       0.00000000      15.00000000       0.00000000 </v>
     <v>       0.00000000       0.00000000      15.00000000 </v>
    </varray>
    <i name="volume">   3375.00000000 </i>
    <varray name="rec_basis" >
     <v>       0.06666667       0.00000000       0.00000000 </v>
     <v>       0.00000000       0.06666667       0.00000000 </v>
     <v>       0.00000000       0.00000000       0.06666667 </v>
    </varray>
   </crystal>
   <varray name="positions" >
    <v>       0.29297467       0.41814467       0.55840800 </v>
    <v>       0.37691133       0.54463800       0.49590600 </v>
    <v>       0.39471533       0.29318533       0.55845067 </v>
    <v>       0.53563067       0.50348067       0.48223933 </v>
    <v>       0.54599867       0.34699733       0.53386400 </v>
    <v>       0.44535667       0.44028467       0.61264000 </v>
    <v>       0.41511267       0.39764933       0.44129867 </v>
    <v>       0.22289000       0.56510000       0.54903333 </v>
    <v>       0.33181067       0.54619467       0.66110867 </v>
    <v>       0.35449733       0.68384667       0.56868200 </v>
    <v>       0.48299333       0.66284933       0.47326133 </v>
    <v>       0.63182133       0.48855533       0.60095800 </v>
    <v>       0.48554467       0.59369867       0.61633867 </v>
    <v>       0.74280667       0.49630400       0.64374333 </v>
    <v>       0.81742000       0.49979467       0.66251933 </v>
   </varray>
  </structure>
  <varray name="forces" >
   <v>      -0.08670985       0.06647257      -0.04852215 </v>
   <v>      -0.30956465       0.06453399      -0.07434039 </v>
   <v>       0.00029269      -0.19521114       0.21952972 </v>
   <v>      -0.40176022       0.08191614      -0.19270284 </v>
   <v>       0.23842860       0.24127347      -0.16604523 </v>
   <v>       0.32518084      -0.36119401      -0.10956781 </v>
   <v>       0.13578943       0.12038961       0.39526134 </v>
   <v>       0.13933382       0.19768832      -0.03782995 </v>
   <v>       0.26863706       0.09790292      -0.33129114 </v>
   <v>      -0.29968944      -0.08967757       0.15053768 </v>
   <v>       0.19976442       0.01214661       0.00639876 </v>
   <v>      -0.70042779      -0.24923854      -0.01304631 </v>
   <v>       0.13464787      -0.01656869      -0.08429502 </v>
   <v>       0.26945484       0.00171602       0.35098423 </v>
   <v>       0.08662238       0.02785030      -0.06507089 </v>
  </varray>
  <varray name="stress" >
   <v>      -0.20130478      -0.42288455       0.44013225 </v>
   <v>      -0.42288454       0.03822318      -0.37203426 </v>
   <v>       0.44013225      -0.37203428      -0.36657222 </v>
  </varray>
  <energy>
   <i name="e_fr_energy">    -48.84332794 </i>
   <i name="e_wo_entrp">    -48.84639419 </i>
   <i name="e_0_energy">      0.00919876 </i>
  </energy>
  <time name="totalsc">  357.89  358.21</time>
  <eigenvalues>
   <array>
    <dimension dim="1">band</dimension>
    <dimension dim="2">kpoint</dimension>
    <dimension dim="3">spin</dimension>
    <field>eigene</field>
    <field>occ</field>
    <set>
     <set comment="spin 1">
      <set comment="kpoint 1">
       <r>  -28.5298    1.0000 </r>
       <r>  -13.9260    1.0000 </r>
       <r>  -11.3675    1.0000 </r>
       <r>  -11.2105    1.0000 </r>
       <r>  -11.1700    1.0000 </r>
       <r>  -10.1731    1.0000 </r>
       <r>   -8.5713    1.0000 </r>
       <r>   -8.2089    1.0000 </r>
       <r>   -7.7148    1.0000 </r>
       <r>   -7.5366    1.0000 </r>
       <r>   -7.4190    1.0000 </r>
       <r>   -7.3465    1.0000 </r>
       <r>   -7.3101    1.0000 </r>
       <r>   -7.1844    1.0000 </r>
       <r>   -7.1078    1.0000 </r>
       <r>   -6.9834    1.0000 </r>
       <r>   -6.7922    1.0000 </r>
       <r>   -6.7404    1.0000 </r>
       <r>   -6.6874    1.0000 </r>
       <r>   -6.6200    1.0000 </r>
       <r>   -6.5937    1.0000 </r>
       <r>   -6.5382    1.0000 </r>
       <r>   -6.5049    1.0000 </r>
       <r>   -6.4524    1.0000 </r>
       <r>   -6.4304    1.0000 </r>
       <r>   -6.3868    1.0000 </r>
       <r>   -6.3541    1.0000 </r>
       <r>   -6.3057    1.0000 </r>
       <r>   -6.2604    1.0000 </r>
       <r>   -6.2358    1.0000 </r>
       <r>   -6.1762    1.0000 </r>
       <r>   -6.1513    1.0000 </r>
       <r>   -6.0809    1.0000 </r>
       <r>   -6.0422    1.0000 </r>
       <r>   -5.9683    1.0000 </r>
       <r>   -5.8769    1.0000 </r>
       <r>   -5.8143    1.0000 </r>
       <r>   -5.7386    1.0000 </r>
       <r>   -5.7129    1.0000 </r>
       <r>   -5.6426    1.0000 </r>
       <r>   -5.6036    1.0000 </r>
       <r>   -5.5499    1.0000 </r>
       <r>   -5.5114    1.0000 </r>
       <r>   -5.4680    1.0000 </r>
       <r>   -5.4440    1.0000 </r>
       <r>   -5.4112    1.0000 </r>
       <r>   -5.3735    1.0000 </r>
       <r>   -5.3713    1.0000 </r>
       <r>   -5.3568    1.0000 </r>
       <r>   -5.3361    1.0000 </r>
       <r>   -5.2951    1.0000 </r>
       <r>   -5.2507    1.0000 </r>
       <r>   -5.2333    1.0000 </r>
       <r>   -5.1942    1.0000 </r>
       <r>   -5.1886    1.0000 </r>
       <r>   -5.1492    1.0000 </r>
       <r>   -5.1391    1.0000 </r>
       <r>   -5.1306    1.0000 </r>
       <r>   -5.1068    1.0000 </r>
       <r>   -5.0741    1.0000 </r>
       <r>   -5.0576    1.0000 </r>
       <r>   -5.0152    1.0000 </r>
       <r>   -5.0068    1.0000 </r>
       <r>   -4.9740    1.0000 </r>
       <r>   -4.9452    1.0000 </r>
       <r>   -4.9025    1.0000 </r>
       <r>   -4.8768    1.0000 </r>
       <r>   -4.8719    1.0000 </r>
       <r>   -4.8640    1.0000 </r>
       <r>   -4.8167    1.0000 </r>
       <r>   -4.8050    1.0000 </r>
       <r>   -4.7706    1.0000 </r>
       <r>   -4.7202    1.0000 </r>
       <r>   -4.5236    1.0000 </r>
       <r>   -4.1691    1.0000 </r>
       <r>   -4.0744    1.0000 </r>
       <r>   -3.5355    1.0000 </r>
       <r>   -3.0224   -0.0000 </r>
       <r>   -2.9216   -0.0000 </r>
       <r>   -2.5240   -0.0000 </r>
       <r>   -2.3883   -0.0000 </r>
       <r>   -1.9488   -0.0000 </r>
       <r>   -1.8675   -0.0000 </r>
       <r>   -1.7004   -0.0000 </r>
       <r>   -1.4150   -0.0000 </r>
       <r>   -1.0945   -0.0000 </r>
       <r>   -0.9419   -0.0000 </r>
       <r>   -0.6778    0.0000 </r>
       <r>   -0.4047    0.0000 </r>
       <r>   -0.2453    0.0000 </r>
       <r>   -0.0649    0.0000 </r>
       <r>    0.2059    0.0000 </r>
      </set>
     </set>
     <set comment="spin 2">
      <set comment="kpoint 1">
       <r>  -28.5132    1.0000 </r>
       <r>  -13.8924    1.0000 </r>
       <r>  -11.3442    1.0000 </r>
       <r>  -11.1767    1.0000 </r>
       <r>  -11.1375    1.0000 </r>
       <r>  -10.1309    1.0000 </r>
       <r>   -8.5491    1.0000 </r>
       <r>   -8.1605    1.0000 </r>
       <r>   -7.6726    1.0000 </r>
       <r>   -7.5153    1.0000 </r>
       <r>   -7.3912    1.0000 </r>
       <r>   -7.3075    1.0000 </r>
       <r>   -7.2592    1.0000 </r>
       <r>   -7.1615    1.0000 </r>
       <r>   -7.0779    1.0000 </r>
       <r>   -6.9501    1.0000 </r>
       <r>   -6.7687    1.0000 </r>
       <r>   -6.7059    1.0000 </r>
       <r>   -6.6557    1.0000 </r>
       <r>   -6.5994    1.0000 </r>
       <r>   -6.5728    1.0000 </r>
       <r>   -6.5165    1.0000 </r>
       <r>   -6.4740    1.0000 </r>
       <r>   -6.4302    1.0000 </r>
       <r>   -6.4061    1.0000 </r>
       <r>   -6.3542    1.0000 </r>
       <r>   -6.3319    1.0000 </r>
       <r>   -6.2818    1.0000 </r>
       <r>   -6.2338    1.0000 </r>
       <r>   -6.2130    1.0000 </r>
       <r>   -6.1534    1.0000 </r>
       <r>   -6.1206    1.0000 </r>
       <r>   -6.0580    1.0000 </r>
       <r>   -6.0203    1.0000 </r>
       <r>   -5.9416    1.0000 </r>
       <r>   -5.8501    1.0000 </r>
       <r>   -5.7853    1.0000 </r>
       <r>   -5.7175    1.0000 </r>
       <r>   -5.6933    1.0000 </r>
       <r>   -5.6130    1.0000 </r>
       <r>   -5.5807    1.0000 </r>
       <r>   -5.5182    1.0000 </r>
       <r>   -5.4876    1.0000 </r>
       <r>   -5.4390    1.0000 </r>
       <r>   -5.4200    1.0000 </r>
       <r>   -5.3818    1.0000 </r>
       <r>   -5.3486    1.0000 </r>
       <r>   -5.3428    1.0000 </r>
       <r>   -5.3313    1.0000 </r>
       <r>   -5.3063    1.0000 </r>
       <r>   -5.2636    1.0000 </r>
       <r>   -5.2265    1.0000 </r>
       <r>   -5.2077    1.0000 </r>
       <r>   -5.1730    1.0000 </r>
       <r>   -5.1618    1.0000 </r>
       <r>   -5.1230    1.0000 </r>
       <r>   -5.1170    1.0000 </r>
       <r>   -5.1061    1.0000 </r>
       <r>   -5.0875    1.0000 </r>
       <r>   -5.0469    1.0000 </r>
       <r>   -5.0328    1.0000 </r>
       <r>   -4.9918    1.0000 </r>
       <r>   -4.9888    1.0000 </r>
       <r>   -4.9455    1.0000 </r>
       <r>   -4.9132    1.0000 </r>
       <r>   -4.8799    1.0000 </r>
       <r>   -4.8479    1.0000 </r>
       <r>   -4.8403    1.0000 </r>
       <r>   -4.8268    1.0000 </r>
       <r>   -4.7867    1.0000 </r>
       <r>   -4.7679    1.0000 </r>
       <r>   -4.7440    1.0000 </r>
       <r>   -4.6884    1.0000 </r>
       <r>   -4.4813    1.0000 </r>
       <r>   -4.1017    1.0329 </r>
       <r>   -4.0372    0.9671 </r>
       <r>   -3.3259   -0.0000 </r>
       <r>   -2.9704   -0.0000 </r>
       <r>   -2.8706   -0.0000 </r>
       <r>   -2.4638   -0.0000 </r>
       <r>   -2.3005   -0.0000 </r>
       <r>   -1.9175   -0.0000 </r>
       <r>   -1.7805   -0.0000 </r>
       <r>   -1.6410   -0.0000 </r>
       <r>   -1.3159   -0.0000 </r>
       <r>   -0.9518    0.0000 </r>
       <r>   -0.8683    0.0000 </r>
       <r>   -0.6086    0.0000 </r>
       <r>   -0.2913    0.0000 </r>
       <r>   -0.1938    0.0000 </r>
       <r>   -0.0183    0.0000 </r>
       <r>    0.1174    0.0000 </r>
      </set>
     </set>
    </set>
   </array>
  </eigenvalues>
  <separator name="orbital magnetization" >
   <v name="MAGDIPOLOUT">      0.00000000      0.00000000      0.00000000</v>
  </separator>
  <dos>
   <i name="efermi">     -3.96508252 </i>
   <total>
    <array>
     <dimension dim="1">gridpoints</dimension>
     <dimension dim="2">spin</dimension>
     <field>energy</field>
     <field>total</field>
     <field>integrated</field>
     <set>
      <set comment="spin 1">
       <r>   -29.9666     0.0000     0.0000 </r>
       <r>   -29.8612     0.0000     0.0000 </r>
       <r>   -29.7559     0.0000     0.0000 </r>
       <r>   -29.6505     0.0000     0.0000 </r>
       <r>   -29.5451     0.0000     0.0000 </r>
       <r>   -29.4398     0.0000     0.0000 </r>
       <r>   -29.3344    -0.0000    -0.0000 </r>
       <r>   -29.2290    -0.0000    -0.0000 </r>
       <r>   -29.1237    -0.0000    -0.0000 </r>
       <r>   -29.0183    -0.0000    -0.0000 </r>
       <r>   -28.9129    -0.0000    -0.0000 </r>
       <r>   -28.8076    -0.0058    -0.0006 </r>
       <r>   -28.7022    -0.3265    -0.0350 </r>
       <r>   -28.5968     1.2976     0.1017 </r>
       <r>   -28.4915    14.2081     1.5987 </r>
       <r>   -28.3861     4.3846     2.0607 </r>
       <r>   -28.2808    -0.5532     2.0024 </r>
       <r>   -28.1754    -0.0229     2.0000 </r>
       <r>   -28.0700    -0.0001     2.0000 </r>
       <r>   -27.9647    -0.0000     2.0000 </r>
       <r>   -27.8593    -0.0000     2.0000 </r>
       <r>   -27.7539     0.0000     2.0000 </r>
       <r>   -27.6486     0.0000     2.0000 </r>
       <r>   -27.5432     0.0000     2.0000 </r>
       <r>   -27.4378     0.0000     2.0000 </r>
       <r>   -27.3325     0.0000     2.0000 </r>
       <r>   -27.2271     0.0000     2.0000 </r>
       <r>   -27.1217     0.0000     2.0000 </r>
       <r>   -27.0164     0.0000     2.0000 </r>
       <r>   -26.9110     0.0000     2.0000 </r>
       <r>   -26.8057     0.0000     2.0000 </r>
       <r>   -26.7003     0.0000     2.0000 </r>
       <r>   -26.5949     0.0000     2.0000 </r>
       <r>   -26.4896     0.0000     2.0000 </r>
       <r>   -26.3842     0.0000     2.0000 </r>
       <r>   -26.2788     0.0000     2.0000 </r>
       <r>   -26.1735     0.0000     2.0000 </r>
       <r>   -26.0681     0.0000     2.0000 </r>
       <r>   -25.9627     0.0000     2.0000 </r>
       <r>   -25.8574     0.0000     2.0000 </r>
       <r>   -25.7520     0.0000     2.0000 </r>
       <r>   -25.6466     0.0000     2.0000 </r>
       <r>   -25.5413     0.0000     2.0000 </r>
       <r>   -25.4359     0.0000     2.0000 </r>
       <r>   -25.3306     0.0000     2.0000 </r>
       <r>   -25.2252     0.0000     2.0000 </r>
       <r>   -25.1198     0.0000     2.0000 </r>
       <r>   -25.0145     0.0000     2.0000 </r>
       <r>   -24.9091     0.0000     2.0000 </r>
       <r>   -24.8037     0.0000     2.0000 </r>
       <r>   -24.6984     0.0000     2.0000 </r>
       <r>   -24.5930     0.0000     2.0000 </r>
       <r>   -24.4876     0.0000     2.0000 </r>
       <r>   -24.3823     0.0000     2.0000 </r>
       <r>   -24.2769     0.0000     2.0000 </r>
       <r>   -24.1715     0.0000     2.0000 </r>
       <r>   -24.0662     0.0000     2.0000 </r>
       <r>   -23.9608     0.0000     2.0000 </r>
       <r>   -23.8555     0.0000     2.0000 </r>
       <r>   -23.7501     0.0000     2.0000 </r>
       <r>   -23.6447     0.0000     2.0000 </r>
       <r>   -23.5394     0.0000     2.0000 </r>
       <r>   -23.4340     0.0000     2.0000 </r>
       <r>   -23.3286     0.0000     2.0000 </r>
       <r>   -23.2233     0.0000     2.0000 </r>
       <r>   -23.1179     0.0000     2.0000 </r>
       <r>   -23.0125     0.0000     2.0000 </r>
       <r>   -22.9072     0.0000     2.0000 </r>
       <r>   -22.8018     0.0000     2.0000 </r>
       <r>   -22.6964     0.0000     2.0000 </r>
       <r>   -22.5911     0.0000     2.0000 </r>
       <r>   -22.4857     0.0000     2.0000 </r>
       <r>   -22.3804     0.0000     2.0000 </r>
       <r>   -22.2750     0.0000     2.0000 </r>
       <r>   -22.1696     0.0000     2.0000 </r>
       <r>   -22.0643     0.0000     2.0000 </r>
       <r>   -21.9589     0.0000     2.0000 </r>
       <r>   -21.8535     0.0000     2.0000 </r>
       <r>   -21.7482     0.0000     2.0000 </r>
       <r>   -21.6428     0.0000     2.0000 </r>
       <r>   -21.5374     0.0000     2.0000 </r>
       <r>   -21.4321     0.0000     2.0000 </r>
       <r>   -21.3267     0.0000     2.0000 </r>
       <r>   -21.2213     0.0000     2.0000 </r>
       <r>   -21.1160     0.0000     2.0000 </r>
       <r>   -21.0106     0.0000     2.0000 </r>
       <r>   -20.9053     0.0000     2.0000 </r>
       <r>   -20.7999     0.0000     2.0000 </r>
       <r>   -20.6945     0.0000     2.0000 </r>
       <r>   -20.5892     0.0000     2.0000 </r>
       <r>   -20.4838     0.0000     2.0000 </r>
       <r>   -20.3784     0.0000     2.0000 </r>
       <r>   -20.2731     0.0000     2.0000 </r>
       <r>   -20.1677     0.0000     2.0000 </r>
       <r>   -20.0623     0.0000     2.0000 </r>
       <r>   -19.9570     0.0000     2.0000 </r>
       <r>   -19.8516     0.0000     2.0000 </r>
       <r>   -19.7462     0.0000     2.0000 </r>
       <r>   -19.6409     0.0000     2.0000 </r>
       <r>   -19.5355     0.0000     2.0000 </r>
       <r>   -19.4301     0.0000     2.0000 </r>
       <r>   -19.3248     0.0000     2.0000 </r>
       <r>   -19.2194     0.0000     2.0000 </r>
       <r>   -19.1141     0.0000     2.0000 </r>
       <r>   -19.0087     0.0000     2.0000 </r>
       <r>   -18.9033     0.0000     2.0000 </r>
       <r>   -18.7980     0.0000     2.0000 </r>
       <r>   -18.6926     0.0000     2.0000 </r>
       <r>   -18.5872     0.0000     2.0000 </r>
       <r>   -18.4819     0.0000     2.0000 </r>
       <r>   -18.3765     0.0000     2.0000 </r>
       <r>   -18.2711     0.0000     2.0000 </r>
       <r>   -18.1658     0.0000     2.0000 </r>
       <r>   -18.0604     0.0000     2.0000 </r>
       <r>   -17.9550     0.0000     2.0000 </r>
       <r>   -17.8497     0.0000     2.0000 </r>
       <r>   -17.7443     0.0000     2.0000 </r>
       <r>   -17.6390     0.0000     2.0000 </r>
       <r>   -17.5336     0.0000     2.0000 </r>
       <r>   -17.4282     0.0000     2.0000 </r>
       <r>   -17.3229     0.0000     2.0000 </r>
       <r>   -17.2175     0.0000     2.0000 </r>
       <r>   -17.1121     0.0000     2.0000 </r>
       <r>   -17.0068     0.0000     2.0000 </r>
       <r>   -16.9014     0.0000     2.0000 </r>
       <r>   -16.7960     0.0000     2.0000 </r>
       <r>   -16.6907     0.0000     2.0000 </r>
       <r>   -16.5853     0.0000     2.0000 </r>
       <r>   -16.4799     0.0000     2.0000 </r>
       <r>   -16.3746     0.0000     2.0000 </r>
       <r>   -16.2692     0.0000     2.0000 </r>
       <r>   -16.1639     0.0000     2.0000 </r>
       <r>   -16.0585     0.0000     2.0000 </r>
       <r>   -15.9531     0.0000     2.0000 </r>
       <r>   -15.8478     0.0000     2.0000 </r>
       <r>   -15.7424     0.0000     2.0000 </r>
       <r>   -15.6370     0.0000     2.0000 </r>
       <r>   -15.5317     0.0000     2.0000 </r>
       <r>   -15.4263     0.0000     2.0000 </r>
       <r>   -15.3209     0.0000     2.0000 </r>
       <r>   -15.2156     0.0000     2.0000 </r>
       <r>   -15.1102     0.0000     2.0000 </r>
       <r>   -15.0048     0.0000     2.0000 </r>
       <r>   -14.8995     0.0000     2.0000 </r>
       <r>   -14.7941    -0.0000     2.0000 </r>
       <r>   -14.6888    -0.0000     2.0000 </r>
       <r>   -14.5834    -0.0000     2.0000 </r>
       <r>   -14.4780    -0.0000     2.0000 </r>
       <r>   -14.3727    -0.0000     2.0000 </r>
       <r>   -14.2673    -0.0001     2.0000 </r>
       <r>   -14.1619    -0.0401     1.9958 </r>
       <r>   -14.0566    -0.6156     1.9309 </r>
       <r>   -13.9512     6.2353     2.5879 </r>
       <r>   -13.8458    13.2206     3.9808 </r>
       <r>   -13.7405     0.4172     4.0248 </r>
       <r>   -13.6351    -0.2325     4.0003 </r>
       <r>   -13.5297    -0.0029     4.0000 </r>
       <r>   -13.4244    -0.0000     4.0000 </r>
       <r>   -13.3190    -0.0000     4.0000 </r>
       <r>   -13.2137    -0.0000     4.0000 </r>
       <r>   -13.1083     0.0000     4.0000 </r>
       <r>   -13.0029     0.0000     4.0000 </r>
       <r>   -12.8976     0.0000     4.0000 </r>
       <r>   -12.7922     0.0000     4.0000 </r>
       <r>   -12.6868     0.0000     4.0000 </r>
       <r>   -12.5815     0.0000     4.0000 </r>
       <r>   -12.4761     0.0000     4.0000 </r>
       <r>   -12.3707     0.0000     4.0000 </r>
       <r>   -12.2654    -0.0000     4.0000 </r>
       <r>   -12.1600    -0.0000     4.0000 </r>
       <r>   -12.0546    -0.0000     4.0000 </r>
       <r>   -11.9493    -0.0000     4.0000 </r>
       <r>   -11.8439    -0.0000     4.0000 </r>
       <r>   -11.7386    -0.0000     4.0000 </r>
       <r>   -11.6332    -0.0106     3.9989 </r>
       <r>   -11.5278    -0.4248     3.9541 </r>
       <r>   -11.4225     2.2830     4.1947 </r>
       <r>   -11.3171    13.5754     5.6250 </r>
       <r>   -11.2117    16.7234     7.3871 </r>
       <r>   -11.1064    24.1405     9.9306 </r>
       <r>   -11.0010     1.1289    10.0496 </r>
       <r>   -10.8956    -0.4629    10.0008 </r>
       <r>   -10.7903    -0.0077    10.0000 </r>
       <r>   -10.6849    -0.0000    10.0000 </r>
       <r>   -10.5795    -0.0000    10.0000 </r>
       <r>   -10.4742    -0.0017     9.9998 </r>
       <r>   -10.3688    -0.1724     9.9817 </r>
       <r>   -10.2635    -0.0522     9.9762 </r>
       <r>   -10.1581    12.1062    11.2517 </r>
       <r>   -10.0527     7.7736    12.0708 </r>
       <r>    -9.9474    -0.6113    12.0064 </r>
       <r>    -9.8420    -0.0602    12.0000 </r>
       <r>    -9.7366    -0.0003    12.0000 </r>
       <r>    -9.6313    -0.0000    12.0000 </r>
       <r>    -9.5259    -0.0000    12.0000 </r>
       <r>    -9.4205    -0.0000    12.0000 </r>
       <r>    -9.3152    -0.0000    12.0000 </r>
       <r>    -9.2098    -0.0000    12.0000 </r>
       <r>    -9.1044    -0.0000    12.0000 </r>
       <r>    -8.9991    -0.0000    12.0000 </r>
       <r>    -8.8937    -0.0005    11.9999 </r>
       <r>    -8.7883    -0.0838    11.9911 </r>
       <r>    -8.6830    -0.5492    11.9333 </r>
       <r>    -8.5776     9.1173    12.8939 </r>
       <r>    -8.4723    10.9445    14.0470 </r>
       <r>    -8.3669    -0.7706    13.9659 </r>
       <r>    -8.2615     2.5203    14.2314 </r>
       <r>    -8.1562    14.5949    15.7692 </r>
       <r>    -8.0508     2.6453    16.0479 </r>
       <r>    -7.9454    -0.4928    15.9960 </r>
       <r>    -7.8401    -0.6341    15.9292 </r>
       <r>    -7.7347     6.8745    16.6535 </r>
       <r>    -7.6293    12.4192    17.9620 </r>
       <r>    -7.5240    11.1182    19.1335 </r>
       <r>    -7.4186    18.4201    21.0743 </r>
       <r>    -7.3132    32.1348    24.4602 </r>
       <r>    -7.2079    21.1440    26.6880 </r>
       <r>    -7.1025    22.1628    29.0232 </r>
       <r>    -6.9972    17.2839    30.8443 </r>
       <r>    -6.8918    10.2048    31.9195 </r>
       <r>    -6.7864    13.1820    33.3084 </r>
       <r>    -6.6811    35.4440    37.0430 </r>
       <r>    -6.5757    41.5189    41.4176 </r>
       <r>    -6.4703    48.6752    46.5462 </r>
       <r>    -6.3650    53.5455    52.1880 </r>
       <r>    -6.2596    49.3428    57.3870 </r>
       <r>    -6.1542    47.6039    62.4027 </r>
       <r>    -6.0489    39.2574    66.5390 </r>
       <r>    -5.9435    28.6062    69.5531 </r>
       <r>    -5.8381    24.7105    72.1567 </r>
       <r>    -5.7328    33.5485    75.6915 </r>
       <r>    -5.6274    39.3459    79.8372 </r>
       <r>    -5.5221    42.9107    84.3585 </r>
       <r>    -5.4167    62.2655    90.9190 </r>
       <r>    -5.3113    82.6380    99.6261 </r>
       <r>    -5.2060    69.9890   107.0005 </r>
       <r>    -5.1006    93.2590   116.8266 </r>
       <r>    -4.9952    80.0025   125.2561 </r>
       <r>    -4.8899    75.7499   133.2374 </r>
       <r>    -4.7845    82.3620   141.9154 </r>
       <r>    -4.6791    37.0466   145.8188 </r>
       <r>    -4.5738     4.9781   146.3433 </r>
       <r>    -4.4684    13.7961   147.7969 </r>
       <r>    -4.3630     2.1731   148.0259 </r>
       <r>    -4.2577    -0.6532   147.9571 </r>
       <r>    -4.1523    12.8480   149.3108 </r>
       <r>    -4.0470    20.9311   151.5162 </r>
       <r>    -3.9416     5.2946   152.0740 </r>
       <r>    -3.8362    -0.6674   152.0037 </r>
       <r>    -3.7309    -0.2107   151.9815 </r>
       <r>    -3.6255    -0.0420   151.9771 </r>
       <r>    -3.5201    12.1391   153.2561 </r>
       <r>    -3.4148     7.7323   154.0708 </r>
       <r>    -3.3094    -0.6158   154.0059 </r>
       <r>    -3.2040    -0.3228   153.9719 </r>
       <r>    -3.0987     0.3530   154.0091 </r>
       <r>    -2.9933    14.5192   155.5389 </r>
       <r>    -2.8879    19.5885   157.6028 </r>
       <r>    -2.7826     4.3983   158.0663 </r>
       <r>    -2.6772    -1.1016   157.9502 </r>
       <r>    -2.5719     2.9226   158.2581 </r>
       <r>    -2.4665    15.0790   159.8469 </r>
       <r>    -2.3611    15.5474   161.4851 </r>
       <r>    -2.2558     5.5426   162.0691 </r>
       <r>    -2.1504    -0.7668   161.9883 </r>
       <r>    -2.0450    -0.5760   161.9276 </r>
       <r>    -1.9397    12.2237   163.2155 </r>
       <r>    -1.8343    21.9732   165.5307 </r>
       <r>    -1.7289    10.2547   166.6112 </r>
       <r>    -1.6236    12.7466   167.9542 </r>
       <r>    -1.5182     0.1586   167.9710 </r>
       <r>    -1.4128    10.1216   169.0374 </r>
       <r>    -1.3075     9.6322   170.0523 </r>
       <r>    -1.2021    -1.0073   169.9462 </r>
       <r>    -1.0968     9.1567   170.9110 </r>
       <r>    -0.9914    13.3918   172.3220 </r>
       <r>    -0.8860    14.0433   173.8016 </r>
       <r>    -0.7807     1.7809   173.9893 </r>
       <r>    -0.6753     9.9923   175.0421 </r>
       <r>    -0.5699     9.2957   176.0216 </r>
       <r>    -0.4646     1.3441   176.1632 </r>
       <r>    -0.3592    13.8284   177.6202 </r>
       <r>    -0.2538    12.0388   178.8887 </r>
       <r>    -0.1485    11.0007   180.0477 </r>
       <r>    -0.0431    12.5713   181.3723 </r>
       <r>     0.0623     6.0493   182.0097 </r>
       <r>     0.1676     3.7627   182.4061 </r>
       <r>     0.2730    14.1620   183.8983 </r>
       <r>     0.3783     1.2974   184.0350 </r>
       <r>     0.4837    -0.3265   184.0006 </r>
       <r>     0.5891    -0.0058   184.0000 </r>
       <r>     0.6944    -0.0000   184.0000 </r>
       <r>     0.7998    -0.0000   184.0000 </r>
       <r>     0.9052    -0.0000   184.0000 </r>
       <r>     1.0105     0.0000   184.0000 </r>
       <r>     1.1159     0.0000   184.0000 </r>
       <r>     1.2213     0.0000   184.0000 </r>
       <r>     1.3266     0.0000   184.0000 </r>
       <r>     1.4320     0.0000   184.0000 </r>
       <r>     1.5374     0.0000   184.0000 </r>
       <r>     1.6427     0.0000   184.0000 </r>
      </set>
      <set comment="spin 2">
       <r>   -29.9666     0.0000     0.0000 </r>
       <r>   -29.8612     0.0000     0.0000 </r>
       <r>   -29.7559     0.0000     0.0000 </r>
       <r>   -29.6505     0.0000     0.0000 </r>
       <r>   -29.5451     0.0000     0.0000 </r>
       <r>   -29.4398     0.0000     0.0000 </r>
       <r>   -29.3344    -0.0000    -0.0000 </r>
       <r>   -29.2290    -0.0000    -0.0000 </r>
       <r>   -29.1237    -0.0000    -0.0000 </r>
       <r>   -29.0183    -0.0000    -0.0000 </r>
       <r>   -28.9129    -0.0000    -0.0000 </r>
       <r>   -28.8076    -0.0024    -0.0003 </r>
       <r>   -28.7022    -0.2107    -0.0225 </r>
       <r>   -28.5968     0.2372     0.0025 </r>
       <r>   -28.4915    12.8703     1.3586 </r>
       <r>   -28.3861     6.7545     2.0703 </r>
       <r>   -28.2808    -0.6208     2.0049 </r>
       <r>   -28.1754    -0.0462     2.0000 </r>
       <r>   -28.0700    -0.0002     2.0000 </r>
       <r>   -27.9647    -0.0000     2.0000 </r>
       <r>   -27.8593    -0.0000     2.0000 </r>
       <r>   -27.7539     0.0000     2.0000 </r>
       <r>   -27.6486     0.0000     2.0000 </r>
       <r>   -27.5432     0.0000     2.0000 </r>
       <r>   -27.4378     0.0000     2.0000 </r>
       <r>   -27.3325     0.0000     2.0000 </r>
       <r>   -27.2271     0.0000     2.0000 </r>
       <r>   -27.1217     0.0000     2.0000 </r>
       <r>   -27.0164     0.0000     2.0000 </r>
       <r>   -26.9110     0.0000     2.0000 </r>
       <r>   -26.8057     0.0000     2.0000 </r>
       <r>   -26.7003     0.0000     2.0000 </r>
       <r>   -26.5949     0.0000     2.0000 </r>
       <r>   -26.4896     0.0000     2.0000 </r>
       <r>   -26.3842     0.0000     2.0000 </r>
       <r>   -26.2788     0.0000     2.0000 </r>
       <r>   -26.1735     0.0000     2.0000 </r>
       <r>   -26.0681     0.0000     2.0000 </r>
       <r>   -25.9627     0.0000     2.0000 </r>
       <r>   -25.8574     0.0000     2.0000 </r>
       <r>   -25.7520     0.0000     2.0000 </r>
       <r>   -25.6466     0.0000     2.0000 </r>
       <r>   -25.5413     0.0000     2.0000 </r>
       <r>   -25.4359     0.0000     2.0000 </r>
       <r>   -25.3306     0.0000     2.0000 </r>
       <r>   -25.2252     0.0000     2.0000 </r>
       <r>   -25.1198     0.0000     2.0000 </r>
       <r>   -25.0145     0.0000     2.0000 </r>
       <r>   -24.9091     0.0000     2.0000 </r>
       <r>   -24.8037     0.0000     2.0000 </r>
       <r>   -24.6984     0.0000     2.0000 </r>
       <r>   -24.5930     0.0000     2.0000 </r>
       <r>   -24.4876     0.0000     2.0000 </r>
       <r>   -24.3823     0.0000     2.0000 </r>
       <r>   -24.2769     0.0000     2.0000 </r>
       <r>   -24.1715     0.0000     2.0000 </r>
       <r>   -24.0662     0.0000     2.0000 </r>
       <r>   -23.9608     0.0000     2.0000 </r>
       <r>   -23.8555     0.0000     2.0000 </r>
       <r>   -23.7501     0.0000     2.0000 </r>
       <r>   -23.6447     0.0000     2.0000 </r>
       <r>   -23.5394     0.0000     2.0000 </r>
       <r>   -23.4340     0.0000     2.0000 </r>
       <r>   -23.3286     0.0000     2.0000 </r>
       <r>   -23.2233     0.0000     2.0000 </r>
       <r>   -23.1179     0.0000     2.0000 </r>
       <r>   -23.0125     0.0000     2.0000 </r>
       <r>   -22.9072     0.0000     2.0000 </r>
       <r>   -22.8018     0.0000     2.0000 </r>
       <r>   -22.6964     0.0000     2.0000 </r>
       <r>   -22.5911     0.0000     2.0000 </r>
       <r>   -22.4857     0.0000     2.0000 </r>
       <r>   -22.3804     0.0000     2.0000 </r>
       <r>   -22.2750     0.0000     2.0000 </r>
       <r>   -22.1696     0.0000     2.0000 </r>
       <r>   -22.0643     0.0000     2.0000 </r>
       <r>   -21.9589     0.0000     2.0000 </r>
       <r>   -21.8535     0.0000     2.0000 </r>
       <r>   -21.7482     0.0000     2.0000 </r>
       <r>   -21.6428     0.0000     2.0000 </r>
       <r>   -21.5374     0.0000     2.0000 </r>
       <r>   -21.4321     0.0000     2.0000 </r>
       <r>   -21.3267     0.0000     2.0000 </r>
       <r>   -21.2213     0.0000     2.0000 </r>
       <r>   -21.1160     0.0000     2.0000 </r>
       <r>   -21.0106     0.0000     2.0000 </r>
       <r>   -20.9053     0.0000     2.0000 </r>
       <r>   -20.7999     0.0000     2.0000 </r>
       <r>   -20.6945     0.0000     2.0000 </r>
       <r>   -20.5892     0.0000     2.0000 </r>
       <r>   -20.4838     0.0000     2.0000 </r>
       <r>   -20.3784     0.0000     2.0000 </r>
       <r>   -20.2731     0.0000     2.0000 </r>
       <r>   -20.1677     0.0000     2.0000 </r>
       <r>   -20.0623     0.0000     2.0000 </r>
       <r>   -19.9570     0.0000     2.0000 </r>
       <r>   -19.8516     0.0000     2.0000 </r>
       <r>   -19.7462     0.0000     2.0000 </r>
       <r>   -19.6409     0.0000     2.0000 </r>
       <r>   -19.5355     0.0000     2.0000 </r>
       <r>   -19.4301     0.0000     2.0000 </r>
       <r>   -19.3248     0.0000     2.0000 </r>
       <r>   -19.2194     0.0000     2.0000 </r>
       <r>   -19.1141     0.0000     2.0000 </r>
       <r>   -19.0087     0.0000     2.0000 </r>
       <r>   -18.9033     0.0000     2.0000 </r>
       <r>   -18.7980     0.0000     2.0000 </r>
       <r>   -18.6926     0.0000     2.0000 </r>
       <r>   -18.5872     0.0000     2.0000 </r>
       <r>   -18.4819     0.0000     2.0000 </r>
       <r>   -18.3765     0.0000     2.0000 </r>
       <r>   -18.2711     0.0000     2.0000 </r>
       <r>   -18.1658     0.0000     2.0000 </r>
       <r>   -18.0604     0.0000     2.0000 </r>
       <r>   -17.9550     0.0000     2.0000 </r>
       <r>   -17.8497     0.0000     2.0000 </r>
       <r>   -17.7443     0.0000     2.0000 </r>
       <r>   -17.6390     0.0000     2.0000 </r>
       <r>   -17.5336     0.0000     2.0000 </r>
       <r>   -17.4282     0.0000     2.0000 </r>
       <r>   -17.3229     0.0000     2.0000 </r>
       <r>   -17.2175     0.0000     2.0000 </r>
       <r>   -17.1121     0.0000     2.0000 </r>
       <r>   -17.0068     0.0000     2.0000 </r>
       <r>   -16.9014     0.0000     2.0000 </r>
       <r>   -16.7960     0.0000     2.0000 </r>
       <r>   -16.6907     0.0000     2.0000 </r>
       <r>   -16.5853     0.0000     2.0000 </r>
       <r>   -16.4799     0.0000     2.0000 </r>
       <r>   -16.3746     0.0000     2.0000 </r>
       <r>   -16.2692     0.0000     2.0000 </r>
       <r>   -16.1639     0.0000     2.0000 </r>
       <r>   -16.0585     0.0000     2.0000 </r>
       <r>   -15.9531     0.0000     2.0000 </r>
       <r>   -15.8478     0.0000     2.0000 </r>
       <r>   -15.7424     0.0000     2.0000 </r>
       <r>   -15.6370     0.0000     2.0000 </r>
       <r>   -15.5317     0.0000     2.0000 </r>
       <r>   -15.4263     0.0000     2.0000 </r>
       <r>   -15.3209     0.0000     2.0000 </r>
       <r>   -15.2156     0.0000     2.0000 </r>
       <r>   -15.1102     0.0000     2.0000 </r>
       <r>   -15.0048     0.0000     2.0000 </r>
       <r>   -14.8995     0.0000     2.0000 </r>
       <r>   -14.7941    -0.0000     2.0000 </r>
       <r>   -14.6888    -0.0000     2.0000 </r>
       <r>   -14.5834    -0.0000     2.0000 </r>
       <r>   -14.4780    -0.0000     2.0000 </r>
       <r>   -14.3727    -0.0000     2.0000 </r>
       <r>   -14.2673    -0.0000     2.0000 </r>
       <r>   -14.1619    -0.0088     1.9991 </r>
       <r>   -14.0566    -0.3929     1.9577 </r>
       <r>   -13.9512     2.0256     2.1711 </r>
       <r>   -13.8458    14.5255     3.7016 </r>
       <r>   -13.7405     3.3407     4.0535 </r>
       <r>   -13.6351    -0.4925     4.0017 </r>
       <r>   -13.5297    -0.0157     4.0000 </r>
       <r>   -13.4244    -0.0000     4.0000 </r>
       <r>   -13.3190    -0.0000     4.0000 </r>
       <r>   -13.2137    -0.0000     4.0000 </r>
       <r>   -13.1083     0.0000     4.0000 </r>
       <r>   -13.0029     0.0000     4.0000 </r>
       <r>   -12.8976     0.0000     4.0000 </r>
       <r>   -12.7922     0.0000     4.0000 </r>
       <r>   -12.6868     0.0000     4.0000 </r>
       <r>   -12.5815     0.0000     4.0000 </r>
       <r>   -12.4761     0.0000     4.0000 </r>
       <r>   -12.3707     0.0000     4.0000 </r>
       <r>   -12.2654     0.0000     4.0000 </r>
       <r>   -12.1600    -0.0000     4.0000 </r>
       <r>   -12.0546    -0.0000     4.0000 </r>
       <r>   -11.9493    -0.0000     4.0000 </r>
       <r>   -11.8439    -0.0000     4.0000 </r>
       <r>   -11.7386    -0.0000     4.0000 </r>
       <r>   -11.6332    -0.0032     3.9997 </r>
       <r>   -11.5278    -0.2449     3.9739 </r>
       <r>   -11.4225     0.4926     4.0258 </r>
       <r>   -11.3171    12.5480     5.3479 </r>
       <r>   -11.2117    11.5624     6.5661 </r>
       <r>   -11.1064    27.1401     9.4257 </r>
       <r>   -11.0010     6.3827    10.0982 </r>
       <r>   -10.8956    -0.8961    10.0038 </r>
       <r>   -10.7903    -0.0362    10.0000 </r>
       <r>   -10.6849    -0.0001    10.0000 </r>
       <r>   -10.5795    -0.0000    10.0000 </r>
       <r>   -10.4742    -0.0001    10.0000 </r>
       <r>   -10.3688    -0.0369     9.9961 </r>
       <r>   -10.2635    -0.6101     9.9318 </r>
       <r>   -10.1581     5.9407    10.5578 </r>
       <r>   -10.0527    13.4065    11.9703 </r>
       <r>    -9.9474     0.5307    12.0262 </r>
       <r>    -9.8420    -0.2457    12.0003 </r>
       <r>    -9.7366    -0.0033    12.0000 </r>
       <r>    -9.6313    -0.0000    12.0000 </r>
       <r>    -9.5259    -0.0000    12.0000 </r>
       <r>    -9.4205    -0.0000    12.0000 </r>
       <r>    -9.3152    -0.0000    12.0000 </r>
       <r>    -9.2098    -0.0000    12.0000 </r>
       <r>    -9.1044    -0.0000    12.0000 </r>
       <r>    -8.9991    -0.0000    12.0000 </r>
       <r>    -8.8937    -0.0001    12.0000 </r>
       <r>    -8.7883    -0.0349    11.9963 </r>
       <r>    -8.6830    -0.6055    11.9325 </r>
       <r>    -8.5776     5.7478    12.5381 </r>
       <r>    -8.4723    13.5220    13.9629 </r>
       <r>    -8.3669     0.4878    14.0143 </r>
       <r>    -8.2615    -0.6283    13.9481 </r>
       <r>    -8.1562    10.6816    15.0735 </r>
       <r>    -8.0508     9.4097    16.0650 </r>
       <r>    -7.9454    -0.5337    16.0087 </r>
       <r>    -7.8401    -0.4559    15.9607 </r>
       <r>    -7.7347     1.6366    16.1332 </r>
       <r>    -7.6293    13.8169    17.5890 </r>
       <r>    -7.5240    11.7902    18.8312 </r>
       <r>    -7.4186    15.6905    20.4845 </r>
       <r>    -7.3132    24.3073    23.0456 </r>
       <r>    -7.2079    28.6142    26.0605 </r>
       <r>    -7.1025    22.5655    28.4381 </r>
       <r>    -6.9972    17.8079    30.3144 </r>
       <r>    -6.8918    13.6232    31.7498 </r>
       <r>    -6.7864     8.6541    32.6616 </r>
       <r>    -6.6811    30.7170    35.8981 </r>
       <r>    -6.5757    42.8687    40.4150 </r>
       <r>    -6.4703    45.8891    45.2500 </r>
       <r>    -6.3650    52.7960    50.8129 </r>
       <r>    -6.2596    50.9107    56.1770 </r>
       <r>    -6.1542    48.2131    61.2570 </r>
       <r>    -6.0489    41.9061    65.6724 </r>
       <r>    -5.9435    31.1306    68.9524 </r>
       <r>    -5.8381    23.0685    71.3830 </r>
       <r>    -5.7328    32.8400    74.8432 </r>
       <r>    -5.6274    38.0863    78.8561 </r>
       <r>    -5.5221    40.1652    83.0881 </r>
       <r>    -5.4167    55.1412    88.8980 </r>
       <r>    -5.3113    81.4468    97.4796 </r>
       <r>    -5.2060    71.8405   105.0490 </r>
       <r>    -5.1006    90.6611   114.6015 </r>
       <r>    -4.9952    84.8551   123.5422 </r>
       <r>    -4.8899    69.0318   130.8157 </r>
       <r>    -4.7845    83.3255   139.5952 </r>
       <r>    -4.6791    53.7926   145.2631 </r>
       <r>    -4.5738     8.0215   146.1082 </r>
       <r>    -4.4684    10.5928   147.2243 </r>
       <r>    -4.3630     8.0161   148.0689 </r>
       <r>    -4.2577    -1.1360   147.9493 </r>
       <r>    -4.1523     2.2306   148.1843 </r>
       <r>    -4.0470    23.1764   150.6263 </r>
       <r>    -3.9416    13.8536   152.0859 </r>
       <r>    -3.8362    -0.6579   152.0166 </r>
       <r>    -3.7309    -0.1564   152.0001 </r>
       <r>    -3.6255    -0.0031   151.9998 </r>
       <r>    -3.5201    -0.1803   151.9808 </r>
       <r>    -3.4148     0.0047   151.9813 </r>
       <r>    -3.3094    12.2818   153.2754 </r>
       <r>    -3.2040     7.5059   154.0662 </r>
       <r>    -3.0987    -1.2906   153.9302 </r>
       <r>    -2.9933     5.9036   154.5523 </r>
       <r>    -2.8879    20.4134   156.7031 </r>
       <r>    -2.7826    12.6762   158.0387 </r>
       <r>    -2.6772    -0.2743   158.0098 </r>
       <r>    -2.5719    -0.6994   157.9362 </r>
       <r>    -2.4665     9.2774   158.9137 </r>
       <r>    -2.3611    12.2992   160.2096 </r>
       <r>    -2.2558    14.0664   161.6917 </r>
       <r>    -2.1504     3.4057   162.0505 </r>
       <r>    -2.0450    -1.1396   161.9304 </r>
       <r>    -1.9397     6.2451   162.5884 </r>
       <r>    -1.8343    15.2576   164.1961 </r>
       <r>    -1.7289    14.8900   165.7649 </r>
       <r>    -1.6236    14.9366   167.3387 </r>
       <r>    -1.5182     6.8210   168.0574 </r>
       <r>    -1.4128    -0.9013   167.9624 </r>
       <r>    -1.3075    11.1911   169.1416 </r>
       <r>    -1.2021     8.7733   170.0660 </r>
       <r>    -1.0968    -1.1694   169.9428 </r>
       <r>    -0.9914     3.5269   170.3144 </r>
       <r>    -0.8860    21.6360   172.5940 </r>
       <r>    -0.7807    13.4871   174.0151 </r>
       <r>    -0.6753     1.0417   174.1249 </r>
       <r>    -0.5699    14.0276   175.6029 </r>
       <r>    -0.4646     4.0089   176.0253 </r>
       <r>    -0.3592     0.2973   176.0566 </r>
       <r>    -0.2538    16.0031   177.7427 </r>
       <r>    -0.1485    18.3633   179.6776 </r>
       <r>    -0.0431     8.8083   180.6056 </r>
       <r>     0.0623    15.0455   182.1909 </r>
       <r>     0.1676    14.9627   183.7674 </r>
       <r>     0.2730     2.6864   184.0505 </r>
       <r>     0.3783    -0.4660   184.0014 </r>
       <r>     0.4837    -0.0132   184.0000 </r>
       <r>     0.5891    -0.0000   184.0000 </r>
       <r>     0.6944    -0.0000   184.0000 </r>
       <r>     0.7998    -0.0000   184.0000 </r>
       <r>     0.9052     0.0000   184.0000 </r>
       <r>     1.0105     0.0000   184.0000 </r>
       <r>     1.1159     0.0000   184.0000 </r>
       <r>     1.2213     0.0000   184.0000 </r>
       <r>     1.3266     0.0000   184.0000 </r>
       <r>     1.4320     0.0000   184.0000 </r>
       <r>     1.5374     0.0000   184.0000 </r>
       <r>     1.6427     0.0000   184.0000 </r>
      </set>
     </set>
    </array>
   </total>
  </dos>
 </calculation>
 <structure name="finalpos" >
  <crystal>
   <varray name="basis" >
    <v>      15.00000000       0.00000000       0.00000000 </v>
    <v>       0.00000000      15.00000000       0.00000000 </v>
    <v>       0.00000000       0.00000000      15.00000000 </v>
   </varray>
   <i name="volume">   3375.00000000 </i>
   <varray name="rec_basis" >
    <v>       0.06666667       0.00000000       0.00000000 </v>
    <v>       0.00000000       0.06666667       0.00000000 </v>
    <v>       0.00000000       0.00000000       0.06666667 </v>
   </varray>
  </crystal>
  <varray name="positions" >
   <v>       0.29297467       0.41814467       0.55840800 </v>
   <v>       0.37691133       0.54463800       0.49590600 </v>
   <v>       0.39471533       0.29318533       0.55845067 </v>
   <v>       0.53563067       0.50348067       0.48223933 </v>
   <v>       0.54599867       0.34699733       0.53386400 </v>
   <v>       0.44535667       0.44028467       0.61264000 </v>
   <v>       0.41511267       0.39764933       0.44129867 </v>
   <v>       0.22289000       0.56510000       0.54903333 </v>
   <v>       0.33181067       0.54619467       0.66110867 </v>
   <v>       0.35449733       0.68384667       0.56868200 </v>
   <v>       0.48299333       0.66284933       0.47326133 </v>
   <v>       0.63182133       0.48855533       0.60095800 </v>
   <v>       0.48554467       0.59369867       0.61633867 </v>
   <v>       0.74280667       0.49630400       0.64374333 </v>
   <v>       0.81742000       0.49979467       0.66251933 </v>
  </varray>
 </structure>
</modeling>
