 vasp.5.4.4.18Apr17-6-g9f103f2a35 (build May 08 2019 13:49:07) complex          
  
 executed on             LinuxIFC date 2019.11.13  11:03:54
 running on   24 total cores
 distrk:  each k-point on   24 cores,    1 groups
 distr:  one band on NCORES_PER_BAND=   6 cores,    4 groups


--------------------------------------------------------------------------------------------------------


 INCAR:
 POTCAR:    PAW_PBE Cu 22Jun2005                  
 POTCAR:    PAW_PBE C 08Apr2002                   
 POTCAR:    PAW_PBE O 08Apr2002                   
 POTCAR:    PAW_PBE Cu 22Jun2005                  
   VRHFIN =Cu: d10 p1                                                           
   LEXCH  = PE                                                                  
   EATOM  =  1390.9808 eV,  102.2342 Ry                                         
                                                                                
   TITEL  = PAW_PBE Cu 22Jun2005                                                
   LULTRA =        F    use ultrasoft PP ?                                      
   IUNSCR =        1    unscreen: 0-lin 1-nonlin 2-no                           
   RPACOR =    2.000    partial core radius                                     
   POMASS =   63.546; ZVAL   =   11.000    mass and valenz                      
   RCORE  =    2.300    outmost cutoff radius                                   
   RWIGS  =    2.200; RWIGS  =    1.164    wigner-seitz radius (au A)           
   ENMAX  =  295.446; ENMIN  =  221.585 eV                                      
   ICORE  =        3    local potential                                         
   LCOR   =        T    correct aug charges                                     
   LPAW   =        T    paw PP                                                  
   EAUG   =  586.980                                                            
   DEXC   =    0.000                                                            
   RMAX   =    2.344    core radius for proj-oper                               
   RAUG   =    1.300    factor for augmentation sphere                          
   RDEP   =    2.302    radius for radial grids                                 
   RDEPT  =    1.771    core radius for aug-charge                              
                                                                                
   Atomic configuration                                                         
    9 entries                                                                   
     n  l   j            E        occ.                                          
     1  0  0.50     -8850.2468   2.0000                                         
     2  0  0.50     -1062.3498   2.0000                                         
     2  1  1.50      -916.8226   6.0000                                         
     3  0  0.50      -114.6929   2.0000                                         
     3  1  1.50       -72.1325   6.0000                                         
     3  2  2.50        -5.0394  10.0000                                         
     4  0  0.50        -4.6097   1.0000                                         
     4  1  0.50        -4.0817   0.0000                                         
     4  3  2.50        -1.3606   0.0000                                         
   Description                                                                  
     l       E           TYP  RCUT    TYP  RCUT                                 
     2     -5.0393973     23  2.200                                             
     2     10.8846608     23  2.200                                             
     0     -4.6097109     23  2.200                                             
     0      8.2520465     23  2.200                                             
     1     -2.7211652     23  2.200                                             
     1     21.7055443     23  2.200                                             
     3      2.7211652     23  2.300                                             
  local pseudopotential read in
  partial core-charges read in
  partial kinetic energy density read in
  atomic valenz-charges read in
  non local Contribution for L=           2  read in
    real space projection operators read in
  non local Contribution for L=           2  read in
    real space projection operators read in
  non local Contribution for L=           0  read in
    real space projection operators read in
  non local Contribution for L=           0  read in
    real space projection operators read in
  non local Contribution for L=           1  read in
    real space projection operators read in
  non local Contribution for L=           1  read in
    real space projection operators read in
    PAW grid and wavefunctions read in
 
   number of l-projection  operators is LMAX  =           6
   number of lm-projection operators is LMMAX =          18
 
 POTCAR:    PAW_PBE C 08Apr2002                   
   VRHFIN =C: s2p2                                                              
   LEXCH  = PE                                                                  
   EATOM  =   147.1560 eV,   10.8157 Ry                                         
                                                                                
   TITEL  = PAW_PBE C 08Apr2002                                                 
   LULTRA =        F    use ultrasoft PP ?                                      
   IUNSCR =        1    unscreen: 0-lin 1-nonlin 2-no                           
   RPACOR =    1.200    partial core radius                                     
   POMASS =   12.011; ZVAL   =    4.000    mass and valenz                      
   RCORE  =    1.500    outmost cutoff radius                                   
   RWIGS  =    1.630; RWIGS  =    0.863    wigner-seitz radius (au A)           
   ENMAX  =  400.000; ENMIN  =  300.000 eV                                      
   ICORE  =        2    local potential                                         
   LCOR   =        T    correct aug charges                                     
   LPAW   =        T    paw PP                                                  
   EAUG   =  644.873                                                            
   DEXC   =    0.000                                                            
   RMAX   =    1.529    core radius for proj-oper                               
   RAUG   =    1.300    factor for augmentation sphere                          
   RDEP   =    1.501    radius for radial grids                                 
   RDEPT  =    1.300    core radius for aug-charge                              
                                                                                
   Atomic configuration                                                         
    4 entries                                                                   
     n  l   j            E        occ.                                          
     1  0  0.50      -273.3789   2.0000                                         
     2  0  0.50       -13.7508   2.0000                                         
     2  1  0.50        -5.2854   2.0000                                         
     3  2  1.50        -5.4423   0.0000                                         
   Description                                                                  
     l       E           TYP  RCUT    TYP  RCUT                                 
     0    -13.7508458     23  1.200                                             
     0     -8.2022199     23  1.200                                             
     1     -5.2854383     23  1.500                                             
     1     34.0145650     23  1.500                                             
     2     -5.4423304      7  1.500                                             
  local pseudopotential read in
  partial core-charges read in
  partial kinetic energy density read in
  atomic valenz-charges read in
  non local Contribution for L=           0  read in
    real space projection operators read in
  non local Contribution for L=           0  read in
    real space projection operators read in
  non local Contribution for L=           1  read in
    real space projection operators read in
  non local Contribution for L=           1  read in
    real space projection operators read in
    PAW grid and wavefunctions read in
 
   number of l-projection  operators is LMAX  =           4
   number of lm-projection operators is LMMAX =           8
 
 POTCAR:    PAW_PBE O 08Apr2002                   
   VRHFIN =O: s2p4                                                              
   LEXCH  = PE                                                                  
   EATOM  =   432.3788 eV,   31.7789 Ry                                         
                                                                                
   TITEL  = PAW_PBE O 08Apr2002                                                 
   LULTRA =        F    use ultrasoft PP ?                                      
   IUNSCR =        1    unscreen: 0-lin 1-nonlin 2-no                           
   RPACOR =    1.200    partial core radius                                     
   POMASS =   16.000; ZVAL   =    6.000    mass and valenz                      
   RCORE  =    1.520    outmost cutoff radius                                   
   RWIGS  =    1.550; RWIGS  =    0.820    wigner-seitz radius (au A)           
   ENMAX  =  400.000; ENMIN  =  300.000 eV                                      
   ICORE  =        2    local potential                                         
   LCOR   =        T    correct aug charges                                     
   LPAW   =        T    paw PP                                                  
   EAUG   =  605.392                                                            
   DEXC   =    0.000                                                            
   RMAX   =    1.553    core radius for proj-oper                               
   RAUG   =    1.300    factor for augmentation sphere                          
   RDEP   =    1.550    radius for radial grids                                 
   RDEPT  =    1.329    core radius for aug-charge                              
                                                                                
   Atomic configuration                                                         
    4 entries                                                                   
     n  l   j            E        occ.                                          
     1  0  0.50      -514.6923   2.0000                                         
     2  0  0.50       -23.9615   2.0000                                         
     2  1  0.50        -9.0305   4.0000                                         
     3  2  1.50        -9.5241   0.0000                                         
   Description                                                                  
     l       E           TYP  RCUT    TYP  RCUT                                 
     0    -23.9615318     23  1.200                                             
     0     -9.5240782     23  1.200                                             
     1     -9.0304911     23  1.520                                             
     1      8.1634956     23  1.520                                             
     2     -9.5240782      7  1.500                                             
  local pseudopotential read in
  partial core-charges read in
  partial kinetic energy density read in
  kinetic energy density of atom read in
  atomic valenz-charges read in
  non local Contribution for L=           0  read in
    real space projection operators read in
  non local Contribution for L=           0  read in
    real space projection operators read in
  non local Contribution for L=           1  read in
    real space projection operators read in
  non local Contribution for L=           1  read in
    real space projection operators read in
    PAW grid and wavefunctions read in
 
   number of l-projection  operators is LMAX  =           4
   number of lm-projection operators is LMMAX =           8
 
  PAW_PBE Cu 22Jun2005                  :
 energy of atom  1       EATOM=-1390.9808
 kinetic energy error for atom=    0.0033 (will be added to EATOM!!)
  PAW_PBE C 08Apr2002                   :
 energy of atom  2       EATOM= -147.1560
 kinetic energy error for atom=    0.0057 (will be added to EATOM!!)
  PAW_PBE O 08Apr2002                   :
 energy of atom  3       EATOM= -432.3788
 kinetic energy error for atom=    0.0168 (will be added to EATOM!!)
 
 
 POSCAR: Cu13 C1 O1                              
  positions in cartesian coordinates
  No initial velocities read in
 exchange correlation table for  LEXCH =        8
   RHO(1)=    0.500       N(1)  =     2000
   RHO(2)=  100.500       N(2)  =     4000
 


--------------------------------------------------------------------------------------------------------


 ion  position               nearest neighbor table
   1  0.298  0.426  0.553-   9 2.40   7 2.41   2 2.43   8 2.44   6 2.45   3 2.55
   2  0.378  0.551  0.488-  10 2.35   7 2.43   1 2.43   4 2.44  11 2.44   8 2.45   9 2.59  13 2.61
                             6 2.70
   3  0.403  0.293  0.570-   6 2.32   7 2.48   5 2.52   1 2.55
   4  0.535  0.509  0.485-  11 2.37  12 2.39   2 2.44   6 2.44   5 2.47  13 2.49   7 2.53
   5  0.553  0.349  0.520-   6 2.35   4 2.47   7 2.49   3 2.52  12 2.53
   6  0.452  0.436  0.604-   3 2.32   5 2.35  13 2.43   4 2.44  12 2.45   1 2.45   9 2.49   7 2.52
                             2 2.70
   7  0.413  0.399  0.445-   1 2.41   2 2.43   3 2.48   5 2.49   6 2.52   4 2.53
   8  0.224  0.570  0.540-   1 2.44   9 2.45   2 2.45  10 2.47
   9  0.336  0.543  0.655-   1 2.40  13 2.41   8 2.45  10 2.48   6 2.49   2 2.59
  10  0.341  0.682  0.567-   2 2.35   8 2.47   9 2.48  13 2.64  11 2.66
  11  0.496  0.662  0.483-  13 2.29   4 2.37   2 2.44  10 2.66
  12  0.611  0.472  0.620-  14 1.82   4 2.39   6 2.45   5 2.53  13 2.63
  13  0.485  0.594  0.619-  11 2.29   9 2.41   6 2.43   4 2.49   2 2.61  12 2.63  10 2.64
  14  0.724  0.488  0.661-  15 1.16  12 1.82
  15  0.799  0.506  0.658-  14 1.16
 

IMPORTANT INFORMATION: All symmetrisations will be switched off!
NOSYMM: (Re-)initialisation of all symmetry stuff for point group C_1.

 
 

Automatic generation of k-mesh.
 generate k-points for:    1    1    1
Space group operators:
 irot       det(A)        alpha          n_x          n_y          n_z        tau_x        tau_y        tau_z
    1     1.000000     0.000000     1.000000     0.000000     0.000000     0.000000     0.000000     0.000000
 
 Subroutine IBZKPT returns following result:
 ===========================================
 
 Found      1 irreducible k-points:
 
 Following reciprocal coordinates:
            Coordinates               Weight
  0.000000  0.000000  0.000000      1.000000
 
 Following cartesian coordinates:
            Coordinates               Weight
  0.000000  0.000000  0.000000      1.000000
 


--------------------------------------------------------------------------------------------------------




 Dimension of arrays:
   k-points           NKPTS =      1   k-points in BZ     NKDIM =      1   number of bands    NBANDS=     92
   number of dos      NEDOS =    301   number of ions     NIONS =     15
   non local maximal  LDIM  =      6   non local SUM 2l+1 LMDIM =     18
   total plane-waves  NPLWV = ******
   max r-space proj   IRMAX =      1   max aug-charges    IRDMAX=  15028
   dimension x,y,z NGX =   120 NGY =  120 NGZ =  120
   dimension x,y,z NGXF=   240 NGYF=  240 NGZF=  240
   support grid    NGXF=   240 NGYF=  240 NGZF=  240
   ions per type =              13   1   1
   NGX,Y,Z   is equivalent  to a cutoff of  13.30, 13.30, 13.30 a.u.
   NGXF,Y,Z  is equivalent  to a cutoff of  26.60, 26.60, 26.60 a.u.

 SYSTEM =  CuCO                                    
 POSCAR =  Cu13 C1 O1                              

 Startparameter for this run:
   NWRITE =      2    write-flag & timer
   PREC   = accura    normal or accurate (medium, high low for compatibility)
   ISTART =      0    job   : 0-new  1-cont  2-samecut
   ICHARG =      2    charge: 1-file 2-atom 10-const
   ISPIN  =      2    spin polarized calculation?
   LNONCOLLINEAR =      F non collinear calculations
   LSORBIT =      F    spin-orbit coupling
   INIWAV =      1    electr: 0-lowe 1-rand  2-diag
   LASPH  =      F    aspherical Exc in radial PAW
   METAGGA=      F    non-selfconsistent MetaGGA calc.

 Electronic Relaxation 1
   ENCUT  =  600.0 eV  44.10 Ry    6.64 a.u.  29.96 29.96 29.96*2*pi/ulx,y,z
   ENINI  =  600.0     initial cutoff
   ENAUG  =  644.9 eV  augmentation charge cutoff
   NELM   =    300;   NELMIN=  3; NELMDL= -5     # of ELM steps 
   EDIFF  = 0.1E-06   stopping-criterion for ELM
   LREAL  =      F    real-space projection
   NLSPLINE    = F    spline interpolate recip. space projectors
   LCOMPAT=      F    compatible to vasp.4.4
   GGA_COMPAT  = T    GGA compatible to vasp.4.4-vasp.4.6
   LMAXPAW     = -100 max onsite density
   LMAXMIX     =    2 max onsite mixed and CHGCAR
   VOSKOWN=      0    Vosko Wilk Nusair interpolation
   ROPT   =    0.00000   0.00000   0.00000
 Ionic relaxation
   EDIFFG = -.1E-02   stopping-criterion for IOM
   NSW    =      0    number of steps for IOM
   NBLOCK =      1;   KBLOCK =      1    inner block; outer block 
   IBRION =     -1    ionic relax: 0-MD 1-quasi-New 2-CG
   NFREE  =      0    steps in history (QN), initial steepest desc. (CG)
   ISIF   =      2    stress and relaxation
   IWAVPR =     10    prediction:  0-non 1-charg 2-wave 3-comb
   ISYM   =      0    0-nonsym 1-usesym 2-fastsym
   LCORR  =      T    Harris-Foulkes like correction to forces

   POTIM  = 0.5000    time-step for ionic-motion
   TEIN   =    0.0    initial temperature
   TEBEG  =    0.0;   TEEND  =   0.0 temperature during run
   SMASS  =  -3.00    Nose mass-parameter (am)
   estimated Nose-frequenzy (Omega)   =  0.10E-29 period in steps =****** mass=  -0.514E-26a.u.
   SCALEE = 1.0000    scale energy and forces
   NPACO  =    256;   APACO  = 16.0  distance and # of slots for P.C.
   PSTRESS=    0.0 pullay stress

  Mass of Ions in am
   POMASS =  63.55 12.01 16.00
  Ionic Valenz
   ZVAL   =  11.00  4.00  6.00
  Atomic Wigner-Seitz radii
   RWIGS  =  -1.00 -1.00 -1.00
  virtual crystal weights 
   VCA    =   1.00  1.00  1.00
   NELECT =     153.0000    total number of electrons
   NUPDOWN=       1.0000    fix difference up-down

 DOS related values:
   EMIN   =  10.00;   EMAX   =-10.00  energy-range for DOS
   EFERMI =   0.00
   ISMEAR =     1;   SIGMA  =   0.10  broadening in eV -4-tet -1-fermi 0-gaus

 Electronic relaxation 2 (details)
   IALGO  =     68    algorithm
   LDIAG  =      T    sub-space diagonalisation (order eigenvalues)
   LSUBROT=      F    optimize rotation matrix (better conditioning)
   TURBO    =      0    0=normal 1=particle mesh
   IRESTART =      0    0=no restart 2=restart with 2 vectors
   NREBOOT  =      0    no. of reboots
   NMIN     =      0    reboot dimension
   EREF     =   0.00    reference energy to select bands
   IMIX   =      4    mixing-type and parameters
     AMIX     =   0.40;   BMIX     =  1.00
     AMIX_MAG =   1.60;   BMIX_MAG =  1.00
     AMIN     =   0.10
     WC   =   100.;   INIMIX=   1;  MIXPRE=   1;  MAXMIX= -45

 Intra band minimization:
   WEIMIN = 0.0000     energy-eigenvalue tresh-hold
   EBREAK =  0.27E-09  absolut break condition
   DEPER  =   0.30     relativ break condition  

   TIME   =   0.40     timestep for ELM

  volume/ion in A,a.u.               =     225.00      1518.37
  Fermi-wavevector in a.u.,A,eV,Ry     =   0.583733  1.103095  4.636102  0.340744
  Thomas-Fermi vector in A             =   1.629149
 
 Write flags
   LWAVE        =      F    write WAVECAR
   LDOWNSAMPLE  =      F    k-point downsampling of WAVECAR
   LCHARG       =      F    write CHGCAR
   LVTOT        =      F    write LOCPOT, total local potential
   LVHAR        =      F    write LOCPOT, Hartree potential only
   LELF         =      F    write electronic localiz. function (ELF)
   LORBIT       =      0    0 simple, 1 ext, 2 COOP (PROOUT), +10 PAW based schemes


 Dipole corrections
   LMONO  =      F    monopole corrections only (constant potential shift)
   LDIPOL =      F    correct potential (dipole corrections)
   IDIPOL =      0    1-x, 2-y, 3-z, 4-all directions 
   EPSILON=  1.0000000 bulk dielectric constant

 Exchange correlation treatment:
   GGA     =    PE    GGA type
   LEXCH   =     8    internal setting for exchange type
   VOSKOWN=      0    Vosko Wilk Nusair interpolation
   LHFCALC =     F    Hartree Fock is set to
   LHFONE  =     F    Hartree Fock one center treatment
   AEXX    =    0.0000 exact exchange contribution

 Linear response parameters
   LEPSILON=     F    determine dielectric tensor
   LRPA    =     F    only Hartree local field effects (RPA)
   LNABLA  =     F    use nabla operator in PAW spheres
   LVEL    =     F    velocity operator in full k-point grid
   LINTERFAST=   F  fast interpolation
   KINTER  =     0    interpolate to denser k-point grid
   CSHIFT  =0.1000    complex shift for real part using Kramers Kronig
   OMEGAMAX=  -1.0    maximum frequency
   DEG_THRESHOLD= 0.2000000E-02 threshold for treating states as degnerate
   RTIME   =   -0.100 relaxation time in fs
  (WPLASMAI=    0.000 imaginary part of plasma frequency in eV, 0.658/RTIME)
   DFIELD  = 0.0000000 0.0000000 0.0000000 field for delta impulse in time
 
 Orbital magnetization related:
   ORBITALMAG=     F  switch on orbital magnetization
   LCHIMAG   =     F  perturbation theory with respect to B field
   DQ        =  0.001000  dq finite difference perturbation B field
   LLRAUG    =     F  two centre corrections for induced B field



--------------------------------------------------------------------------------------------------------


 Static calculation
 charge density and potential will be updated during run
 spin polarized calculation
 RMM-DIIS sequential band-by-band and
  variant of blocked Davidson during initial phase
 perform sub-space diagonalisation
    before iterative eigenvector-optimisation
 modified Broyden-mixing scheme, WC =      100.0
 initial mixing is a Kerker type mixing with AMIX =  0.4000 and BMIX =      1.0000
 Hartree-type preconditioning will be used
 using additional bands           15
 reciprocal scheme for non local part
 use partial core corrections
 calculate Harris-corrections to forces 
   (improved forces if not selfconsistent)
 use gradient corrections 
 use of overlap-Matrix (Vanderbilt PP)
 Methfessel and Paxton  Order N= 1 SIGMA  =   0.10


--------------------------------------------------------------------------------------------------------


  energy-cutoff  :      600.00
  volume of cell :     3375.00
      direct lattice vectors                 reciprocal lattice vectors
    15.000000000  0.000000000  0.000000000     0.066666667  0.000000000  0.000000000
     0.000000000 15.000000000  0.000000000     0.000000000  0.066666667  0.000000000
     0.000000000  0.000000000 15.000000000     0.000000000  0.000000000  0.066666667

  length of vectors
    15.000000000 15.000000000 15.000000000     0.066666667  0.066666667  0.066666667


 
 k-points in units of 2pi/SCALE and weight: read from INCAR                         
   0.00000000  0.00000000  0.00000000       1.000
 
 k-points in reciprocal lattice and weights: read from INCAR                         
   0.00000000  0.00000000  0.00000000       1.000
 
 position of ions in fractional coordinates (direct lattice) 
   0.29783667  0.42553600  0.55307200
   0.37769267  0.55087533  0.48823400
   0.40280400  0.29274333  0.57046133
   0.53466733  0.50932467  0.48489533
   0.55258533  0.34926800  0.52010000
   0.45245200  0.43561667  0.60418933
   0.41327133  0.39909867  0.44464533
   0.22389400  0.56971800  0.54008733
   0.33635200  0.54257200  0.65534667
   0.34125533  0.68178000  0.56681600
   0.49629000  0.66232733  0.48295800
   0.61068533  0.47195733  0.62010600
   0.48462133  0.59369133  0.61908933
   0.72404000  0.48832067  0.66113933
   0.79914000  0.50626067  0.65814867
 
 position of ions in cartesian coordinates  (Angst):
   4.46755000  6.38304000  8.29608000
   5.66539000  8.26313000  7.32351000
   6.04206000  4.39115000  8.55692000
   8.02001000  7.63987000  7.27343000
   8.28878000  5.23902000  7.80150000
   6.78678000  6.53425000  9.06284000
   6.19907000  5.98648000  6.66968000
   3.35841000  8.54577000  8.10131000
   5.04528000  8.13858000  9.83020000
   5.11883000 10.22670000  8.50224000
   7.44435000  9.93491000  7.24437000
   9.16028000  7.07936000  9.30159000
   7.26932000  8.90537000  9.28634000
  10.86060000  7.32481000  9.91709000
  11.98710000  7.59391000  9.87223000
 


--------------------------------------------------------------------------------------------------------


 k-point  1 :   0.0000 0.0000 0.0000  plane waves:  112451

 maximum and minimum number of plane-waves per node :     18753    18726

 maximum number of plane-waves:    112451
 maximum index in each direction: 
   IXMAX=   29   IYMAX=   29   IZMAX=   29
   IXMIN=  -29   IYMIN=  -29   IZMIN=  -29


 parallel 3D FFT for wavefunctions:
    minimum data exchange during FFTs selected (reduces bandwidth)
 parallel 3D FFT for charge:
    minimum data exchange during FFTs selected (reduces bandwidth)


 total amount of memory used by VASP MPI-rank0   158680. kBytes
=======================================================================

   base      :      30000. kBytes
   nonl-proj :      12601. kBytes
   fftplans  :      27994. kBytes
   grid      :      74150. kBytes
   one-center:         93. kBytes
   wavefun   :      13842. kBytes
 
     INWAV:  cpu time    0.0000: real time    0.0000
 Broyden mixing: mesh for mixing (old mesh)
   NGX = 59   NGY = 59   NGZ = 59
  (NGX  =240   NGY  =240   NGZ  =240)
  gives a total of 205379 points

 initial charge density was supplied:
 charge density of overlapping atoms calculated
 number of electron     153.0000000 magnetization       1.0000000
 keeping initial charge density in first step


--------------------------------------------------------------------------------------------------------


 Maximum index for augmentation-charges          716 (set IRDMAX)


--------------------------------------------------------------------------------------------------------


 First call to EWALD:  gamma=   0.118
 Maximum number of real-space cells 3x 3x 3
 Maximum number of reciprocal cells 3x 3x 3

    FEWALD:  cpu time    0.0016: real time    0.0020


--------------------------------------- Iteration      1(   1)  ---------------------------------------


    POTLOK:  cpu time    1.1737: real time    1.1769
    SETDIJ:  cpu time    0.0181: real time    0.0181
     EDDAV:  cpu time    7.5091: real time    7.5153
       DOS:  cpu time    0.0004: real time    0.0004
    --------------------------------------------
      LOOP:  cpu time    8.7012: real time    8.7107

 eigenvalue-minimisations  :   376
 total energy-change (2. order) : 0.1120160E+04  (-0.4467300E+04)
 number of electron     153.0000000 magnetization       1.0000000
 augmentation part      153.0000000 magnetization       1.0000000

 Free energy of the ion-electron system (eV)
  ---------------------------------------------------
  alpha Z        PSCENC =        41.16232785
  Ewald energy   TEWEN  =     16734.53448994
  -Hartree energ DENC   =    -33751.02210245
  -exchange      EXHF   =         0.00000000
  -V(xc)+E(xc)   XCENC  =       623.87256799
  PAW double counting   =     16421.75059358   -17800.06104309
  entropy T*S    EENTRO =         0.01145539
  eigenvalues    EBANDS =       187.69255194
  atomic energy  EATOM  =     18662.21924712
  Solvation  Ediel_sol  =         0.00000000
  ---------------------------------------------------
  free energy    TOTEN  =      1120.16008826 eV

  energy without entropy =     1120.14863287  energy(sigma->0) =     1120.15626980


--------------------------------------------------------------------------------------------------------




--------------------------------------- Iteration      1(   2)  ---------------------------------------


     EDDAV:  cpu time    7.4023: real time    7.4100
       DOS:  cpu time    0.0003: real time    0.0003
    --------------------------------------------
      LOOP:  cpu time    7.4026: real time    7.4103

 eigenvalue-minimisations  :   368
 total energy-change (2. order) :-0.1031452E+04  (-0.9805944E+03)
 number of electron     153.0000000 magnetization       1.0000000
 augmentation part      153.0000000 magnetization       1.0000000

 Free energy of the ion-electron system (eV)
  ---------------------------------------------------
  alpha Z        PSCENC =        41.16232785
  Ewald energy   TEWEN  =     16734.53448994
  -Hartree energ DENC   =    -33751.02210245
  -exchange      EXHF   =         0.00000000
  -V(xc)+E(xc)   XCENC  =       623.87256799
  PAW double counting   =     16421.75059358   -17800.06104309
  entropy T*S    EENTRO =         0.00580654
  eigenvalues    EBANDS =      -843.75389532
  atomic energy  EATOM  =     18662.21924712
  Solvation  Ediel_sol  =         0.00000000
  ---------------------------------------------------
  free energy    TOTEN  =        88.70799216 eV

  energy without entropy =       88.70218562  energy(sigma->0) =       88.70605665


--------------------------------------------------------------------------------------------------------




--------------------------------------- Iteration      1(   3)  ---------------------------------------


     EDDAV:  cpu time   11.9782: real time   11.9883
       DOS:  cpu time    0.0003: real time    0.0003
    --------------------------------------------
      LOOP:  cpu time   11.9786: real time   11.9887

 eigenvalue-minimisations  :   680
 total energy-change (2. order) :-0.1218406E+03  (-0.1141999E+03)
 number of electron     153.0000000 magnetization       1.0000000
 augmentation part      153.0000000 magnetization       1.0000000

 Free energy of the ion-electron system (eV)
  ---------------------------------------------------
  alpha Z        PSCENC =        41.16232785
  Ewald energy   TEWEN  =     16734.53448994
  -Hartree energ DENC   =    -33751.02210245
  -exchange      EXHF   =         0.00000000
  -V(xc)+E(xc)   XCENC  =       623.87256799
  PAW double counting   =     16421.75059358   -17800.06104309
  entropy T*S    EENTRO =         0.01747544
  eigenvalues    EBANDS =      -965.60616089
  atomic energy  EATOM  =     18662.21924712
  Solvation  Ediel_sol  =         0.00000000
  ---------------------------------------------------
  free energy    TOTEN  =       -33.13260452 eV

  energy without entropy =      -33.15007996  energy(sigma->0) =      -33.13842967


--------------------------------------------------------------------------------------------------------




--------------------------------------- Iteration      1(   4)  ---------------------------------------


     EDDAV:  cpu time   10.2322: real time   10.2395
       DOS:  cpu time    0.0004: real time    0.0004
    --------------------------------------------
      LOOP:  cpu time   10.2325: real time   10.2399

 eigenvalue-minimisations  :   560
 total energy-change (2. order) :-0.2281704E+02  (-0.2248005E+02)
 number of electron     153.0000000 magnetization       1.0000000
 augmentation part      153.0000000 magnetization       1.0000000

 Free energy of the ion-electron system (eV)
  ---------------------------------------------------
  alpha Z        PSCENC =        41.16232785
  Ewald energy   TEWEN  =     16734.53448994
  -Hartree energ DENC   =    -33751.02210245
  -exchange      EXHF   =         0.00000000
  -V(xc)+E(xc)   XCENC  =       623.87256799
  PAW double counting   =     16421.75059358   -17800.06104309
  entropy T*S    EENTRO =         0.00920239
  eigenvalues    EBANDS =      -988.41492655
  atomic energy  EATOM  =     18662.21924712
  Solvation  Ediel_sol  =         0.00000000
  ---------------------------------------------------
  free energy    TOTEN  =       -55.94964322 eV

  energy without entropy =      -55.95884561  energy(sigma->0) =      -55.95271068


--------------------------------------------------------------------------------------------------------




--------------------------------------- Iteration      1(   5)  ---------------------------------------


     EDDAV:  cpu time   12.2382: real time   12.2473
       DOS:  cpu time    0.0004: real time    0.0004
    CHARGE:  cpu time    0.7106: real time    0.7112
    MIXING:  cpu time    0.0222: real time    0.0223
    --------------------------------------------
      LOOP:  cpu time   12.9714: real time   12.9812

 eigenvalue-minimisations  :   696
 total energy-change (2. order) :-0.1646972E+01  (-0.1503452E+01)
 number of electron     152.9999998 magnetization       1.0000000
 augmentation part       87.4579040 magnetization       0.3710803

 Broyden mixing:
  rms(total) = 0.23837E+01    rms(broyden)= 0.23836E+01
  rms(prec ) = 0.27367E+01
  weight for this iteration     100.00

 Free energy of the ion-electron system (eV)
  ---------------------------------------------------
  alpha Z        PSCENC =        41.16232785
  Ewald energy   TEWEN  =     16734.53448994
  -Hartree energ DENC   =    -33751.02210245
  -exchange      EXHF   =         0.00000000
  -V(xc)+E(xc)   XCENC  =       623.87256799
  PAW double counting   =     16421.75059358   -17800.06104309
  entropy T*S    EENTRO =         0.00883737
  eigenvalues    EBANDS =      -990.06153315
  atomic energy  EATOM  =     18662.21924712
  Solvation  Ediel_sol  =         0.00000000
  ---------------------------------------------------
  free energy    TOTEN  =       -57.59661484 eV

  energy without entropy =      -57.60545222  energy(sigma->0) =      -57.59956064


--------------------------------------------------------------------------------------------------------




--------------------------------------- Iteration      1(   6)  ---------------------------------------


    POTLOK:  cpu time    1.1602: real time    1.1631
    SETDIJ:  cpu time    0.0179: real time    0.0179
    EDDIAG:  cpu time    1.0921: real time    1.0929
  RMM-DIIS:  cpu time    7.0249: real time    7.0622
    ORTHCH:  cpu time    0.0604: real time    0.0604
       DOS:  cpu time    0.0006: real time    0.0006
    CHARGE:  cpu time    0.6454: real time    0.6464
    MIXING:  cpu time    0.0243: real time    0.0243
    --------------------------------------------
      LOOP:  cpu time   10.0258: real time   10.0679

 eigenvalue-minimisations  :   423
 total energy-change (2. order) : 0.1246193E+01  (-0.1198927E+02)
 number of electron     152.9999997 magnetization       1.0000000
 augmentation part       95.6482166 magnetization       0.0801230

 Broyden mixing:
  rms(total) = 0.15342E+01    rms(broyden)= 0.15340E+01
  rms(prec ) = 0.17758E+01
  weight for this iteration     100.00

 eigenvalues of (default mixing * dielectric matrix)
  average eigenvalue GAMMA=   0.6188
  0.6188

 Free energy of the ion-electron system (eV)
  ---------------------------------------------------
  alpha Z        PSCENC =        41.16232785
  Ewald energy   TEWEN  =     16734.53448994
  -Hartree energ DENC   =    -33501.11623247
  -exchange      EXHF   =         0.00000000
  -V(xc)+E(xc)   XCENC  =       611.76715606
  PAW double counting   =     16727.20709123   -18051.43523243
  entropy T*S    EENTRO =         0.00616639
  eigenvalues    EBANDS =     -1280.69543587
  atomic energy  EATOM  =     18662.21924712
  Solvation  Ediel_sol  =         0.00000000
  ---------------------------------------------------
  free energy    TOTEN  =       -56.35042219 eV

  energy without entropy =      -56.35658858  energy(sigma->0) =      -56.35247765


--------------------------------------------------------------------------------------------------------




--------------------------------------- Iteration      1(   7)  ---------------------------------------


    POTLOK:  cpu time    1.1590: real time    1.1606
    SETDIJ:  cpu time    0.0174: real time    0.0174
    EDDIAG:  cpu time    1.0934: real time    1.0943
  RMM-DIIS:  cpu time    6.3240: real time    6.3289
    ORTHCH:  cpu time    0.0628: real time    0.0628
       DOS:  cpu time    0.0006: real time    0.0006
    CHARGE:  cpu time    0.6542: real time    0.6544
    MIXING:  cpu time    0.0238: real time    0.0238
    --------------------------------------------
      LOOP:  cpu time    9.3351: real time    9.3428

 eigenvalue-minimisations  :   380
 total energy-change (2. order) : 0.7036785E+01  (-0.2475543E+01)
 number of electron     152.9999997 magnetization       1.0000000
 augmentation part       92.8017228 magnetization       0.1007127

 Broyden mixing:
  rms(total) = 0.37919E+00    rms(broyden)= 0.37917E+00
  rms(prec ) = 0.47199E+00
  weight for this iteration     100.00

 eigenvalues of (default mixing * dielectric matrix)
  average eigenvalue GAMMA=   0.9013
  1.1363  0.6662

 Free energy of the ion-electron system (eV)
  ---------------------------------------------------
  alpha Z        PSCENC =        41.16232785
  Ewald energy   TEWEN  =     16734.53448994
  -Hartree energ DENC   =    -33638.24020040
  -exchange      EXHF   =         0.00000000
  -V(xc)+E(xc)   XCENC  =       616.14634282
  PAW double counting   =     17077.55763919   -18451.92588378
  entropy T*S    EENTRO =         0.00775284
  eigenvalues    EBANDS =     -1090.77535295
  atomic energy  EATOM  =     18662.21924712
  Solvation  Ediel_sol  =         0.00000000
  ---------------------------------------------------
  free energy    TOTEN  =       -49.31363737 eV

  energy without entropy =      -49.32139020  energy(sigma->0) =      -49.31622164


--------------------------------------------------------------------------------------------------------




--------------------------------------- Iteration      1(   8)  ---------------------------------------


    POTLOK:  cpu time    1.1585: real time    1.1600
    SETDIJ:  cpu time    0.0175: real time    0.0175
    EDDIAG:  cpu time    1.0908: real time    1.0924
  RMM-DIIS:  cpu time    6.9061: real time    6.9184
    ORTHCH:  cpu time    0.0621: real time    0.0627
       DOS:  cpu time    0.0006: real time    0.0006
    CHARGE:  cpu time    0.6540: real time    0.6544
    MIXING:  cpu time    0.0242: real time    0.0243
    --------------------------------------------
      LOOP:  cpu time    9.9138: real time    9.9302

 eigenvalue-minimisations  :   425
 total energy-change (2. order) : 0.2569202E+00  (-0.3664656E+00)
 number of electron     152.9999997 magnetization       1.0000000
 augmentation part       92.0976779 magnetization       0.0991877

 Broyden mixing:
  rms(total) = 0.27062E+00    rms(broyden)= 0.27060E+00
  rms(prec ) = 0.30564E+00
  weight for this iteration     100.00

 eigenvalues of (default mixing * dielectric matrix)
  average eigenvalue GAMMA=   0.9375
  1.3859  0.7134  0.7134

 Free energy of the ion-electron system (eV)
  ---------------------------------------------------
  alpha Z        PSCENC =        41.16232785
  Ewald energy   TEWEN  =     16734.53448994
  -Hartree energ DENC   =    -33683.34823508
  -exchange      EXHF   =         0.00000000
  -V(xc)+E(xc)   XCENC  =       616.43938699
  PAW double counting   =     17422.79778212   -18815.81496307
  entropy T*S    EENTRO =         0.00768695
  eigenvalues    EBANDS =     -1027.05443999
  atomic energy  EATOM  =     18662.21924712
  Solvation  Ediel_sol  =         0.00000000
  ---------------------------------------------------
  free energy    TOTEN  =       -49.05671718 eV

  energy without entropy =      -49.06440413  energy(sigma->0) =      -49.05927950


--------------------------------------------------------------------------------------------------------




--------------------------------------- Iteration      1(   9)  ---------------------------------------


    POTLOK:  cpu time    1.1592: real time    1.1607
    SETDIJ:  cpu time    0.0179: real time    0.0179
    EDDIAG:  cpu time    1.0933: real time    1.0949
  RMM-DIIS:  cpu time    6.5836: real time    6.5911
    ORTHCH:  cpu time    0.0597: real time    0.0598
       DOS:  cpu time    0.0004: real time    0.0004
    CHARGE:  cpu time    0.6593: real time    0.6600
    MIXING:  cpu time    0.0247: real time    0.0247
    --------------------------------------------
      LOOP:  cpu time    9.5981: real time    9.6096

 eigenvalue-minimisations  :   410
 total energy-change (2. order) : 0.3081598E-01  (-0.9165983E-01)
 number of electron     152.9999997 magnetization       1.0000000
 augmentation part       92.2528764 magnetization       0.0855640

 Broyden mixing:
  rms(total) = 0.18251E+00    rms(broyden)= 0.18250E+00
  rms(prec ) = 0.21590E+00
  weight for this iteration     100.00

 eigenvalues of (default mixing * dielectric matrix)
  average eigenvalue GAMMA=   1.0299
  2.0545  0.7837  0.7837  0.4979

 Free energy of the ion-electron system (eV)
  ---------------------------------------------------
  alpha Z        PSCENC =        41.16232785
  Ewald energy   TEWEN  =     16734.53448994
  -Hartree energ DENC   =    -33682.97149307
  -exchange      EXHF   =         0.00000000
  -V(xc)+E(xc)   XCENC  =       615.91654056
  PAW double counting   =     17556.21900730   -18951.84776382
  entropy T*S    EENTRO =         0.00779458
  eigenvalues    EBANDS =     -1024.26605166
  atomic energy  EATOM  =     18662.21924712
  Solvation  Ediel_sol  =         0.00000000
  ---------------------------------------------------
  free energy    TOTEN  =       -49.02590120 eV

  energy without entropy =      -49.03369577  energy(sigma->0) =      -49.02849939


--------------------------------------------------------------------------------------------------------




--------------------------------------- Iteration      1(  10)  ---------------------------------------


    POTLOK:  cpu time    1.1612: real time    1.1649
    SETDIJ:  cpu time    0.0178: real time    0.0178
    EDDIAG:  cpu time    1.0901: real time    1.0916
  RMM-DIIS:  cpu time    6.8131: real time    6.8200
    ORTHCH:  cpu time    0.0599: real time    0.0599
       DOS:  cpu time    0.0005: real time    0.0005
    CHARGE:  cpu time    0.6626: real time    0.6635
    MIXING:  cpu time    0.0253: real time    0.0253
    --------------------------------------------
      LOOP:  cpu time    9.8305: real time    9.8435

 eigenvalue-minimisations  :   420
 total energy-change (2. order) : 0.5500651E-01  (-0.2479820E-01)
 number of electron     152.9999997 magnetization       1.0000000
 augmentation part       92.4135166 magnetization       0.0738929

 Broyden mixing:
  rms(total) = 0.54318E-01    rms(broyden)= 0.54313E-01
  rms(prec ) = 0.70816E-01
  weight for this iteration     100.00

 eigenvalues of (default mixing * dielectric matrix)
  average eigenvalue GAMMA=   1.0252
  2.0972  0.9617  0.8102  0.8102  0.4465

 Free energy of the ion-electron system (eV)
  ---------------------------------------------------
  alpha Z        PSCENC =        41.16232785
  Ewald energy   TEWEN  =     16734.53448994
  -Hartree energ DENC   =    -33681.47912028
  -exchange      EXHF   =         0.00000000
  -V(xc)+E(xc)   XCENC  =       615.56076936
  PAW double counting   =     17652.91984711   -19050.27291136
  entropy T*S    EENTRO =         0.00742365
  eigenvalues    EBANDS =     -1023.62296808
  atomic energy  EATOM  =     18662.21924712
  Solvation  Ediel_sol  =         0.00000000
  ---------------------------------------------------
  free energy    TOTEN  =       -48.97089469 eV

  energy without entropy =      -48.97831834  energy(sigma->0) =      -48.97336924


--------------------------------------------------------------------------------------------------------




--------------------------------------- Iteration      1(  11)  ---------------------------------------


    POTLOK:  cpu time    1.1600: real time    1.1632
    SETDIJ:  cpu time    0.0178: real time    0.0179
    EDDIAG:  cpu time    1.0931: real time    1.0941
  RMM-DIIS:  cpu time    6.8737: real time    6.8809
    ORTHCH:  cpu time    0.0582: real time    0.0583
       DOS:  cpu time    0.0004: real time    0.0004
    CHARGE:  cpu time    0.6582: real time    0.6590
    MIXING:  cpu time    0.0261: real time    0.0261
    --------------------------------------------
      LOOP:  cpu time    9.8876: real time    9.8998

 eigenvalue-minimisations  :   425
 total energy-change (2. order) : 0.7140207E-02  (-0.6727462E-02)
 number of electron     152.9999997 magnetization       1.0000000
 augmentation part       92.3556096 magnetization       0.0752611

 Broyden mixing:
  rms(total) = 0.44058E-01    rms(broyden)= 0.44057E-01
  rms(prec ) = 0.56303E-01
  weight for this iteration     100.00

 eigenvalues of (default mixing * dielectric matrix)
  average eigenvalue GAMMA=   1.0422
  2.1282  1.5073  0.7842  0.7842  0.6028  0.4464

 Free energy of the ion-electron system (eV)
  ---------------------------------------------------
  alpha Z        PSCENC =        41.16232785
  Ewald energy   TEWEN  =     16734.53448994
  -Hartree energ DENC   =    -33688.67070980
  -exchange      EXHF   =         0.00000000
  -V(xc)+E(xc)   XCENC  =       615.67425929
  PAW double counting   =     17700.89826185   -19100.37348033
  entropy T*S    EENTRO =         0.00748616
  eigenvalues    EBANDS =     -1014.41563656
  atomic energy  EATOM  =     18662.21924712
  Solvation  Ediel_sol  =         0.00000000
  ---------------------------------------------------
  free energy    TOTEN  =       -48.96375448 eV

  energy without entropy =      -48.97124064  energy(sigma->0) =      -48.96624987


--------------------------------------------------------------------------------------------------------




--------------------------------------- Iteration      1(  12)  ---------------------------------------


    POTLOK:  cpu time    1.1577: real time    1.1603
    SETDIJ:  cpu time    0.0177: real time    0.0177
    EDDIAG:  cpu time    1.0940: real time    1.0953
  RMM-DIIS:  cpu time    6.8510: real time    6.8588
    ORTHCH:  cpu time    0.0597: real time    0.0598
       DOS:  cpu time    0.0004: real time    0.0004
    CHARGE:  cpu time    0.6642: real time    0.6648
    MIXING:  cpu time    0.0270: real time    0.0270
    --------------------------------------------
      LOOP:  cpu time    9.8716: real time    9.8841

 eigenvalue-minimisations  :   417
 total energy-change (2. order) : 0.3514767E-02  (-0.1998778E-02)
 number of electron     152.9999997 magnetization       1.0000000
 augmentation part       92.3584352 magnetization       0.0750816

 Broyden mixing:
  rms(total) = 0.16678E-01    rms(broyden)= 0.16677E-01
  rms(prec ) = 0.28439E-01
  weight for this iteration     100.00

 eigenvalues of (default mixing * dielectric matrix)
  average eigenvalue GAMMA=   1.0627
  2.3990  1.6204  0.9937  0.7270  0.7270  0.5276  0.4439

 Free energy of the ion-electron system (eV)
  ---------------------------------------------------
  alpha Z        PSCENC =        41.16232785
  Ewald energy   TEWEN  =     16734.53448994
  -Hartree energ DENC   =    -33691.63284879
  -exchange      EXHF   =         0.00000000
  -V(xc)+E(xc)   XCENC  =       615.71051737
  PAW double counting   =     17711.60478895   -19111.47480756
  entropy T*S    EENTRO =         0.00742494
  eigenvalues    EBANDS =     -1011.09137954
  atomic energy  EATOM  =     18662.21924712
  Solvation  Ediel_sol  =         0.00000000
  ---------------------------------------------------
  free energy    TOTEN  =       -48.96023972 eV

  energy without entropy =      -48.96766466  energy(sigma->0) =      -48.96271470


--------------------------------------------------------------------------------------------------------




--------------------------------------- Iteration      1(  13)  ---------------------------------------


    POTLOK:  cpu time    1.1612: real time    1.1625
    SETDIJ:  cpu time    0.0179: real time    0.0179
    EDDIAG:  cpu time    1.0933: real time    1.0950
  RMM-DIIS:  cpu time    7.1416: real time    7.1491
    ORTHCH:  cpu time    0.0579: real time    0.0579
       DOS:  cpu time    0.0004: real time    0.0004
    CHARGE:  cpu time    0.6637: real time    0.6644
    MIXING:  cpu time    0.0277: real time    0.0278
    --------------------------------------------
      LOOP:  cpu time   10.1638: real time   10.1750

 eigenvalue-minimisations  :   450
 total energy-change (2. order) : 0.6952879E-03  (-0.5757487E-03)
 number of electron     152.9999997 magnetization       1.0000000
 augmentation part       92.3757070 magnetization       0.0749730

 Broyden mixing:
  rms(total) = 0.94771E-02    rms(broyden)= 0.94768E-02
  rms(prec ) = 0.19675E-01
  weight for this iteration     100.00

 eigenvalues of (default mixing * dielectric matrix)
  average eigenvalue GAMMA=   1.0950
  2.4257  1.8415  1.2169  0.8119  0.7556  0.7556  0.5191  0.4338

 Free energy of the ion-electron system (eV)
  ---------------------------------------------------
  alpha Z        PSCENC =        41.16232785
  Ewald energy   TEWEN  =     16734.53448994
  -Hartree energ DENC   =    -33695.23637749
  -exchange      EXHF   =         0.00000000
  -V(xc)+E(xc)   XCENC  =       615.71057033
  PAW double counting   =     17717.68147612   -19117.57102875
  entropy T*S    EENTRO =         0.00741464
  eigenvalues    EBANDS =     -1007.46766419
  atomic energy  EATOM  =     18662.21924712
  Solvation  Ediel_sol  =         0.00000000
  ---------------------------------------------------
  free energy    TOTEN  =       -48.95954443 eV

  energy without entropy =      -48.96695907  energy(sigma->0) =      -48.96201597


--------------------------------------------------------------------------------------------------------




--------------------------------------- Iteration      1(  14)  ---------------------------------------


    POTLOK:  cpu time    1.1619: real time    1.1657
    SETDIJ:  cpu time    0.0176: real time    0.0176
    EDDIAG:  cpu time    1.0927: real time    1.0941
  RMM-DIIS:  cpu time    6.8714: real time    6.8784
    ORTHCH:  cpu time    0.0577: real time    0.0577
       DOS:  cpu time    0.0004: real time    0.0004
    CHARGE:  cpu time    0.6633: real time    0.6638
    MIXING:  cpu time    0.0291: real time    0.0291
    --------------------------------------------
      LOOP:  cpu time    9.8939: real time    9.9069

 eigenvalue-minimisations  :   417
 total energy-change (2. order) :-0.9773664E-03  (-0.2749489E-03)
 number of electron     152.9999997 magnetization       1.0000000
 augmentation part       92.3807763 magnetization       0.0751490

 Broyden mixing:
  rms(total) = 0.96307E-02    rms(broyden)= 0.96306E-02
  rms(prec ) = 0.15883E-01
  weight for this iteration     100.00

 eigenvalues of (default mixing * dielectric matrix)
  average eigenvalue GAMMA=   1.1266
  2.3701  2.3701  1.3197  0.9835  0.7548  0.7548  0.6602  0.4893  0.4368

 Free energy of the ion-electron system (eV)
  ---------------------------------------------------
  alpha Z        PSCENC =        41.16232785
  Ewald energy   TEWEN  =     16734.53448994
  -Hartree energ DENC   =    -33700.12833384
  -exchange      EXHF   =         0.00000000
  -V(xc)+E(xc)   XCENC  =       615.74328750
  PAW double counting   =     17711.11048595   -19110.72944237
  entropy T*S    EENTRO =         0.00741871
  eigenvalues    EBANDS =     -1002.88000268
  atomic energy  EATOM  =     18662.21924712
  Solvation  Ediel_sol  =         0.00000000
  ---------------------------------------------------
  free energy    TOTEN  =       -48.96052179 eV

  energy without entropy =      -48.96794051  energy(sigma->0) =      -48.96299470


--------------------------------------------------------------------------------------------------------




--------------------------------------- Iteration      1(  15)  ---------------------------------------


    POTLOK:  cpu time    1.1628: real time    1.1654
    SETDIJ:  cpu time    0.0175: real time    0.0175
    EDDIAG:  cpu time    1.0941: real time    1.0960
  RMM-DIIS:  cpu time    6.5477: real time    6.5547
    ORTHCH:  cpu time    0.0607: real time    0.0608
       DOS:  cpu time    0.0004: real time    0.0004
    CHARGE:  cpu time    0.6638: real time    0.6646
    MIXING:  cpu time    0.0290: real time    0.0290
    --------------------------------------------
      LOOP:  cpu time    9.5762: real time    9.5885

 eigenvalue-minimisations  :   402
 total energy-change (2. order) :-0.1083299E-02  (-0.1559763E-03)
 number of electron     152.9999997 magnetization       1.0000000
 augmentation part       92.3738226 magnetization       0.0753033

 Broyden mixing:
  rms(total) = 0.53463E-02    rms(broyden)= 0.53461E-02
  rms(prec ) = 0.99728E-02
  weight for this iteration     100.00

 eigenvalues of (default mixing * dielectric matrix)
  average eigenvalue GAMMA=   1.1666
  2.6620  2.6620  1.2987  1.2987  0.8019  0.7484  0.7484  0.5430  0.4367  0.4661

 Free energy of the ion-electron system (eV)
  ---------------------------------------------------
  alpha Z        PSCENC =        41.16232785
  Ewald energy   TEWEN  =     16734.53448994
  -Hartree energ DENC   =    -33703.83315186
  -exchange      EXHF   =         0.00000000
  -V(xc)+E(xc)   XCENC  =       615.78414358
  PAW double counting   =     17705.68404529   -19105.20699001
  entropy T*S    EENTRO =         0.00740900
  eigenvalues    EBANDS =      -999.31312601
  atomic energy  EATOM  =     18662.21924712
  Solvation  Ediel_sol  =         0.00000000
  ---------------------------------------------------
  free energy    TOTEN  =       -48.96160509 eV

  energy without entropy =      -48.96901410  energy(sigma->0) =      -48.96407476


--------------------------------------------------------------------------------------------------------




--------------------------------------- Iteration      1(  16)  ---------------------------------------


    POTLOK:  cpu time    1.1612: real time    1.1625
    SETDIJ:  cpu time    0.0178: real time    0.0178
    EDDIAG:  cpu time    1.0948: real time    1.0962
  RMM-DIIS:  cpu time    6.4090: real time    6.4158
    ORTHCH:  cpu time    0.0602: real time    0.0602
       DOS:  cpu time    0.0004: real time    0.0004
    CHARGE:  cpu time    0.6640: real time    0.6648
    MIXING:  cpu time    0.0299: real time    0.0299
    --------------------------------------------
      LOOP:  cpu time    9.4374: real time    9.4476

 eigenvalue-minimisations  :   393
 total energy-change (2. order) :-0.1465964E-02  (-0.8393541E-04)
 number of electron     152.9999997 magnetization       1.0000000
 augmentation part       92.3695942 magnetization       0.0754470

 Broyden mixing:
  rms(total) = 0.45443E-02    rms(broyden)= 0.45441E-02
  rms(prec ) = 0.72951E-02
  weight for this iteration     100.00

 eigenvalues of (default mixing * dielectric matrix)
  average eigenvalue GAMMA=   1.1978
  3.0568  2.6313  1.4463  1.4463  0.7847  0.7847  0.8247  0.7674  0.4351  0.5148
  0.4833

 Free energy of the ion-electron system (eV)
  ---------------------------------------------------
  alpha Z        PSCENC =        41.16232785
  Ewald energy   TEWEN  =     16734.53448994
  -Hartree energ DENC   =    -33706.67310107
  -exchange      EXHF   =         0.00000000
  -V(xc)+E(xc)   XCENC  =       615.81346647
  PAW double counting   =     17701.72526574   -19101.19952614
  entropy T*S    EENTRO =         0.00742771
  eigenvalues    EBANDS =      -996.55266868
  atomic energy  EATOM  =     18662.21924712
  Solvation  Ediel_sol  =         0.00000000
  ---------------------------------------------------
  free energy    TOTEN  =       -48.96307106 eV

  energy without entropy =      -48.97049877  energy(sigma->0) =      -48.96554696


--------------------------------------------------------------------------------------------------------




--------------------------------------- Iteration      1(  17)  ---------------------------------------


    POTLOK:  cpu time    1.1621: real time    1.1631
    SETDIJ:  cpu time    0.0175: real time    0.0175
    EDDIAG:  cpu time    1.0934: real time    1.0948
  RMM-DIIS:  cpu time    6.8914: real time    6.8984
    ORTHCH:  cpu time    0.0603: real time    0.0603
       DOS:  cpu time    0.0004: real time    0.0004
    CHARGE:  cpu time    0.6623: real time    0.6629
    MIXING:  cpu time    0.0312: real time    0.0312
    --------------------------------------------
      LOOP:  cpu time    9.9186: real time    9.9286

 eigenvalue-minimisations  :   393
 total energy-change (2. order) :-0.1830282E-02  (-0.5726750E-04)
 number of electron     152.9999997 magnetization       1.0000000
 augmentation part       92.3736608 magnetization       0.0753391

 Broyden mixing:
  rms(total) = 0.26861E-02    rms(broyden)= 0.26860E-02
  rms(prec ) = 0.43365E-02
  weight for this iteration     100.00

 eigenvalues of (default mixing * dielectric matrix)
  average eigenvalue GAMMA=   1.3114
  4.2313  2.5505  2.0931  1.3843  1.0297  0.8527  0.7623  0.7623  0.6410  0.4359
  0.5170  0.4766

 Free energy of the ion-electron system (eV)
  ---------------------------------------------------
  alpha Z        PSCENC =        41.16232785
  Ewald energy   TEWEN  =     16734.53448994
  -Hartree energ DENC   =    -33708.78967644
  -exchange      EXHF   =         0.00000000
  -V(xc)+E(xc)   XCENC  =       615.81989732
  PAW double counting   =     17699.40150076   -19098.81193643
  entropy T*S    EENTRO =         0.00743583
  eigenvalues    EBANDS =      -994.50818728
  atomic energy  EATOM  =     18662.21924712
  Solvation  Ediel_sol  =         0.00000000
  ---------------------------------------------------
  free energy    TOTEN  =       -48.96490134 eV

  energy without entropy =      -48.97233717  energy(sigma->0) =      -48.96737995


--------------------------------------------------------------------------------------------------------




--------------------------------------- Iteration      1(  18)  ---------------------------------------


    POTLOK:  cpu time    1.1616: real time    1.1676
    SETDIJ:  cpu time    0.0174: real time    0.0174
    EDDIAG:  cpu time    1.0922: real time    1.0961
  RMM-DIIS:  cpu time    6.4906: real time    6.5124
    ORTHCH:  cpu time    0.0592: real time    0.0595
       DOS:  cpu time    0.0005: real time    0.0005
    CHARGE:  cpu time    0.6554: real time    0.6576
    MIXING:  cpu time    0.0322: real time    0.0323
    --------------------------------------------
      LOOP:  cpu time    9.5092: real time    9.5434

 eigenvalue-minimisations  :   405
 total energy-change (2. order) :-0.8082924E-03  (-0.2226186E-04)
 number of electron     152.9999997 magnetization       1.0000000
 augmentation part       92.3722557 magnetization       0.0754925

 Broyden mixing:
  rms(total) = 0.14141E-02    rms(broyden)= 0.14140E-02
  rms(prec ) = 0.26770E-02
  weight for this iteration     100.00

 eigenvalues of (default mixing * dielectric matrix)
  average eigenvalue GAMMA=   1.3543
  5.0850  2.6355  2.2076  1.2346  1.2346  0.8539  0.8539  0.7497  0.7497  0.5871
  0.4359  0.5084  0.4694

 Free energy of the ion-electron system (eV)
  ---------------------------------------------------
  alpha Z        PSCENC =        41.16232785
  Ewald energy   TEWEN  =     16734.53448994
  -Hartree energ DENC   =    -33709.81266403
  -exchange      EXHF   =         0.00000000
  -V(xc)+E(xc)   XCENC  =       615.82312329
  PAW double counting   =     17699.26653453   -19098.69428992
  entropy T*S    EENTRO =         0.00743362
  eigenvalues    EBANDS =      -993.47191204
  atomic energy  EATOM  =     18662.21924712
  Solvation  Ediel_sol  =         0.00000000
  ---------------------------------------------------
  free energy    TOTEN  =       -48.96570963 eV

  energy without entropy =      -48.97314325  energy(sigma->0) =      -48.96818751


--------------------------------------------------------------------------------------------------------




--------------------------------------- Iteration      1(  19)  ---------------------------------------


    POTLOK:  cpu time    1.1620: real time    1.1644
    SETDIJ:  cpu time    0.0176: real time    0.0176
    EDDIAG:  cpu time    1.0933: real time    1.0958
  RMM-DIIS:  cpu time    7.6172: real time    7.6318
    ORTHCH:  cpu time    0.0596: real time    0.0596
       DOS:  cpu time    0.0004: real time    0.0004
    CHARGE:  cpu time    0.6631: real time    0.6640
    MIXING:  cpu time    0.0340: real time    0.0340
    --------------------------------------------
      LOOP:  cpu time   10.6471: real time   10.6676

 eigenvalue-minimisations  :   472
 total energy-change (2. order) :-0.7547862E-03  (-0.1334756E-04)
 number of electron     152.9999997 magnetization       1.0000000
 augmentation part       92.3704100 magnetization       0.0754135

 Broyden mixing:
  rms(total) = 0.11503E-02    rms(broyden)= 0.11502E-02
  rms(prec ) = 0.20312E-02
  weight for this iteration     100.00

 eigenvalues of (default mixing * dielectric matrix)
  average eigenvalue GAMMA=   1.4161
  5.8363  2.6858  2.2293  1.5069  1.5069  0.9655  0.9655  0.7466  0.7466  0.6692
  0.5532  0.4355  0.5042  0.4740

 Free energy of the ion-electron system (eV)
  ---------------------------------------------------
  alpha Z        PSCENC =        41.16232785
  Ewald energy   TEWEN  =     16734.53448994
  -Hartree energ DENC   =    -33710.44696273
  -exchange      EXHF   =         0.00000000
  -V(xc)+E(xc)   XCENC  =       615.82418490
  PAW double counting   =     17699.41299979   -19098.86008201
  entropy T*S    EENTRO =         0.00743389
  eigenvalues    EBANDS =      -992.82010317
  atomic energy  EATOM  =     18662.21924712
  Solvation  Ediel_sol  =         0.00000000
  ---------------------------------------------------
  free energy    TOTEN  =       -48.96646442 eV

  energy without entropy =      -48.97389831  energy(sigma->0) =      -48.96894238


--------------------------------------------------------------------------------------------------------




--------------------------------------- Iteration      1(  20)  ---------------------------------------


    POTLOK:  cpu time    1.1622: real time    1.1651
    SETDIJ:  cpu time    0.0175: real time    0.0175
    EDDIAG:  cpu time    1.0935: real time    1.0955
  RMM-DIIS:  cpu time    6.6814: real time    6.6932
    ORTHCH:  cpu time    0.0598: real time    0.0598
       DOS:  cpu time    0.0004: real time    0.0004
    CHARGE:  cpu time    0.6632: real time    0.6643
    MIXING:  cpu time    0.0351: real time    0.0352
    --------------------------------------------
      LOOP:  cpu time    9.7132: real time    9.7312

 eigenvalue-minimisations  :   404
 total energy-change (2. order) :-0.6006583E-03  (-0.4152276E-05)
 number of electron     152.9999997 magnetization       1.0000000
 augmentation part       92.3711303 magnetization       0.0754089

 Broyden mixing:
  rms(total) = 0.73849E-03    rms(broyden)= 0.73846E-03
  rms(prec ) = 0.13141E-02
  weight for this iteration     100.00

 eigenvalues of (default mixing * dielectric matrix)
  average eigenvalue GAMMA=   1.4546
  6.4087  2.8036  2.2548  2.0890  1.3189  1.1061  0.8661  0.8661  0.7600  0.7600
  0.6437  0.4356  0.4749  0.5156  0.5156

 Free energy of the ion-electron system (eV)
  ---------------------------------------------------
  alpha Z        PSCENC =        41.16232785
  Ewald energy   TEWEN  =     16734.53448994
  -Hartree energ DENC   =    -33710.54955938
  -exchange      EXHF   =         0.00000000
  -V(xc)+E(xc)   XCENC  =       615.82237580
  PAW double counting   =     17699.68255913   -19099.13382713
  entropy T*S    EENTRO =         0.00743351
  eigenvalues    EBANDS =      -992.71211192
  atomic energy  EATOM  =     18662.21924712
  Solvation  Ediel_sol  =         0.00000000
  ---------------------------------------------------
  free energy    TOTEN  =       -48.96706508 eV

  energy without entropy =      -48.97449859  energy(sigma->0) =      -48.96954291


--------------------------------------------------------------------------------------------------------




--------------------------------------- Iteration      1(  21)  ---------------------------------------


    POTLOK:  cpu time    1.1615: real time    1.1633
    SETDIJ:  cpu time    0.0174: real time    0.0178
    EDDIAG:  cpu time    1.0923: real time    1.0943
  RMM-DIIS:  cpu time    6.4632: real time    6.4752
    ORTHCH:  cpu time    0.0594: real time    0.0594
       DOS:  cpu time    0.0004: real time    0.0004
    CHARGE:  cpu time    0.6619: real time    0.6632
    MIXING:  cpu time    0.0367: real time    0.0367
    --------------------------------------------
      LOOP:  cpu time    9.4927: real time    9.5102

 eigenvalue-minimisations  :   409
 total energy-change (2. order) :-0.3954322E-03  (-0.3157107E-05)
 number of electron     152.9999997 magnetization       1.0000000
 augmentation part       92.3722853 magnetization       0.0754378

 Broyden mixing:
  rms(total) = 0.55856E-03    rms(broyden)= 0.55851E-03
  rms(prec ) = 0.90724E-03
  weight for this iteration     100.00

 eigenvalues of (default mixing * dielectric matrix)
  average eigenvalue GAMMA=   1.4816
  6.6629  3.1515  2.4337  2.1107  1.3375  1.3375  0.9646  0.9646  0.7523  0.7523
  0.6776  0.6232  0.4356  0.5287  0.4723  0.5006

 Free energy of the ion-electron system (eV)
  ---------------------------------------------------
  alpha Z        PSCENC =        41.16232785
  Ewald energy   TEWEN  =     16734.53448994
  -Hartree energ DENC   =    -33710.53992579
  -exchange      EXHF   =         0.00000000
  -V(xc)+E(xc)   XCENC  =       615.82044090
  PAW double counting   =     17699.90452143   -19099.35308723
  entropy T*S    EENTRO =         0.00743099
  eigenvalues    EBANDS =      -992.72290572
  atomic energy  EATOM  =     18662.21924712
  Solvation  Ediel_sol  =         0.00000000
  ---------------------------------------------------
  free energy    TOTEN  =       -48.96746051 eV

  energy without entropy =      -48.97489150  energy(sigma->0) =      -48.96993750


--------------------------------------------------------------------------------------------------------




--------------------------------------- Iteration      1(  22)  ---------------------------------------


    POTLOK:  cpu time    1.1629: real time    1.1666
    SETDIJ:  cpu time    0.0176: real time    0.0176
    EDDIAG:  cpu time    1.0944: real time    1.0965
  RMM-DIIS:  cpu time    6.5337: real time    6.5463
    ORTHCH:  cpu time    0.0590: real time    0.0590
       DOS:  cpu time    0.0004: real time    0.0004
    CHARGE:  cpu time    0.6617: real time    0.6626
    MIXING:  cpu time    0.0384: real time    0.0386
    --------------------------------------------
      LOOP:  cpu time    9.5681: real time    9.5876

 eigenvalue-minimisations  :   400
 total energy-change (2. order) :-0.2784104E-03  (-0.2000841E-05)
 number of electron     152.9999997 magnetization       1.0000000
 augmentation part       92.3724102 magnetization       0.0754648

 Broyden mixing:
  rms(total) = 0.42681E-03    rms(broyden)= 0.42680E-03
  rms(prec ) = 0.64932E-03
  weight for this iteration     100.00

 eigenvalues of (default mixing * dielectric matrix)
  average eigenvalue GAMMA=   1.5349
  7.0355  3.9259  2.4855  2.1277  1.5069  1.5069  0.9822  0.9822  0.7768  0.7768
  0.8023  0.6740  0.4356  0.5730  0.5294  0.4738  0.4991

 Free energy of the ion-electron system (eV)
  ---------------------------------------------------
  alpha Z        PSCENC =        41.16232785
  Ewald energy   TEWEN  =     16734.53448994
  -Hartree energ DENC   =    -33710.59951629
  -exchange      EXHF   =         0.00000000
  -V(xc)+E(xc)   XCENC  =       615.81936943
  PAW double counting   =     17700.10618995   -19099.55627264
  entropy T*S    EENTRO =         0.00743282
  eigenvalues    EBANDS =      -992.66100709
  atomic energy  EATOM  =     18662.21924712
  Solvation  Ediel_sol  =         0.00000000
  ---------------------------------------------------
  free energy    TOTEN  =       -48.96773892 eV

  energy without entropy =      -48.97517174  energy(sigma->0) =      -48.97021653


--------------------------------------------------------------------------------------------------------




--------------------------------------- Iteration      1(  23)  ---------------------------------------


    POTLOK:  cpu time    1.1606: real time    1.1638
    SETDIJ:  cpu time    0.0173: real time    0.0173
    EDDIAG:  cpu time    1.0958: real time    1.0979
  RMM-DIIS:  cpu time    6.5389: real time    6.5517
    ORTHCH:  cpu time    0.0614: real time    0.0616
       DOS:  cpu time    0.0004: real time    0.0004
    CHARGE:  cpu time    0.6601: real time    0.6615
    MIXING:  cpu time    0.0406: real time    0.0407
    --------------------------------------------
      LOOP:  cpu time    9.5751: real time    9.5948

 eigenvalue-minimisations  :   402
 total energy-change (2. order) :-0.1548846E-03  (-0.1014785E-05)
 number of electron     152.9999997 magnetization       1.0000000
 augmentation part       92.3717122 magnetization       0.0754456

 Broyden mixing:
  rms(total) = 0.23674E-03    rms(broyden)= 0.23671E-03
  rms(prec ) = 0.37940E-03
  weight for this iteration     100.00

 eigenvalues of (default mixing * dielectric matrix)
  average eigenvalue GAMMA=   1.5589
  7.4520  4.2403  2.4236  2.2396  1.8450  1.2679  1.2679  0.9545  0.9545  0.7716
  0.7716  0.7038  0.6605  0.4356  0.5774  0.4739  0.5174  0.5036

 Free energy of the ion-electron system (eV)
  ---------------------------------------------------
  alpha Z        PSCENC =        41.16232785
  Ewald energy   TEWEN  =     16734.53448994
  -Hartree energ DENC   =    -33710.68376692
  -exchange      EXHF   =         0.00000000
  -V(xc)+E(xc)   XCENC  =       615.81976018
  PAW double counting   =     17700.16869118   -19099.62350017
  entropy T*S    EENTRO =         0.00743292
  eigenvalues    EBANDS =      -992.57257590
  atomic energy  EATOM  =     18662.21924712
  Solvation  Ediel_sol  =         0.00000000
  ---------------------------------------------------
  free energy    TOTEN  =       -48.96789380 eV

  energy without entropy =      -48.97532672  energy(sigma->0) =      -48.97037144


--------------------------------------------------------------------------------------------------------




--------------------------------------- Iteration      1(  24)  ---------------------------------------


    POTLOK:  cpu time    1.1601: real time    1.1638
    SETDIJ:  cpu time    0.0177: real time    0.0177
    EDDIAG:  cpu time    1.0921: real time    1.0942
  RMM-DIIS:  cpu time    6.4261: real time    6.4400
    ORTHCH:  cpu time    0.0596: real time    0.0596
       DOS:  cpu time    0.0004: real time    0.0004
    CHARGE:  cpu time    0.6620: real time    0.6624
    MIXING:  cpu time    0.0422: real time    0.0422
    --------------------------------------------
      LOOP:  cpu time    9.4601: real time    9.4804

 eigenvalue-minimisations  :   405
 total energy-change (2. order) :-0.8966195E-04  (-0.5865898E-06)
 number of electron     152.9999997 magnetization       1.0000000
 augmentation part       92.3716374 magnetization       0.0754420

 Broyden mixing:
  rms(total) = 0.13396E-03    rms(broyden)= 0.13395E-03
  rms(prec ) = 0.23567E-03
  weight for this iteration     100.00

 eigenvalues of (default mixing * dielectric matrix)
  average eigenvalue GAMMA=   1.5719
  7.7379  4.5319  2.4227  2.4227  1.7799  1.4155  1.4155  1.0017  1.0017  0.7931
  0.7931  0.7229  0.7229  0.4356  0.6101  0.5607  0.4738  0.5273  0.4969

 Free energy of the ion-electron system (eV)
  ---------------------------------------------------
  alpha Z        PSCENC =        41.16232785
  Ewald energy   TEWEN  =     16734.53448994
  -Hartree energ DENC   =    -33710.69546243
  -exchange      EXHF   =         0.00000000
  -V(xc)+E(xc)   XCENC  =       615.81992608
  PAW double counting   =     17700.07739961   -19099.53067565
  entropy T*S    EENTRO =         0.00743299
  eigenvalues    EBANDS =      -992.56266898
  atomic energy  EATOM  =     18662.21924712
  Solvation  Ediel_sol  =         0.00000000
  ---------------------------------------------------
  free energy    TOTEN  =       -48.96798347 eV

  energy without entropy =      -48.97541645  energy(sigma->0) =      -48.97046113


--------------------------------------------------------------------------------------------------------




--------------------------------------- Iteration      1(  25)  ---------------------------------------


    POTLOK:  cpu time    1.1617: real time    1.1631
    SETDIJ:  cpu time    0.0189: real time    0.0189
    EDDIAG:  cpu time    1.0900: real time    1.0911
  RMM-DIIS:  cpu time    6.3234: real time    6.3305
    ORTHCH:  cpu time    0.0584: real time    0.0584
       DOS:  cpu time    0.0004: real time    0.0004
    CHARGE:  cpu time    0.6615: real time    0.6623
    MIXING:  cpu time    0.0450: real time    0.0450
    --------------------------------------------
      LOOP:  cpu time    9.3593: real time    9.3698

 eigenvalue-minimisations  :   390
 total energy-change (2. order) :-0.7695008E-04  (-0.6441150E-06)
 number of electron     152.9999997 magnetization       1.0000000
 augmentation part       92.3716704 magnetization       0.0754487

 Broyden mixing:
  rms(total) = 0.12700E-03    rms(broyden)= 0.12699E-03
  rms(prec ) = 0.18535E-03
  weight for this iteration     100.00

 eigenvalues of (default mixing * dielectric matrix)
  average eigenvalue GAMMA=   1.6225
  7.9874  5.0096  2.6024  2.6024  2.0175  1.6556  1.2661  1.2661  0.9926  0.9926
  0.7745  0.7745  0.7103  0.6912  0.6202  0.4356  0.5557  0.4735  0.5238  0.4991

 Free energy of the ion-electron system (eV)
  ---------------------------------------------------
  alpha Z        PSCENC =        41.16232785
  Ewald energy   TEWEN  =     16734.53448994
  -Hartree energ DENC   =    -33710.69320411
  -exchange      EXHF   =         0.00000000
  -V(xc)+E(xc)   XCENC  =       615.81991045
  PAW double counting   =     17700.00480950   -19099.45638942
  entropy T*S    EENTRO =         0.00743321
  eigenvalues    EBANDS =      -992.56668496
  atomic energy  EATOM  =     18662.21924712
  Solvation  Ediel_sol  =         0.00000000
  ---------------------------------------------------
  free energy    TOTEN  =       -48.96806042 eV

  energy without entropy =      -48.97549362  energy(sigma->0) =      -48.97053815


--------------------------------------------------------------------------------------------------------




--------------------------------------- Iteration      1(  26)  ---------------------------------------


    POTLOK:  cpu time    1.1625: real time    1.1651
    SETDIJ:  cpu time    0.0179: real time    0.0179
    EDDIAG:  cpu time    1.0932: real time    1.0943
  RMM-DIIS:  cpu time    6.5644: real time    6.5715
    ORTHCH:  cpu time    0.0586: real time    0.0586
       DOS:  cpu time    0.0004: real time    0.0004
    CHARGE:  cpu time    0.6622: real time    0.6626
    MIXING:  cpu time    0.0483: real time    0.0483
    --------------------------------------------
      LOOP:  cpu time    9.6074: real time    9.6187

 eigenvalue-minimisations  :   396
 total energy-change (2. order) :-0.4031970E-04  (-0.4200450E-06)
 number of electron     152.9999997 magnetization       1.0000000
 augmentation part       92.3719116 magnetization       0.0754554

 Broyden mixing:
  rms(total) = 0.80721E-04    rms(broyden)= 0.80718E-04
  rms(prec ) = 0.11383E-03
  weight for this iteration     100.00

 eigenvalues of (default mixing * dielectric matrix)
  average eigenvalue GAMMA=   1.6391
  8.1259  5.4446  3.0208  2.4926  2.0945  1.7873  1.3271  1.3271  0.9965  0.9965
  0.8016  0.8016  0.7354  0.7354  0.4356  0.6221  0.6005  0.5829  0.4737  0.4985
  0.5215

 Free energy of the ion-electron system (eV)
  ---------------------------------------------------
  alpha Z        PSCENC =        41.16232785
  Ewald energy   TEWEN  =     16734.53448994
  -Hartree energ DENC   =    -33710.68295630
  -exchange      EXHF   =         0.00000000
  -V(xc)+E(xc)   XCENC  =       615.81952689
  PAW double counting   =     17699.93898093   -19099.38668507
  entropy T*S    EENTRO =         0.00743288
  eigenvalues    EBANDS =      -992.58046497
  atomic energy  EATOM  =     18662.21924712
  Solvation  Ediel_sol  =         0.00000000
  ---------------------------------------------------
  free energy    TOTEN  =       -48.96810074 eV

  energy without entropy =      -48.97553361  energy(sigma->0) =      -48.97057836


--------------------------------------------------------------------------------------------------------




--------------------------------------- Iteration      1(  27)  ---------------------------------------


    POTLOK:  cpu time    1.1586: real time    1.1627
    SETDIJ:  cpu time    0.0180: real time    0.0181
    EDDIAG:  cpu time    1.0961: real time    1.0971
  RMM-DIIS:  cpu time    4.8467: real time    4.8516
    ORTHCH:  cpu time    0.0586: real time    0.0586
       DOS:  cpu time    0.0004: real time    0.0004
    CHARGE:  cpu time    0.6632: real time    0.6639
    MIXING:  cpu time    0.0523: real time    0.0524
    --------------------------------------------
      LOOP:  cpu time    7.8940: real time    7.9047

 eigenvalue-minimisations  :   280
 total energy-change (2. order) :-0.1123536E-04  (-0.1058794E-06)
 number of electron     152.9999997 magnetization       1.0000000
 augmentation part       92.3718570 magnetization       0.0754556

 Broyden mixing:
  rms(total) = 0.61844E-04    rms(broyden)= 0.61836E-04
  rms(prec ) = 0.85484E-04
  weight for this iteration     100.00

 eigenvalues of (default mixing * dielectric matrix)
  average eigenvalue GAMMA=   1.6172
  8.1875  5.5997  3.1607  2.5151  1.9952  1.8851  1.3537  1.3537  1.0012  1.0012
  0.8775  0.8775  0.7569  0.7569  0.6400  0.6400  0.4356  0.5509  0.5219  0.5093
  0.4753  0.4828

 Free energy of the ion-electron system (eV)
  ---------------------------------------------------
  alpha Z        PSCENC =        41.16232785
  Ewald energy   TEWEN  =     16734.53448994
  -Hartree energ DENC   =    -33710.68768901
  -exchange      EXHF   =         0.00000000
  -V(xc)+E(xc)   XCENC  =       615.81959264
  PAW double counting   =     17699.94592772   -19099.39442242
  entropy T*S    EENTRO =         0.00743292
  eigenvalues    EBANDS =      -992.57501874
  atomic energy  EATOM  =     18662.21924712
  Solvation  Ediel_sol  =         0.00000000
  ---------------------------------------------------
  free energy    TOTEN  =       -48.96811197 eV

  energy without entropy =      -48.97554489  energy(sigma->0) =      -48.97058961


--------------------------------------------------------------------------------------------------------




--------------------------------------- Iteration      1(  28)  ---------------------------------------


    POTLOK:  cpu time    1.1582: real time    1.1597
    SETDIJ:  cpu time    0.0181: real time    0.0182
    EDDIAG:  cpu time    1.0951: real time    1.0963
  RMM-DIIS:  cpu time    4.4529: real time    4.4572
    ORTHCH:  cpu time    0.0585: real time    0.0586
       DOS:  cpu time    0.0004: real time    0.0004
    CHARGE:  cpu time    0.6630: real time    0.6634
[...]
     66      -4.9244      1.00000
     67      -4.9120      1.00000
     68      -4.8986      1.00000
     69      -4.8783      1.00000
     70      -4.8318      1.00000
     71      -4.7847      1.00000
     72      -4.7709      1.00000
     73      -4.7358      1.00000
     74      -4.5342      1.00000
     75      -4.2126      1.00000
     76      -4.1147      1.00000
     77      -3.4895      1.00000
     78      -3.0059     -0.00000
     79      -2.9026     -0.00000
     80      -2.5173     -0.00000
     81      -2.2744     -0.00000
     82      -1.9879     -0.00000
     83      -1.8028     -0.00000
     84      -1.7559     -0.00000
     85      -1.3229     -0.00000
     86      -0.9767     -0.00000
     87      -0.9393     -0.00000
     88      -0.7693     -0.00000
     89      -0.3561      0.00000
     90      -0.2920      0.00000
     91      -0.1953      0.00000
     92       0.0827      0.00000

 spin component 2

 k-point     1 :       0.0000    0.0000    0.0000
  band No.  band energies     occupation 
      1     -28.3237      1.00000
      2     -13.7396      1.00000
      3     -11.2807      1.00000
      4     -11.0225      1.00000
      5     -10.7877      1.00000
      6     -10.1964      1.00000
      7      -8.6518      1.00000
      8      -8.2757      1.00000
      9      -7.7517      1.00000
     10      -7.6609      1.00000
     11      -7.4826      1.00000
     12      -7.4099      1.00000
     13      -7.3231      1.00000
     14      -7.2273      1.00000
     15      -7.0480      1.00000
     16      -6.9840      1.00000
     17      -6.8588      1.00000
     18      -6.7781      1.00000
     19      -6.7346      1.00000
     20      -6.6836      1.00000
     21      -6.6332      1.00000
     22      -6.5400      1.00000
     23      -6.5177      1.00000
     24      -6.4853      1.00000
     25      -6.4383      1.00000
     26      -6.3611      1.00000
     27      -6.3417      1.00000
     28      -6.2988      1.00000
     29      -6.2513      1.00000
     30      -6.1778      1.00000
     31      -6.1487      1.00000
     32      -6.1417      1.00000
     33      -6.0703      1.00000
     34      -6.0300      1.00000
     35      -5.9377      1.00000
     36      -5.8244      1.00000
     37      -5.7828      1.00000
     38      -5.7442      1.00000
     39      -5.6647      1.00000
     40      -5.6173      1.00000
     41      -5.5997      1.00000
     42      -5.5662      1.00000
     43      -5.5228      1.00000
     44      -5.4668      1.00000
     45      -5.4428      1.00000
     46      -5.4089      1.00000
     47      -5.3931      1.00000
     48      -5.3567      1.00000
     49      -5.3310      1.00000
     50      -5.3031      1.00000
     51      -5.2839      1.00000
     52      -5.2595      1.00000
     53      -5.2244      1.00000
     54      -5.2225      1.00000
     55      -5.1924      1.00000
     56      -5.1515      1.00000
     57      -5.1421      1.00000
     58      -5.1184      1.00000
     59      -5.1049      1.00000
     60      -5.0730      1.00000
     61      -5.0402      1.00000
     62      -4.9868      1.00000
     63      -4.9618      1.00000
     64      -4.9555      1.00000
     65      -4.9208      1.00000
     66      -4.8953      1.00000
     67      -4.8867      1.00000
     68      -4.8640      1.00000
     69      -4.8469      1.00000
     70      -4.7980      1.00000
     71      -4.7598      1.00000
     72      -4.7365      1.00000
     73      -4.7076      1.00000
     74      -4.4882      1.00000
     75      -4.1683      1.01231
     76      -4.0616      0.98769
     77      -3.2791     -0.00000
     78      -2.9531     -0.00000
     79      -2.8526     -0.00000
     80      -2.4378     -0.00000
     81      -2.1865     -0.00000
     82      -1.9521     -0.00000
     83      -1.7236     -0.00000
     84      -1.6864     -0.00000
     85      -1.1925      0.00000
     86      -0.8988      0.00000
     87      -0.8011      0.00000
     88      -0.6956      0.00000
     89      -0.2674      0.00000
     90      -0.2492      0.00000
     91      -0.0917      0.00000
     92       0.1697      0.00000


--------------------------------------------------------------------------------------------------------


 soft charge-density along one line, spin component           1
         0         1         2         3         4         5         6         7         8         9
 total charge-density along one line
 
 soft charge-density along one line, spin component           2
         0         1         2         3         4         5         6         7         8         9
 total charge-density along one line
 
 pseudopotential strength for first ion, spin component:           1
-10.555   0.003  -0.010  -0.001  -0.005   1.051  -0.002   0.010
  0.003 -10.546  -0.010   0.005   0.005  -0.002   1.044   0.007
 -0.010  -0.010 -10.533   0.005  -0.005   0.010   0.007   1.033
 -0.001   0.005   0.005 -10.538  -0.000   0.000  -0.006  -0.004
 -0.005   0.005  -0.005  -0.000 -10.541   0.004  -0.004   0.004
  1.051  -0.002   0.010   0.000   0.004   6.268   0.001  -0.009
 -0.002   1.044   0.007  -0.006  -0.004   0.001   6.270  -0.005
  0.010   0.007   1.033  -0.004   0.004  -0.009  -0.005   6.278
  0.000  -0.006  -0.004   1.036   0.000   0.000   0.006   0.002
  0.004  -0.004   0.004   0.000   1.040  -0.003   0.002  -0.004
 -0.006   0.001  -0.003  -0.001  -0.003   0.005   0.001  -0.001
 -0.012   0.001  -0.005  -0.001  -0.005   0.009   0.001  -0.002
 -0.011   0.000   0.004  -0.000   0.007   0.009   0.000  -0.004
 -0.000  -0.005   0.000  -0.010  -0.000   0.000   0.005   0.000
 -0.004  -0.000   0.007  -0.000  -0.011   0.003   0.000  -0.006
 -0.012   0.000   0.003  -0.000   0.008   0.009   0.001  -0.004
 -0.000  -0.005  -0.000  -0.011  -0.000   0.001   0.005   0.000
 -0.003  -0.000   0.007  -0.001  -0.012   0.002   0.001  -0.006
 pseudopotential strength for first ion, spin component:           2
-10.520   0.003  -0.004  -0.010   0.005   1.023  -0.002   0.004
  0.003 -10.536  -0.010   0.004   0.004  -0.002   1.035   0.007
 -0.004  -0.010 -10.524   0.004  -0.003   0.004   0.007   1.025
 -0.010   0.004   0.004 -10.525  -0.003   0.007  -0.004  -0.003
  0.005   0.004  -0.003  -0.003 -10.531  -0.004  -0.003   0.003
  1.023  -0.002   0.004   0.007  -0.004   6.286   0.002  -0.003
 -0.002   1.035   0.007  -0.004  -0.003   0.002   6.275  -0.005
  0.004   0.007   1.025  -0.003   0.003  -0.003  -0.005   6.282
  0.007  -0.004  -0.003   1.025   0.002  -0.004   0.004   0.002
 -0.004  -0.003   0.003   0.002   1.031   0.003   0.002  -0.002
 -0.003   0.002  -0.000  -0.001  -0.002   0.001   0.000  -0.002
 -0.005   0.003  -0.001  -0.002  -0.003   0.002   0.001  -0.004
 -0.013   0.000   0.004   0.000   0.007   0.012  -0.001  -0.005
  0.000  -0.007   0.001  -0.012   0.000  -0.000   0.006  -0.001
 -0.008   0.000   0.008   0.001  -0.012   0.007  -0.000  -0.007
 -0.014   0.001   0.005   0.001   0.007   0.014  -0.001  -0.006
  0.001  -0.007   0.001  -0.013   0.000  -0.000   0.007  -0.002
 -0.008   0.001   0.008   0.001  -0.014   0.008  -0.000  -0.008
 total augmentation occupancy for first ion, spin component:           1
  1.936   0.003  -0.007   0.002  -0.001  -0.013  -0.002   0.006   0.000   0.000  -0.008   0.013   0.032   0.002   0.037  -0.018
  0.003   1.928  -0.005   0.008  -0.002  -0.002  -0.014   0.008  -0.002  -0.000   0.006  -0.001   0.002   0.044  -0.002   0.000
 -0.007  -0.005   1.943   0.003  -0.002   0.005   0.008  -0.024  -0.005   0.001  -0.010   0.008  -0.014  -0.002  -0.016   0.006
  0.002   0.008   0.003   1.940  -0.005   0.000  -0.002  -0.005  -0.018   0.002   0.000   0.002   0.008   0.062  -0.003  -0.000
 -0.001  -0.002  -0.002  -0.005   1.941   0.000  -0.000   0.001   0.002  -0.014  -0.006   0.005  -0.019   0.004   0.037   0.012
 -0.013  -0.002   0.005   0.000   0.000   0.015  -0.000   0.002   0.000   0.001  -0.022  -0.000   0.022   0.001   0.012  -0.001
 -0.002  -0.014   0.008  -0.002  -0.000  -0.000   0.009   0.000   0.001  -0.001   0.012  -0.001   0.001   0.015   0.002  -0.000
  0.006   0.008  -0.024  -0.005   0.001   0.002   0.000   0.008  -0.001   0.001  -0.029   0.005  -0.007  -0.002  -0.007   0.001
  0.000  -0.002  -0.005  -0.018   0.002   0.000   0.001  -0.001   0.011  -0.001  -0.009   0.001  -0.000   0.024  -0.003  -0.000
  0.000  -0.000   0.001   0.002  -0.014   0.001  -0.001   0.001  -0.001   0.014  -0.009   0.000  -0.022  -0.004   0.024   0.002
 -0.008   0.006  -0.010   0.000  -0.006  -0.022   0.012  -0.029  -0.009  -0.009   1.714  -0.127   0.144  -0.008   0.197  -0.018
  0.013  -0.001   0.008   0.002   0.005  -0.000  -0.001   0.005   0.001   0.000  -0.127   0.015  -0.019   0.002  -0.029   0.002
  0.032   0.002  -0.014   0.008  -0.019   0.022   0.001  -0.007  -0.000  -0.022   0.144  -0.019   0.189   0.004  -0.038  -0.012
  0.002   0.044  -0.002   0.062   0.004   0.001   0.015  -0.002   0.024  -0.004  -0.008   0.002   0.004   0.107  -0.011  -0.001
  0.037  -0.002  -0.016  -0.003   0.037   0.012   0.002  -0.007  -0.003   0.024   0.197  -0.029  -0.038  -0.011   0.156   0.001
 -0.018   0.000   0.006  -0.000   0.012  -0.001  -0.000   0.001  -0.000   0.002  -0.018   0.002  -0.012  -0.001   0.001   0.001
  0.000  -0.013   0.001  -0.020   0.000  -0.000  -0.001   0.000  -0.001   0.000   0.001  -0.000  -0.001  -0.007   0.001   0.000
 -0.013   0.000   0.009   0.000  -0.018  -0.000  -0.000   0.001   0.000  -0.001  -0.026   0.003   0.001   0.001  -0.011   0.000
 total augmentation occupancy for first ion, spin component:           2
  0.014  -0.001   0.001  -0.005   0.006  -0.002  -0.000  -0.001   0.001  -0.002   0.028   0.005  -0.010   0.007  -0.017  -0.001
 -0.001   0.000  -0.000   0.001  -0.000  -0.000   0.001  -0.000   0.001   0.000  -0.001  -0.000   0.001  -0.002   0.001   0.000
  0.001  -0.000   0.001  -0.001   0.000  -0.001  -0.000   0.001   0.000  -0.001   0.004   0.000  -0.000   0.003  -0.000   0.000
 -0.005   0.001  -0.001   0.003  -0.002   0.001   0.001   0.000   0.001   0.000  -0.010  -0.002   0.003  -0.006   0.007   0.000
  0.006  -0.000   0.000  -0.002   0.001  -0.002   0.000  -0.001   0.000   0.002   0.011   0.002  -0.002   0.002  -0.009  -0.000
 -0.002  -0.000  -0.001   0.001  -0.002   0.001   0.000   0.000  -0.000   0.000  -0.007  -0.001   0.001  -0.002   0.005   0.000
 -0.000   0.001  -0.000   0.001   0.000   0.000  -0.000   0.000  -0.000  -0.000  -0.000   0.000   0.000   0.000  -0.000  -0.000
 -0.001  -0.000   0.001   0.000  -0.001   0.000   0.000  -0.000  -0.000   0.000  -0.002  -0.000   0.000  -0.000   0.001   0.000
  0.001   0.001   0.000   0.001   0.000  -0.000  -0.000  -0.000  -0.000  -0.000   0.002   0.000  -0.001   0.000  -0.001  -0.000
 -0.002   0.000  -0.001   0.000   0.002   0.000  -0.000   0.000  -0.000  -0.000  -0.002  -0.000   0.001  -0.001   0.001  -0.000
  0.028  -0.001   0.004  -0.010   0.011  -0.007  -0.000  -0.002   0.002  -0.002   0.065   0.004  -0.015   0.016  -0.037  -0.000
  0.005  -0.000   0.000  -0.002   0.002  -0.001   0.000  -0.000   0.000  -0.000   0.004   0.001  -0.001   0.001  -0.002  -0.000
 -0.010   0.001  -0.000   0.003  -0.002   0.001   0.000   0.000  -0.001   0.001  -0.015  -0.001   0.003  -0.003   0.006   0.000
  0.007  -0.002   0.003  -0.006   0.002  -0.002   0.000  -0.000   0.000  -0.001   0.016   0.001  -0.003   0.003  -0.007  -0.000
 -0.017   0.001  -0.000   0.007  -0.009   0.005  -0.000   0.001  -0.001   0.001  -0.037  -0.002   0.006  -0.007   0.016   0.000
 -0.001   0.000   0.000   0.000  -0.000   0.000  -0.000   0.000  -0.000  -0.000  -0.000  -0.000   0.000  -0.000   0.000   0.000
  0.000  -0.000   0.000  -0.001   0.000   0.000  -0.000  -0.000   0.000  -0.000  -0.000   0.000   0.000   0.000   0.000  -0.000
 -0.001   0.000   0.000   0.001  -0.001   0.000   0.000   0.000  -0.000   0.000   0.000  -0.000   0.000  -0.000   0.000   0.000


------------------------ aborting loop because EDIFF is reached ----------------------------------------


    CHARGE:  cpu time    0.6570: real time    0.6575
    FORLOC:  cpu time    0.0660: real time    0.0660
    FORNL :  cpu time    1.5347: real time    1.5467
    STRESS:  cpu time    5.9949: real time    6.0138
    FORCOR:  cpu time    1.1660: real time    1.1685
    FORHAR:  cpu time    0.1895: real time    0.1896
    MIXING:  cpu time    0.1159: real time    0.1161
    OFIELD:  cpu time    0.0001: real time    0.0001

  FORCE on cell =-STRESS in cart. coord.  units (eV):
  Direction    XX          YY          ZZ          XY          YZ          ZX
  --------------------------------------------------------------------------------------
  Alpha Z    41.16233    41.16233    41.16233
  Ewald   10234.31414  7690.79770 -1190.59314  -938.82833   364.97388   474.87136
  Hartree 15378.95375 13137.54856  5194.19139  -897.93132   310.71886   423.94191
  E(xc)    -876.66618  -877.98959  -879.74642     0.14481     0.06138     0.14432
  Local  -27012.79937-22258.11510 -5442.65444  1844.77032  -673.33154  -898.32101
  n-local  -327.19160  -319.35687  -325.66084    -2.12913     0.19102     0.94103
  augment  1223.47964  1225.82900  1232.33729    -0.43155    -1.14495    -0.76887
  Kinetic  1338.62515  1362.65781  1371.24626    -4.76678    -1.29293    -1.18243
  Fock        0.00000     0.00000     0.00000     0.00000     0.00000     0.00000
  -------------------------------------------------------------------------------------
  Total      -0.12214     2.53384     0.28244     0.82802     0.17571    -0.37368
  in kB      -0.05798     1.20286     0.13408     0.39308     0.08341    -0.17739
  external pressure =        0.43 kB  Pullay stress =        0.00 kB


 VOLUME and BASIS-vectors are now :
 -----------------------------------------------------------------------------
  energy-cutoff  :      600.00
  volume of cell :     3375.00
      direct lattice vectors                 reciprocal lattice vectors
    15.000000000  0.000000000  0.000000000     0.066666667  0.000000000  0.000000000
     0.000000000 15.000000000  0.000000000     0.000000000  0.066666667  0.000000000
     0.000000000  0.000000000 15.000000000     0.000000000  0.000000000  0.066666667

  length of vectors
    15.000000000 15.000000000 15.000000000     0.066666667  0.066666667  0.066666667


 FORCES acting on ions
    electron-ion (+dipol)            ewald-force                    non-local-force                 convergence-correction
 -----------------------------------------------------------------------------------------------
   0.112E+04 0.706E+03 -.336E+02   -.112E+04 -.703E+03 0.336E+02   -.468E+01 -.349E+01 0.221E-01   -.223E-04 0.549E-05 0.250E-05
   0.428E+03 -.380E+03 0.952E+03   -.426E+03 0.378E+03 -.952E+03   -.129E+01 0.236E+01 -.226E+00   -.331E-05 -.367E-05 -.457E-04
   0.293E+03 0.128E+04 -.268E+03   -.291E+03 -.127E+04 0.264E+03   -.189E+01 -.882E+01 0.289E+01   0.282E-04 -.151E-04 -.125E-06
   -.895E+03 -.167E+03 0.905E+03   0.892E+03 0.166E+03 -.902E+03   0.256E+01 0.228E+00 -.422E+01   0.356E-04 -.164E-04 0.222E-04
   -.852E+03 0.101E+04 0.325E+03   0.847E+03 -.101E+04 -.322E+03   0.482E+01 -.664E+01 -.336E+01   0.116E-04 0.223E-04 0.213E-04
   -.940E+02 0.504E+03 -.876E+03   0.940E+02 -.501E+03 0.877E+03   -.937E-01 -.192E+01 -.279E+00   0.555E-04 -.105E-04 0.390E-04
   0.222E+03 0.657E+03 0.123E+04   -.221E+03 -.652E+03 -.123E+04   -.621E+00 -.465E+01 -.646E+01   0.254E-04 0.569E-05 -.463E-05
   0.125E+04 -.321E+03 0.192E+03   -.125E+04 0.318E+03 -.189E+03   -.924E+01 0.231E+01 -.295E+01   -.356E-04 -.352E-05 -.487E-05
   0.606E+03 -.181E+03 -.123E+04   -.601E+03 0.181E+03 0.122E+04   -.405E+01 0.283E+00 0.669E+01   0.389E-05 -.871E-05 0.198E-04
   0.463E+03 -.125E+04 -.132E+03   -.461E+03 0.125E+04 0.131E+03   -.187E+01 0.785E+01 0.127E+01   -.106E-04 0.309E-04 -.361E-05
   -.518E+03 -.111E+04 0.656E+03   0.515E+03 0.110E+04 -.651E+03   0.330E+01 0.718E+01 -.550E+01   0.122E-04 0.751E-05 0.184E-05
   -.877E+03 0.103E+03 -.559E+03   0.876E+03 -.103E+03 0.554E+03   0.149E+01 -.228E+00 0.443E+01   -.960E-05 -.343E-05 -.783E-05
   -.519E+03 -.803E+03 -.889E+03   0.516E+03 0.799E+03 0.886E+03   0.278E+01 0.411E+01 0.345E+01   0.420E-04 -.272E-04 0.138E-04
   -.135E+03 0.311E+02 -.173E+03   0.116E+03 -.359E+02 0.174E+03   0.196E+02 0.486E+01 -.167E+01   -.161E-04 -.409E-05 -.446E-05
   -.451E+03 -.712E+02 -.102E+03   0.508E+03 0.849E+02 0.993E+02   -.577E+02 -.139E+02 0.258E+01   0.468E-05 -.136E-05 -.342E-05
 -----------------------------------------------------------------------------------------------
   0.468E+02 0.104E+02 0.334E+01   0.341E-12 -.568E-12 -.753E-12   -.468E+02 -.104E+02 -.334E+01   0.122E-03 -.220E-04 0.458E-04
 
 
 POSITION                                       TOTAL-FORCE (eV/Angst)
 -----------------------------------------------------------------------------------
      4.46755      6.38304      8.29608        -0.336885     -0.516954      0.036435
      5.66539      8.26313      7.32351        -0.072219      0.071686     -0.017027
      6.04206      4.39115      8.55692        -0.176558     -0.143782     -0.269248
      8.02001      7.63987      7.27343         0.191726     -0.284129     -0.281574
      8.28878      5.23902      7.80150         0.029388     -0.076707     -0.028870
      6.78678      6.53425      9.06284        -0.156879      0.229455      0.360311
      6.19907      5.98648      6.66968         0.310499     -0.095244      0.180065
      3.35841      8.54577      8.10131         0.103892      0.012839      0.139393
      5.04528      8.13858      9.83020         0.015039      0.206806     -0.222874
      5.11883     10.22670      8.50224         0.398680      0.046298      0.089366
      7.44435      9.93491      7.24437        -0.286573      0.625493     -0.242788
      9.16028      7.07936      9.30159        -0.027445      0.036554      0.029701
      7.26932      8.90537      9.28634        -0.099515     -0.152455      0.217064
     10.86060      7.32481      9.91709         0.275495      0.120803     -0.137734
     11.98710      7.59391      9.87223        -0.168646     -0.080663      0.147779
 -----------------------------------------------------------------------------------
    total drift:                                0.001957      0.000057      0.000859


--------------------------------------------------------------------------------------------------------



  FREE ENERGIE OF THE ION-ELECTRON SYSTEM (eV)
  ---------------------------------------------------
  free  energy   TOTEN  =       -48.96812630 eV

  energy  without entropy=      -48.97555950  energy(sigma->0) =      -48.97060403
 


--------------------------------------------------------------------------------------------------------


    POTLOK:  cpu time    1.1816: real time    1.1825


--------------------------------------------------------------------------------------------------------


     LOOP+:  cpu time  345.7305: real time  346.2541
    4ORBIT:  cpu time    0.0000: real time    0.0000

 total amount of memory used by VASP MPI-rank0   158680. kBytes
=======================================================================

   base      :      30000. kBytes
   nonl-proj :      12601. kBytes
   fftplans  :      27994. kBytes
   grid      :      74150. kBytes
   one-center:         93. kBytes
   wavefun   :      13842. kBytes
 
  
  
 General timing and accounting informations for this job:
 ========================================================
  
                  Total CPU time used (sec):      349.787
                            User time (sec):      337.420
                          System time (sec):       12.366
                         Elapsed time (sec):      350.358
  
                   Maximum memory used (kb):      285032.
                   Average memory used (kb):           0.
  
                          Minor page faults:       277115
                          Major page faults:            0
                 Voluntary context switches:         1020
