<?xml version="1.0" encoding="ISO-8859-1"?>
<modeling>
 <generator>
  <i name="program" type="string">vasp </i>
  <i name="version" type="string">5.4.4.18Apr17-6-g9f103f2a35  </i>
  <i name="subversion" type="string">(build May 08 2019 13:49:07) complex            parallel </i>
  <i name="platform" type="string">LinuxIFC </i>
  <i name="date" type="string">2019 11 13 </i>
  <i name="time" type="string">11:03:54 </i>
 </generator>
 <incar>
  <i type="string" name="SYSTEM"> CuCO</i>
  <i type="int" name="ISTART">     0</i>
  <i type="string" name="PREC">accurate</i>
  <i type="string" name="ALGO"> Fast</i>
  <i type="int" name="ISPIN">     2</i>
  <i type="int" name="INIWAV">     1</i>
  <i type="int" name="NELM">   300</i>
  <i type="int" name="NELMIN">     3</i>
  <i type="int" name="IBRION">    -1</i>
  <i name="EDIFF">      0.00000010</i>
  <i name="EDIFFG">     -0.00100000</i>
  <i type="int" name="NSW">     0</i>
  <i type="int" name="ISYM">     0</i>
  <i name="ENCUT">    600.00000000</i>
  <i name="NUPDOWN">      1.00000000</i>
  <i type="logical" name="LREAL"> F  </i>
  <i type="int" name="ISMEAR">     1</i>
  <i name="SIGMA">      0.10000000</i>
  <i name="KSPACING">      0.50000000</i>
  <i type="logical" name="KGAMMA"> F  </i>
  <i type="logical" name="LWAVE"> F  </i>
  <i type="logical" name="LCHARG"> F  </i>
  <v type="int" name="KPOINT_BSE">    -1     0     0     0</v>
  <i type="int" name="NELM">   300</i>
  <i type="string" name="GGA"> PE</i>
 </incar>
 <structure name="primitive_cell" >
  <crystal>
   <varray name="basis" >
    <v>      15.00000000       0.00000000       0.00000000 </v>
    <v>       0.00000000      15.00000000       0.00000000 </v>
    <v>       0.00000000       0.00000000      15.00000000 </v>
   </varray>
   <i name="volume">   3375.00000000 </i>
   <varray name="rec_basis" >
    <v>       0.06666667       0.00000000       0.00000000 </v>
    <v>       0.00000000       0.06666667       0.00000000 </v>
    <v>       0.00000000       0.00000000       0.06666667 </v>
   </varray>
  </crystal>
  <varray name="positions" >
   <v>       0.29783667       0.42553600      -0.44692800 </v>
   <v>       0.33635200      -0.45742800      -0.34465333 </v>
   <v>       0.41327133       0.39909867       0.44464533 </v>
   <v>       0.37769267      -0.44912467       0.48823400 </v>
   <v>       0.22389400      -0.43028200      -0.45991267 </v>
   <v>       0.45245200       0.43561667      -0.39581067 </v>
   <v>       0.40280400       0.29274333      -0.42953867 </v>
   <v>       0.48462133      -0.40630867      -0.38091067 </v>
   <v>       0.34125533      -0.31822000      -0.43318400 </v>
   <v>      -0.46533267      -0.49067533       0.48489533 </v>
   <v>      -0.44741467       0.34926800      -0.47990000 </v>
   <v>       0.49629000      -0.33767267       0.48295800 </v>
   <v>      -0.38931467       0.47195733      -0.37989400 </v>
   <v>      -0.27596000       0.48832067      -0.33886067 </v>
   <v>      -0.20086000      -0.49373933      -0.34185133 </v>
  </varray>
 </structure>
 <varray name="primitive_index" >
  <v type="int" >        1 </v>
  <v type="int" >        9 </v>
  <v type="int" >        7 </v>
  <v type="int" >        2 </v>
  <v type="int" >        8 </v>
  <v type="int" >        6 </v>
  <v type="int" >        3 </v>
  <v type="int" >       13 </v>
  <v type="int" >       10 </v>
  <v type="int" >        4 </v>
  <v type="int" >        5 </v>
  <v type="int" >       11 </v>
  <v type="int" >       12 </v>
  <v type="int" >       14 </v>
  <v type="int" >       15 </v>
 </varray>
 <kpoints>
  <generation param="Monkhorst-Pack">
   <v type="int" name="divisions">       1        1        1 </v>
   <v name="usershift">      0.00000000       0.00000000       0.00000000 </v>
   <v name="genvec1">      1.00000000       0.00000000       0.00000000 </v>
   <v name="genvec2">      0.00000000       1.00000000       0.00000000 </v>
   <v name="genvec3">      0.00000000       0.00000000       1.00000000 </v>
   <v name="shift">      0.00000000       0.00000000       0.00000000 </v>
  </generation>
  <varray name="kpointlist" >
   <v>       0.00000000       0.00000000       0.00000000 </v>
  </varray>
  <varray name="weights" >
   <v>       1.00000000 </v>
  </varray>
 </kpoints>
 <parameters>
  <separator name="general" >
   <i type="string" name="SYSTEM">CuCO</i>
   <i type="logical" name="LCOMPAT"> F  </i>
  </separator>
  <separator name="electronic" >
   <i type="string" name="PREC">accura</i>
   <i name="ENMAX">    600.00000000</i>
   <i name="ENAUG">    644.87300000</i>
   <i name="EDIFF">      0.00000010</i>
   <i type="int" name="IALGO">    68</i>
   <i type="int" name="IWAVPR">    10</i>
   <i type="int" name="NBANDS">    92</i>
   <i name="NELECT">    153.00000000</i>
   <i type="int" name="TURBO">     0</i>
   <i type="int" name="IRESTART">     0</i>
   <i type="int" name="NREBOOT">     0</i>
   <i type="int" name="NMIN">     0</i>
   <i name="EREF">      0.00000000</i>
   <separator name="electronic smearing" >
    <i type="int" name="ISMEAR">     1</i>
    <i name="SIGMA">      0.10000000</i>
    <i name="KSPACING">      0.50000000</i>
    <i type="logical" name="KGAMMA"> F  </i>
   </separator>
   <separator name="electronic projectors" >
    <i type="logical" name="LREAL"> F  </i>
    <v name="ROPT">      0.00000000      0.00000000      0.00000000</v>
    <i type="int" name="LMAXPAW">  -100</i>
    <i type="int" name="LMAXMIX">     2</i>
    <i type="logical" name="NLSPLINE"> F  </i>
   </separator>
   <separator name="electronic startup" >
    <i type="int" name="ISTART">     0</i>
    <i type="int" name="ICHARG">     2</i>
    <i type="int" name="INIWAV">     1</i>
   </separator>
   <separator name="electronic spin" >
    <i type="int" name="ISPIN">     2</i>
    <i type="logical" name="LNONCOLLINEAR"> F  </i>
    <v name="MAGMOM">      0.06666667      0.06666667      0.06666667      0.06666667      0.06666667      0.06666667      0.06666667      0.06666667      0.06666667      0.06666667      0.06666667      0.06666667      0.06666667      0.06666667      0.06666667</v>
    <i name="NUPDOWN">      1.00000000</i>
    <i type="logical" name="LSORBIT"> F  </i>
    <v name="SAXIS">      0.00000000      0.00000000      1.00000000</v>
    <i type="logical" name="LSPIRAL"> F  </i>
    <v name="QSPIRAL">      0.00000000      0.00000000      0.00000000</v>
    <i type="logical" name="LZEROZ"> F  </i>
   </separator>
   <separator name="electronic exchange-correlation" >
    <i type="logical" name="LASPH"> F  </i>
    <i type="logical" name="LMETAGGA"> F  </i>
   </separator>
   <separator name="electronic convergence" >
    <i type="int" name="NELM">   300</i>
    <i type="int" name="NELMDL">    -5</i>
    <i type="int" name="NELMIN">     3</i>
    <i name="ENINI">    600.00000000</i>
    <separator name="electronic convergence detail" >
     <i type="logical" name="LDIAG"> T  </i>
     <i type="logical" name="LSUBROT"> F  </i>
     <i name="WEIMIN">      0.00000000</i>
     <i name="EBREAK">      0.00000000</i>
     <i name="DEPER">      0.30000000</i>
     <i type="int" name="NRMM">     4</i>
     <i name="TIME">      0.40000000</i>
    </separator>
   </separator>
   <separator name="electronic mixer" >
    <i name="AMIX">      0.40000000</i>
    <i name="BMIX">      1.00000000</i>
    <i name="AMIN">      0.10000000</i>
    <i name="AMIX_MAG">      1.60000000</i>
    <i name="BMIX_MAG">      1.00000000</i>
    <separator name="electronic mixer details" >
     <i type="int" name="IMIX">     4</i>
     <i type="logical" name="MIXFIRST"> F  </i>
     <i type="int" name="MAXMIX">   -45</i>
     <i name="WC">    100.00000000</i>
     <i type="int" name="INIMIX">     1</i>
     <i type="int" name="MIXPRE">     1</i>
     <i type="int" name="MREMOVE">     5</i>
    </separator>
   </separator>
   <separator name="electronic dipolcorrection" >
    <i type="logical" name="LDIPOL"> F  </i>
    <i type="logical" name="LMONO"> F  </i>
    <i type="int" name="IDIPOL">     0</i>
    <i name="EPSILON">      1.00000000</i>
    <v name="DIPOL">   -100.00000000   -100.00000000   -100.00000000</v>
    <i name="EFIELD">      0.00000000</i>
   </separator>
  </separator>
  <separator name="grids" >
   <i type="int" name="NGX">   120</i>
   <i type="int" name="NGY">   120</i>
   <i type="int" name="NGZ">   120</i>
   <i type="int" name="NGXF">   240</i>
   <i type="int" name="NGYF">   240</i>
   <i type="int" name="NGZF">   240</i>
   <i type="logical" name="ADDGRID"> F  </i>
  </separator>
  <separator name="ionic" >
   <i type="int" name="NSW">     0</i>
   <i type="int" name="IBRION">    -1</i>
   <i type="int" name="MDALGO">     0</i>
   <i type="int" name="ISIF">     2</i>
   <i name="PSTRESS">      0.00000000</i>
   <i name="EDIFFG">     -0.00100000</i>
   <i type="int" name="NFREE">     0</i>
   <i name="POTIM">      0.50000000</i>
   <i name="SMASS">     -3.00000000</i>
   <i name="SCALEE">      1.00000000</i>
  </separator>
  <separator name="ionic md" >
   <i name="TEBEG">      0.00010000</i>
   <i name="TEEND">      0.00010000</i>
   <i type="int" name="NBLOCK">     1</i>
   <i type="int" name="KBLOCK">     1</i>
   <i type="int" name="NPACO">   256</i>
   <i name="APACO">     16.00000000</i>
  </separator>
  <separator name="symmetry" >
   <i type="int" name="ISYM">     0</i>
   <i name="SYMPREC">      0.00001000</i>
  </separator>
  <separator name="dos" >
   <i type="int" name="LORBIT">     0</i>
   <v name="RWIGS">     -1.00000000     -1.00000000     -1.00000000</v>
   <i type="int" name="NEDOS">   301</i>
   <i name="EMIN">     10.00000000</i>
   <i name="EMAX">    -10.00000000</i>
   <i name="EFERMI">      0.00000000</i>
  </separator>
  <separator name="writing" >
   <i type="int" name="NWRITE">     2</i>
   <i type="logical" name="LWAVE"> F  </i>
   <i type="logical" name="LDOWNSAMPLE"> F  </i>
   <i type="logical" name="LCHARG"> F  </i>
   <i type="logical" name="LPARD"> F  </i>
   <i type="logical" name="LVTOT"> F  </i>
   <i type="logical" name="LVHAR"> F  </i>
   <i type="logical" name="LELF"> F  </i>
   <i type="logical" name="LOPTICS"> F  </i>
   <v name="STM">      0.00000000      0.00000000      0.00000000      0.00000000      0.00000000      0.00000000      0.00000000</v>
  </separator>
  <separator name="performance" >
   <i type="int" name="NPAR">     4</i>
   <i type="int" name="NSIM">     4</i>
   <i type="int" name="NBLK">    -1</i>
   <i type="logical" name="LPLANE"> T  </i>
   <i type="logical" name="LSCALAPACK"> T  </i>
   <i type="logical" name="LSCAAWARE"> F  </i>
   <i type="logical" name="LSCALU"> F  </i>
   <i type="logical" name="LASYNC"> F  </i>
   <i type="logical" name="LORBITALREAL"> F  </i>
  </separator>
  <separator name="miscellaneous" >
   <i type="int" name="IDIOT">     3</i>
   <i type="int" name="ISPECIAL">     0</i>
   <i type="logical" name="LMUSIC"> F  </i>
   <v name="POMASS">     63.54600000     12.01100000     16.00000000</v>
   <v name="DARWINR">      0.00000000      0.00000000      0.00000000</v>
   <v name="DARWINV">      1.00000000      1.00000000      1.00000000</v>
   <i type="logical" name="LCORR"> T  </i>
  </separator>
  <i type="logical" name="GGA_COMPAT"> T  </i>
  <i type="logical" name="LBERRY"> F  </i>
  <i type="int" name="ICORELEVEL">     0</i>
  <i type="logical" name="LDAU"> F  </i>
  <i type="int" name="I_CONSTRAINED_M">     0</i>
  <separator name="electronic exchange-correlation" >
   <i type="string" name="GGA">PE</i>
   <i type="int" name="VOSKOWN">     0</i>
   <i type="logical" name="LHFCALC"> F  </i>
   <i type="string" name="PRECFOCK"></i>
   <i type="logical" name="LSYMGRAD"> F  </i>
   <i type="logical" name="LHFONE"> F  </i>
   <i type="logical" name="LRHFCALC"> F  </i>
   <i type="logical" name="LTHOMAS"> F  </i>
   <i type="logical" name="LMODELHF"> F  </i>
   <i name="ENCUT4O">     -1.00000000</i>
   <i type="int" name="EXXOEP">     0</i>
   <i type="int" name="FOURORBIT">     0</i>
   <i name="AEXX">      0.00000000</i>
   <i name="HFALPHA">      0.00000000</i>
   <i name="MCALPHA">      0.00000000</i>
   <i name="ALDAX">      1.00000000</i>
   <i name="AGGAX">      1.00000000</i>
   <i name="ALDAC">      1.00000000</i>
   <i name="AGGAC">      1.00000000</i>
   <i type="int" name="NKREDX">     1</i>
   <i type="int" name="NKREDY">     1</i>
   <i type="int" name="NKREDZ">     1</i>
   <i type="logical" name="SHIFTRED"> F  </i>
   <i type="logical" name="ODDONLY"> F  </i>
   <i type="logical" name="EVENONLY"> F  </i>
   <i type="int" name="LMAXFOCK">     0</i>
   <i type="int" name="NMAXFOCKAE">     0</i>
   <i type="logical" name="LFOCKAEDFT"> F  </i>
   <i name="HFSCREEN">      0.00000000</i>
   <i name="HFSCREENC">      0.00000000</i>
   <i type="int" name="NBANDSGWLOW">     0</i>
  </separator>
  <separator name="vdW DFT" >
   <i type="logical" name="LUSE_VDW"> F  </i>
   <i name="Zab_VDW">     -0.84910000</i>
   <i name="PARAM1">      0.12340000</i>
   <i name="PARAM2">      1.00000000</i>
   <i name="PARAM3">      0.00000000</i>
  </separator>
  <separator name="model GW" >
   <i type="int" name="MODEL_GW">     0</i>
   <i name="MODEL_EPS0">    135.00000000</i>
   <i name="MODEL_ALPHA">      1.00000000</i>
  </separator>
  <separator name="linear response parameters" >
   <i type="logical" name="LEPSILON"> F  </i>
   <i type="logical" name="LRPA"> F  </i>
   <i type="logical" name="LNABLA"> F  </i>
   <i type="logical" name="LVEL"> F  </i>
   <i type="int" name="KINTER">     0</i>
   <i name="CSHIFT">      0.10000000</i>
   <i name="OMEGAMAX">     -1.00000000</i>
   <i name="DEG_THRESHOLD">      0.00200000</i>
   <i name="RTIME">     -0.10000000</i>
   <i name="WPLASMAI">      0.00000000</i>
   <v name="DFIELD">      0.00000000      0.00000000      0.00000000</v>
   <v name="WPLASMA">      0.00000000      0.00000000      0.00000000      0.00000000      0.00000000      0.00000000      0.00000000      0.00000000      0.00000000</v>
  </separator>
  <separator name="orbital magnetization" >
   <i type="logical" name="NUCIND"> F  </i>
   <v name="MAGPOS">      0.00000000      0.00000000      0.00000000</v>
   <i type="logical" name="LNICSALL"> T  </i>
   <i type="logical" name="ORBITALMAG"> F  </i>
   <i type="logical" name="LMAGBLOCH"> F  </i>
   <i type="logical" name="LCHIMAG"> F  </i>
   <i type="logical" name="LGAUGE"> T  </i>
   <i type="int" name="MAGATOM">     0</i>
   <v name="MAGDIPOL">      0.00000000      0.00000000      0.00000000</v>
   <v name="AVECCONST">      0.00000000      0.00000000      0.00000000</v>
  </separator>
  <separator name="response functions" >
   <i type="logical" name="LADDER"> F  </i>
   <i type="logical" name="LRPAFORCE"> F  </i>
   <i type="logical" name="LFXC"> F  </i>
   <i type="logical" name="LHARTREE"> T  </i>
   <i type="int" name="IBSE">     0</i>
   <v type="int" name="KPOINT">    -1     0     0     0</v>
   <i type="logical" name="LTCTE"> F  </i>
   <i type="logical" name="LTETE"> F  </i>
   <i type="logical" name="LTRIPLET"> F  </i>
   <i type="logical" name="LFXCEPS"> F  </i>
   <i type="logical" name="LFXHEG"> F  </i>
   <i type="int" name="NATURALO">     2</i>
   <i type="logical" name="L2ORDER"> F  </i>
   <i type="logical" name="LMP2LT"> F  </i>
   <i type="logical" name="LUSEW"> F  </i>
   <i name="ENCUTGW">     -2.00000000</i>
   <i name="ENCUTGWSOFT">     -2.00000000</i>
   <i name="ENCUTLF">     -1.00000000</i>
   <i type="int" name="LMAXMP2">    -1</i>
   <i name="SCISSOR">      0.00000000</i>
   <i type="int" name="NOMEGA">     0</i>
   <i type="int" name="NOMEGAR">     0</i>
   <i type="int" name="NBANDSGW">    -1</i>
   <i type="int" name="NBANDSO">    -1</i>
   <i type="int" name="NBANDSV">    -1</i>
   <i type="int" name="NELM">   300</i>
   <i type="int" name="NELMHF">     1</i>
   <i type="int" name="DIM">     3</i>
   <i type="int" name="ANTIRES">     0</i>
   <i name="OMEGAMAX">    -30.00000000</i>
   <i name="OMEGAMIN">    -30.00000000</i>
   <i name="OMEGATL">   -200.00000000</i>
   <i type="int" name="OMEGAGRID">   140</i>
   <i name="CSHIFT">     -0.10000000</i>
   <i type="logical" name="SELFENERGY"> F  </i>
   <i type="logical" name="LSPECTRAL"> F  </i>
   <i type="logical" name="LSPECTRALGW"> F  </i>
   <i type="logical" name="LSINGLES"> F  </i>
   <i type="logical" name="LFERMIGW"> F  </i>
   <i type="logical" name="ODDONLYGW"> F  </i>
   <i type="logical" name="EVENONLYGW"> F  </i>
   <i type="int" name="NKREDLFX">     1</i>
   <i type="int" name="NKREDLFY">     1</i>
   <i type="int" name="NKREDLFZ">     1</i>
   <i type="int" name="MAXMEM">  2800</i>
   <i type="int" name="TELESCOPE">     0</i>
   <i type="int" name="TAUPAR">     1</i>
   <i type="int" name="OMEGAPAR">    -1</i>
   <i name="LAMBDA">      1.00000000</i>
  </separator>
  <separator name="External order field" >
   <i name="OFIELD_KAPPA">      0.00000000</i>
   <v name="OFIELD_K">      0.00000000      0.00000000      0.00000000</v>
   <i name="OFIELD_Q6_NEAR">      0.00000000</i>
   <i name="OFIELD_Q6_FAR">      0.00000000</i>
   <i name="OFIELD_A">      0.00000000</i>
  </separator>
 </parameters>
 <atominfo>
  <atoms>      15 </atoms>
  <types>       3 </types>
  <array name="atoms" >
   <dimension dim="1">ion</dimension>
   <field type="string">element</field>
   <field type="int">atomtype</field>
   <set>
    <rc><c>Cu</c><c>   1</c></rc>
    <rc><c>Cu</c><c>   1</c></rc>
    <rc><c>Cu</c><c>   1</c></rc>
    <rc><c>Cu</c><c>   1</c></rc>
    <rc><c>Cu</c><c>   1</c></rc>
    <rc><c>Cu</c><c>   1</c></rc>
    <rc><c>Cu</c><c>   1</c></rc>
    <rc><c>Cu</c><c>   1</c></rc>
    <rc><c>Cu</c><c>   1</c></rc>
    <rc><c>Cu</c><c>   1</c></rc>
    <rc><c>Cu</c><c>   1</c></rc>
    <rc><c>Cu</c><c>   1</c></rc>
    <rc><c>Cu</c><c>   1</c></rc>
    <rc><c>C </c><c>   2</c></rc>
    <rc><c>O </c><c>   3</c></rc>
   </set>
  </array>
  <array name="atomtypes" >
   <dimension dim="1">type</dimension>
   <field type="int">atomspertype</field>
   <field type="string">element</field>
   <field>mass</field>
   <field>valence</field>
   <field type="string">pseudopotential</field>
   <set>
    <rc><c>  13</c><c>Cu</c><c>     63.54600000</c><c>     11.00000000</c><c>  PAW_PBE Cu 22Jun2005                  </c></rc>
    <rc><c>   1</c><c>C </c><c>     12.01100000</c><c>      4.00000000</c><c>  PAW_PBE C 08Apr2002                   </c></rc>
    <rc><c>   1</c><c>O </c><c>     16.00000000</c><c>      6.00000000</c><c>  PAW_PBE O 08Apr2002                   </c></rc>
   </set>
  </array>
 </atominfo>
 <structure name="initialpos" >
  <crystal>
   <varray name="basis" >
    <v>      15.00000000       0.00000000       0.00000000 </v>
    <v>       0.00000000      15.00000000       0.00000000 </v>
    <v>       0.00000000       0.00000000      15.00000000 </v>
   </varray>
   <i name="volume">   3375.00000000 </i>
   <varray name="rec_basis" >
    <v>       0.06666667       0.00000000       0.00000000 </v>
    <v>       0.00000000       0.06666667       0.00000000 </v>
    <v>       0.00000000       0.00000000       0.06666667 </v>
   </varray>
  </crystal>
  <varray name="positions" >
   <v>       0.29783667       0.42553600       0.55307200 </v>
   <v>       0.37769267       0.55087533       0.48823400 </v>
   <v>       0.40280400       0.29274333       0.57046133 </v>
   <v>       0.53466733       0.50932467       0.48489533 </v>
   <v>       0.55258533       0.34926800       0.52010000 </v>
   <v>       0.45245200       0.43561667       0.60418933 </v>
   <v>       0.41327133       0.39909867       0.44464533 </v>
   <v>       0.22389400       0.56971800       0.54008733 </v>
   <v>       0.33635200       0.54257200       0.65534667 </v>
   <v>       0.34125533       0.68178000       0.56681600 </v>
   <v>       0.49629000       0.66232733       0.48295800 </v>
   <v>       0.61068533       0.47195733       0.62010600 </v>
   <v>       0.48462133       0.59369133       0.61908933 </v>
   <v>       0.72404000       0.48832067       0.66113933 </v>
   <v>       0.79914000       0.50626067       0.65814867 </v>
  </varray>
 </structure>
 <calculation>
  <scstep>
   <time name="dav">    7.51    7.52</time>
   <time name="total">    8.70    8.71</time>
   <energy>
    <i name="alphaZ">     41.16232785 </i>
    <i name="ewald">  16734.53448994 </i>
    <i name="hartreedc"> -33751.02210245 </i>
    <i name="XCdc">    623.87256799 </i>
    <i name="pawpsdc">  16421.75059358 </i>
    <i name="pawaedc"> -17800.06104309 </i>
    <i name="eentropy">      0.01145539 </i>
    <i name="bandstr">    187.69255194 </i>
    <i name="atom">  18662.21924712 </i>
    <i name="e_fr_energy">   1120.16008826 </i>
    <i name="e_wo_entrp">   1120.14863287 </i>
    <i name="e_0_energy">   1120.15626980 </i>
   </energy>
  </scstep>
  <scstep>
   <time name="dav">    7.40    7.41</time>
   <time name="total">    7.40    7.41</time>
   <energy>
    <i name="e_fr_energy">     88.70799216 </i>
    <i name="e_wo_entrp">     88.70218562 </i>
    <i name="e_0_energy">     88.70605665 </i>
   </energy>
  </scstep>
  <scstep>
   <time name="dav">   11.98   11.99</time>
   <time name="total">   11.98   11.99</time>
   <energy>
    <i name="e_fr_energy">    -33.13260452 </i>
    <i name="e_wo_entrp">    -33.15007996 </i>
    <i name="e_0_energy">    -33.13842967 </i>
   </energy>
  </scstep>
  <scstep>
   <time name="dav">   10.23   10.24</time>
   <time name="total">   10.23   10.24</time>
   <energy>
    <i name="e_fr_energy">    -55.94964322 </i>
    <i name="e_wo_entrp">    -55.95884561 </i>
    <i name="e_0_energy">    -55.95271068 </i>
   </energy>
  </scstep>
  <scstep>
   <time name="dav">   12.24   12.25</time>
   <time name="total">   12.97   12.98</time>
   <energy>
    <i name="e_fr_energy">    -57.59661484 </i>
    <i name="e_wo_entrp">    -57.60545222 </i>
    <i name="e_0_energy">    -57.59956064 </i>
   </energy>
  </scstep>
  <scstep>
   <time name="diag">    1.09    1.09</time>
   <time name="diis">    7.02    7.06</time>
   <time name="orth">    0.06    0.06</time>
   <time name="total">   10.03   10.07</time>
   <energy>
    <i name="e_fr_energy">    -56.35042219 </i>
    <i name="e_wo_entrp">    -56.35658858 </i>
    <i name="e_0_energy">    -56.35247765 </i>
   </energy>
  </scstep>
  <scstep>
   <time name="diag">    1.09    1.09</time>
   <time name="diis">    6.32    6.33</time>
   <time name="orth">    0.06    0.06</time>
   <time name="total">    9.34    9.34</time>
   <energy>
    <i name="e_fr_energy">    -49.31363737 </i>
    <i name="e_wo_entrp">    -49.32139020 </i>
    <i name="e_0_energy">    -49.31622164 </i>
   </energy>
  </scstep>
  <scstep>
   <time name="diag">    1.09    1.09</time>
   <time name="diis">    6.91    6.92</time>
   <time name="orth">    0.06    0.06</time>
   <time name="total">    9.91    9.93</time>
   <energy>
    <i name="e_fr_energy">    -49.05671718 </i>
    <i name="e_wo_entrp">    -49.06440413 </i>
    <i name="e_0_energy">    -49.05927950 </i>
   </energy>
  </scstep>
  <scstep>
   <time name="diag">    1.09    1.09</time>
   <time name="diis">    6.58    6.59</time>
   <time name="orth">    0.06    0.06</time>
   <time name="total">    9.60    9.61</time>
   <energy>
    <i name="e_fr_energy">    -49.02590120 </i>
    <i name="e_wo_entrp">    -49.03369577 </i>
    <i name="e_0_energy">    -49.02849939 </i>
   </energy>
  </scstep>
  <scstep>
   <time name="diag">    1.09    1.09</time>
   <time name="diis">    6.81    6.82</time>
   <time name="orth">    0.06    0.06</time>
   <time name="total">    9.83    9.84</time>
   <energy>
    <i name="e_fr_energy">    -48.97089469 </i>
    <i name="e_wo_entrp">    -48.97831834 </i>
    <i name="e_0_energy">    -48.97336924 </i>
   </energy>
  </scstep>
  <scstep>
   <time name="diag">    1.09    1.09</time>
   <time name="diis">    6.87    6.88</time>
   <time name="orth">    0.06    0.06</time>
   <time name="total">    9.89    9.90</time>
   <energy>
    <i name="e_fr_energy">    -48.96375448 </i>
    <i name="e_wo_entrp">    -48.97124064 </i>
    <i name="e_0_energy">    -48.96624987 </i>
   </energy>
  </scstep>
  <scstep>
   <time name="diag">    1.09    1.10</time>
   <time name="diis">    6.85    6.86</time>
   <time name="orth">    0.06    0.06</time>
   <time name="total">    9.87    9.88</time>
   <energy>
    <i name="e_fr_energy">    -48.96023972 </i>
    <i name="e_wo_entrp">    -48.96766466 </i>
    <i name="e_0_energy">    -48.96271470 </i>
   </energy>
  </scstep>
  <scstep>
   <time name="diag">    1.09    1.09</time>
   <time name="diis">    7.14    7.15</time>
   <time name="orth">    0.06    0.06</time>
   <time name="total">   10.16   10.17</time>
   <energy>
    <i name="e_fr_energy">    -48.95954443 </i>
    <i name="e_wo_entrp">    -48.96695907 </i>
    <i name="e_0_energy">    -48.96201597 </i>
   </energy>
  </scstep>
  <scstep>
   <time name="diag">    1.09    1.09</time>
   <time name="diis">    6.87    6.88</time>
   <time name="orth">    0.06    0.06</time>
   <time name="total">    9.89    9.91</time>
   <energy>
    <i name="e_fr_energy">    -48.96052179 </i>
    <i name="e_wo_entrp">    -48.96794051 </i>
    <i name="e_0_energy">    -48.96299470 </i>
   </energy>
  </scstep>
  <scstep>
   <time name="diag">    1.09    1.10</time>
   <time name="diis">    6.55    6.55</time>
   <time name="orth">    0.06    0.06</time>
   <time name="total">    9.58    9.59</time>
   <energy>
    <i name="e_fr_energy">    -48.96160509 </i>
    <i name="e_wo_entrp">    -48.96901410 </i>
    <i name="e_0_energy">    -48.96407476 </i>
   </energy>
  </scstep>
  <scstep>
   <time name="diag">    1.09    1.10</time>
   <time name="diis">    6.41    6.42</time>
   <time name="orth">    0.06    0.06</time>
   <time name="total">    9.44    9.45</time>
   <energy>
    <i name="e_fr_energy">    -48.96307106 </i>
    <i name="e_wo_entrp">    -48.97049877 </i>
    <i name="e_0_energy">    -48.96554696 </i>
   </energy>
  </scstep>
  <scstep>
   <time name="diag">    1.09    1.09</time>
   <time name="diis">    6.89    6.90</time>
   <time name="orth">    0.06    0.06</time>
   <time name="total">    9.92    9.93</time>
   <energy>
    <i name="e_fr_energy">    -48.96490134 </i>
    <i name="e_wo_entrp">    -48.97233717 </i>
    <i name="e_0_energy">    -48.96737995 </i>
   </energy>
  </scstep>
  <scstep>
   <time name="diag">    1.09    1.10</time>
   <time name="diis">    6.49    6.51</time>
   <time name="orth">    0.06    0.06</time>
   <time name="total">    9.51    9.54</time>
   <energy>
    <i name="e_fr_energy">    -48.96570963 </i>
    <i name="e_wo_entrp">    -48.97314325 </i>
    <i name="e_0_energy">    -48.96818751 </i>
   </energy>
  </scstep>
  <scstep>
   <time name="diag">    1.09    1.10</time>
   <time name="diis">    7.62    7.63</time>
   <time name="orth">    0.06    0.06</time>
   <time name="total">   10.65   10.67</time>
   <energy>
    <i name="e_fr_energy">    -48.96646442 </i>
    <i name="e_wo_entrp">    -48.97389831 </i>
    <i name="e_0_energy">    -48.96894238 </i>
   </energy>
  </scstep>
  <scstep>
   <time name="diag">    1.09    1.10</time>
   <time name="diis">    6.68    6.69</time>
   <time name="orth">    0.06    0.06</time>
   <time name="total">    9.71    9.73</time>
   <energy>
    <i name="e_fr_energy">    -48.96706508 </i>
    <i name="e_wo_entrp">    -48.97449859 </i>
    <i name="e_0_energy">    -48.96954291 </i>
   </energy>
  </scstep>
  <scstep>
   <time name="diag">    1.09    1.09</time>
   <time name="diis">    6.46    6.48</time>
   <time name="orth">    0.06    0.06</time>
   <time name="total">    9.49    9.51</time>
   <energy>
    <i name="e_fr_energy">    -48.96746051 </i>
    <i name="e_wo_entrp">    -48.97489150 </i>
    <i name="e_0_energy">    -48.96993750 </i>
   </energy>
  </scstep>
  <scstep>
   <time name="diag">    1.09    1.10</time>
   <time name="diis">    6.53    6.55</time>
   <time name="orth">    0.06    0.06</time>
   <time name="total">    9.57    9.59</time>
   <energy>
    <i name="e_fr_energy">    -48.96773892 </i>
    <i name="e_wo_entrp">    -48.97517174 </i>
    <i name="e_0_energy">    -48.97021653 </i>
   </energy>
  </scstep>
  <scstep>
   <time name="diag">    1.10    1.10</time>
   <time name="diis">    6.54    6.55</time>
   <time name="orth">    0.06    0.06</time>
   <time name="total">    9.58    9.59</time>
   <energy>
    <i name="e_fr_energy">    -48.96789380 </i>
    <i name="e_wo_entrp">    -48.97532672 </i>
    <i name="e_0_energy">    -48.97037144 </i>
   </energy>
  </scstep>
  <scstep>
   <time name="diag">    1.09    1.09</time>
   <time name="diis">    6.43    6.44</time>
   <time name="orth">    0.06    0.06</time>
   <time name="total">    9.46    9.48</time>
   <energy>
    <i name="e_fr_energy">    -48.96798347 </i>
    <i name="e_wo_entrp">    -48.97541645 </i>
    <i name="e_0_energy">    -48.97046113 </i>
   </energy>
  </scstep>
  <scstep>
   <time name="diag">    1.09    1.09</time>
   <time name="diis">    6.32    6.33</time>
   <time name="orth">    0.06    0.06</time>
   <time name="total">    9.36    9.37</time>
   <energy>
    <i name="e_fr_energy">    -48.96806042 </i>
    <i name="e_wo_entrp">    -48.97549362 </i>
    <i name="e_0_energy">    -48.97053815 </i>
   </energy>
  </scstep>
  <scstep>
   <time name="diag">    1.09    1.09</time>
   <time name="diis">    6.56    6.57</time>
   <time name="orth">    0.06    0.06</time>
   <time name="total">    9.61    9.62</time>
   <energy>
    <i name="e_fr_energy">    -48.96810074 </i>
    <i name="e_wo_entrp">    -48.97553361 </i>
    <i name="e_0_energy">    -48.97057836 </i>
   </energy>
  </scstep>
  <scstep>
   <time name="diag">    1.10    1.10</time>
   <time name="diis">    4.85    4.85</time>
   <time name="orth">    0.06    0.06</time>
   <time name="total">    7.89    7.90</time>
   <energy>
    <i name="e_fr_energy">    -48.96811197 </i>
    <i name="e_wo_entrp">    -48.97554489 </i>
    <i name="e_0_energy">    -48.97058961 </i>
   </energy>
  </scstep>
  <scstep>
   <time name="diag">    1.10    1.10</time>
   <time name="diis">    4.45    4.46</time>
   <time name="orth">    0.06    0.06</time>
   <time name="total">    7.50    7.51</time>
   <energy>
    <i name="e_fr_energy">    -48.96811768 </i>
    <i name="e_wo_entrp">    -48.97555078 </i>
    <i name="e_0_energy">    -48.97059538 </i>
   </energy>
  </scstep>
  <scstep>
   <time name="diag">    1.10    1.10</time>
   <time name="diis">    4.49    4.49</time>
   <time name="orth">    0.06    0.06</time>
   <time name="total">    7.54    7.55</time>
   <energy>
    <i name="e_fr_energy">    -48.96812157 </i>
    <i name="e_wo_entrp">    -48.97555471 </i>
    <i name="e_0_energy">    -48.97059928 </i>
   </energy>
  </scstep>
  <scstep>
   <time name="diag">    1.10    1.10</time>
   <time name="diis">    4.35    4.36</time>
   <time name="orth">    0.06    0.06</time>
   <time name="total">    7.41    7.42</time>
   <energy>
    <i name="e_fr_energy">    -48.96812347 </i>
    <i name="e_wo_entrp">    -48.97555672 </i>
    <i name="e_0_energy">    -48.97060122 </i>
   </energy>
  </scstep>
  <scstep>
   <time name="diag">    1.10    1.10</time>
   <time name="diis">    4.39    4.39</time>
   <time name="orth">    0.06    0.06</time>
   <time name="total">    7.46    7.47</time>
   <energy>
    <i name="e_fr_energy">    -48.96812421 </i>
    <i name="e_wo_entrp">    -48.97555744 </i>
    <i name="e_0_energy">    -48.97060195 </i>
   </energy>
  </scstep>
  <scstep>
   <time name="diag">    1.10    1.10</time>
   <time name="diis">    4.12    4.13</time>
   <time name="orth">    0.06    0.06</time>
   <time name="total">    7.20    7.21</time>
   <energy>
    <i name="e_fr_energy">    -48.96812491 </i>
    <i name="e_wo_entrp">    -48.97555814 </i>
    <i name="e_0_energy">    -48.97060265 </i>
   </energy>
  </scstep>
  <scstep>
   <time name="diag">    1.10    1.10</time>
   <time name="diis">    4.27    4.28</time>
   <time name="orth">    0.06    0.06</time>
   <time name="total">    7.36    7.36</time>
   <energy>
    <i name="e_fr_energy">    -48.96812531 </i>
    <i name="e_wo_entrp">    -48.97555853 </i>
    <i name="e_0_energy">    -48.97060305 </i>
   </energy>
  </scstep>
  <scstep>
   <time name="diag">    1.10    1.10</time>
   <time name="diis">    4.10    4.10</time>
   <time name="orth">    0.06    0.06</time>
   <time name="total">    7.19    7.20</time>
   <energy>
    <i name="e_fr_energy">    -48.96812578 </i>
    <i name="e_wo_entrp">    -48.97555898 </i>
    <i name="e_0_energy">    -48.97060351 </i>
   </energy>
  </scstep>
  <scstep>
   <time name="diag">    1.10    1.10</time>
   <time name="diis">    3.91    3.92</time>
   <time name="orth">    0.06    0.06</time>
   <time name="total">    7.01    7.02</time>
   <energy>
    <i name="e_fr_energy">    -48.96812606 </i>
    <i name="e_wo_entrp">    -48.97555926 </i>
    <i name="e_0_energy">    -48.97060379 </i>
   </energy>
  </scstep>
  <scstep>
   <time name="diag">    1.10    1.10</time>
   <time name="diis">    3.55    3.55</time>
   <time name="orth">    0.06    0.06</time>
   <time name="total">    6.65    6.66</time>
   <energy>
    <i name="e_fr_energy">    -48.96812621 </i>
    <i name="e_wo_entrp">    -48.97555941 </i>
    <i name="e_0_energy">    -48.97060394 </i>
   </energy>
  </scstep>
  <scstep>
   <time name="diag">    1.10    1.10</time>
   <time name="diis">    3.56    3.57</time>
   <time name="orth">    0.06    0.06</time>
   <time name="total">    5.90    5.91</time>
   <energy>
    <i name="alphaZ">     41.16232785 </i>
    <i name="ewald">  16734.53448994 </i>
    <i name="hartreedc"> -33710.69385717 </i>
    <i name="XCdc">    615.81961489 </i>
    <i name="pawpsdc">  17699.95762690 </i>
    <i name="pawaedc"> -19099.40747095 </i>
    <i name="eentropy">      0.00743320 </i>
    <i name="bandstr">   -992.56753808 </i>
    <i name="atom">  18662.21924712 </i>
    <i name="e_fr_energy">    -48.96812630 </i>
    <i name="e_wo_entrp">    -48.97555950 </i>
    <i name="e_0_energy">    -48.97060403 </i>
   </energy>
  </scstep>
  <structure>
   <crystal>
    <varray name="basis" >
     <v>      15.00000000       0.00000000       0.00000000 </v>
     <v>       0.00000000      15.00000000       0.00000000 </v>
     <v>       0.00000000       0.00000000      15.00000000 </v>
    </varray>
    <i name="volume">   3375.00000000 </i>
    <varray name="rec_basis" >
     <v>       0.06666667       0.00000000       0.00000000 </v>
     <v>       0.00000000       0.06666667       0.00000000 </v>
     <v>       0.00000000       0.00000000       0.06666667 </v>
    </varray>
   </crystal>
   <varray name="positions" >
    <v>       0.29783667       0.42553600       0.55307200 </v>
    <v>       0.37769267       0.55087533       0.48823400 </v>
    <v>       0.40280400       0.29274333       0.57046133 </v>
    <v>       0.53466733       0.50932467       0.48489533 </v>
    <v>       0.55258533       0.34926800       0.52010000 </v>
    <v>       0.45245200       0.43561667       0.60418933 </v>
    <v>       0.41327133       0.39909867       0.44464533 </v>
    <v>       0.22389400       0.56971800       0.54008733 </v>
    <v>       0.33635200       0.54257200       0.65534667 </v>
    <v>       0.34125533       0.68178000       0.56681600 </v>
    <v>       0.49629000       0.66232733       0.48295800 </v>
    <v>       0.61068533       0.47195733       0.62010600 </v>
    <v>       0.48462133       0.59369133       0.61908933 </v>
    <v>       0.72404000       0.48832067       0.66113933 </v>
    <v>       0.79914000       0.50626067       0.65814867 </v>
   </varray>
  </structure>
  <varray name="forces" >
   <v>      -0.33688459      -0.51695353       0.03643475 </v>
   <v>      -0.07221886       0.07168588      -0.01702737 </v>
   <v>      -0.17655827      -0.14378236      -0.26924776 </v>
   <v>       0.19172593      -0.28412906      -0.28157353 </v>
   <v>       0.02938785      -0.07670676      -0.02886977 </v>
   <v>      -0.15687858       0.22945457       0.36031116 </v>
   <v>       0.31049944      -0.09524359       0.18006498 </v>
   <v>       0.10389225       0.01283858       0.13939269 </v>
   <v>       0.01503928       0.20680614      -0.22287383 </v>
   <v>       0.39867964       0.04629841       0.08936616 </v>
   <v>      -0.28657321       0.62549349      -0.24278760 </v>
   <v>      -0.02744497       0.03655372       0.02970097 </v>
   <v>      -0.09951469      -0.15245498       0.21706422 </v>
   <v>       0.27549512       0.12080271      -0.13773384 </v>
   <v>      -0.16864635      -0.08066321       0.14777877 </v>
  </varray>
  <varray name="stress" >
   <v>      -0.05798042       0.39307732      -0.17739405 </v>
   <v>       0.39307732       1.20286258       0.08341478 </v>
   <v>      -0.17739406       0.08341477       0.13407826 </v>
  </varray>
  <energy>
   <i name="e_fr_energy">    -48.96812630 </i>
   <i name="e_wo_entrp">    -48.97060403 </i>
   <i name="e_0_energy">      0.00743320 </i>
  </energy>
  <time name="totalsc">  345.73  346.25</time>
  <eigenvalues>
   <array>
    <dimension dim="1">band</dimension>
    <dimension dim="2">kpoint</dimension>
    <dimension dim="3">spin</dimension>
    <field>eigene</field>
    <field>occ</field>
    <set>
     <set comment="spin 1">
      <set comment="kpoint 1">
       <r>  -28.3470    1.0000 </r>
       <r>  -13.7797    1.0000 </r>
       <r>  -11.3159    1.0000 </r>
       <r>  -11.0384    1.0000 </r>
       <r>  -10.8548    1.0000 </r>
       <r>  -10.2377    1.0000 </r>
       <r>   -8.6736    1.0000 </r>
       <r>   -8.3216    1.0000 </r>
       <r>   -7.7907    1.0000 </r>
       <r>   -7.6777    1.0000 </r>
       <r>   -7.5117    1.0000 </r>
       <r>   -7.4458    1.0000 </r>
       <r>   -7.3594    1.0000 </r>
       <r>   -7.2539    1.0000 </r>
       <r>   -7.0749    1.0000 </r>
       <r>   -7.0227    1.0000 </r>
       <r>   -6.8937    1.0000 </r>
       <r>   -6.8080    1.0000 </r>
       <r>   -6.7539    1.0000 </r>
       <r>   -6.7019    1.0000 </r>
       <r>   -6.6554    1.0000 </r>
       <r>   -6.5656    1.0000 </r>
       <r>   -6.5407    1.0000 </r>
       <r>   -6.5107    1.0000 </r>
       <r>   -6.4682    1.0000 </r>
       <r>   -6.3891    1.0000 </r>
       <r>   -6.3663    1.0000 </r>
       <r>   -6.3229    1.0000 </r>
       <r>   -6.2753    1.0000 </r>
       <r>   -6.2056    1.0000 </r>
       <r>   -6.1704    1.0000 </r>
       <r>   -6.1641    1.0000 </r>
       <r>   -6.0965    1.0000 </r>
       <r>   -6.0499    1.0000 </r>
       <r>   -5.9638    1.0000 </r>
       <r>   -5.8485    1.0000 </r>
       <r>   -5.8090    1.0000 </r>
       <r>   -5.7721    1.0000 </r>
       <r>   -5.6951    1.0000 </r>
       <r>   -5.6424    1.0000 </r>
       <r>   -5.6247    1.0000 </r>
       <r>   -5.5907    1.0000 </r>
       <r>   -5.5474    1.0000 </r>
       <r>   -5.4925    1.0000 </r>
       <r>   -5.4662    1.0000 </r>
       <r>   -5.4407    1.0000 </r>
       <r>   -5.4208    1.0000 </r>
       <r>   -5.3767    1.0000 </r>
       <r>   -5.3513    1.0000 </r>
       <r>   -5.3280    1.0000 </r>
       <r>   -5.3128    1.0000 </r>
       <r>   -5.2830    1.0000 </r>
       <r>   -5.2549    1.0000 </r>
       <r>   -5.2439    1.0000 </r>
       <r>   -5.2186    1.0000 </r>
       <r>   -5.1736    1.0000 </r>
       <r>   -5.1611    1.0000 </r>
       <r>   -5.1382    1.0000 </r>
       <r>   -5.1259    1.0000 </r>
       <r>   -5.0998    1.0000 </r>
       <r>   -5.0628    1.0000 </r>
       <r>   -5.0110    1.0000 </r>
       <r>   -4.9908    1.0000 </r>
       <r>   -4.9788    1.0000 </r>
       <r>   -4.9407    1.0000 </r>
       <r>   -4.9244    1.0000 </r>
       <r>   -4.9120    1.0000 </r>
       <r>   -4.8986    1.0000 </r>
       <r>   -4.8783    1.0000 </r>
       <r>   -4.8318    1.0000 </r>
       <r>   -4.7847    1.0000 </r>
       <r>   -4.7709    1.0000 </r>
       <r>   -4.7358    1.0000 </r>
       <r>   -4.5342    1.0000 </r>
       <r>   -4.2126    1.0000 </r>
       <r>   -4.1147    1.0000 </r>
       <r>   -3.4895    1.0000 </r>
       <r>   -3.0059   -0.0000 </r>
       <r>   -2.9026   -0.0000 </r>
       <r>   -2.5173   -0.0000 </r>
       <r>   -2.2744   -0.0000 </r>
       <r>   -1.9879   -0.0000 </r>
       <r>   -1.8028   -0.0000 </r>
       <r>   -1.7559   -0.0000 </r>
       <r>   -1.3229   -0.0000 </r>
       <r>   -0.9767   -0.0000 </r>
       <r>   -0.9393   -0.0000 </r>
       <r>   -0.7693   -0.0000 </r>
       <r>   -0.3561    0.0000 </r>
       <r>   -0.2920    0.0000 </r>
       <r>   -0.1953    0.0000 </r>
       <r>    0.0827    0.0000 </r>
      </set>
     </set>
     <set comment="spin 2">
      <set comment="kpoint 1">
       <r>  -28.3237    1.0000 </r>
       <r>  -13.7396    1.0000 </r>
       <r>  -11.2807    1.0000 </r>
       <r>  -11.0225    1.0000 </r>
       <r>  -10.7877    1.0000 </r>
       <r>  -10.1964    1.0000 </r>
       <r>   -8.6518    1.0000 </r>
       <r>   -8.2757    1.0000 </r>
       <r>   -7.7517    1.0000 </r>
       <r>   -7.6609    1.0000 </r>
       <r>   -7.4826    1.0000 </r>
       <r>   -7.4099    1.0000 </r>
       <r>   -7.3231    1.0000 </r>
       <r>   -7.2273    1.0000 </r>
       <r>   -7.0480    1.0000 </r>
       <r>   -6.9840    1.0000 </r>
       <r>   -6.8588    1.0000 </r>
       <r>   -6.7781    1.0000 </r>
       <r>   -6.7346    1.0000 </r>
       <r>   -6.6836    1.0000 </r>
       <r>   -6.6332    1.0000 </r>
       <r>   -6.5400    1.0000 </r>
       <r>   -6.5177    1.0000 </r>
       <r>   -6.4853    1.0000 </r>
       <r>   -6.4383    1.0000 </r>
       <r>   -6.3611    1.0000 </r>
       <r>   -6.3417    1.0000 </r>
       <r>   -6.2988    1.0000 </r>
       <r>   -6.2513    1.0000 </r>
       <r>   -6.1778    1.0000 </r>
       <r>   -6.1487    1.0000 </r>
       <r>   -6.1417    1.0000 </r>
       <r>   -6.0703    1.0000 </r>
       <r>   -6.0300    1.0000 </r>
       <r>   -5.9377    1.0000 </r>
       <r>   -5.8244    1.0000 </r>
       <r>   -5.7828    1.0000 </r>
       <r>   -5.7442    1.0000 </r>
       <r>   -5.6647    1.0000 </r>
       <r>   -5.6173    1.0000 </r>
       <r>   -5.5997    1.0000 </r>
       <r>   -5.5662    1.0000 </r>
       <r>   -5.5228    1.0000 </r>
       <r>   -5.4668    1.0000 </r>
       <r>   -5.4428    1.0000 </r>
       <r>   -5.4089    1.0000 </r>
       <r>   -5.3931    1.0000 </r>
       <r>   -5.3567    1.0000 </r>
       <r>   -5.3310    1.0000 </r>
       <r>   -5.3031    1.0000 </r>
       <r>   -5.2839    1.0000 </r>
       <r>   -5.2595    1.0000 </r>
       <r>   -5.2244    1.0000 </r>
       <r>   -5.2225    1.0000 </r>
       <r>   -5.1924    1.0000 </r>
       <r>   -5.1515    1.0000 </r>
       <r>   -5.1421    1.0000 </r>
       <r>   -5.1184    1.0000 </r>
       <r>   -5.1049    1.0000 </r>
       <r>   -5.0730    1.0000 </r>
       <r>   -5.0402    1.0000 </r>
       <r>   -4.9868    1.0000 </r>
       <r>   -4.9618    1.0000 </r>
       <r>   -4.9555    1.0000 </r>
       <r>   -4.9208    1.0000 </r>
       <r>   -4.8953    1.0000 </r>
       <r>   -4.8867    1.0000 </r>
       <r>   -4.8640    1.0000 </r>
       <r>   -4.8469    1.0000 </r>
       <r>   -4.7980    1.0000 </r>
       <r>   -4.7598    1.0000 </r>
       <r>   -4.7365    1.0000 </r>
       <r>   -4.7076    1.0000 </r>
       <r>   -4.4882    1.0000 </r>
       <r>   -4.1683    1.0123 </r>
       <r>   -4.0616    0.9877 </r>
       <r>   -3.2791   -0.0000 </r>
       <r>   -2.9531   -0.0000 </r>
       <r>   -2.8526   -0.0000 </r>
       <r>   -2.4378   -0.0000 </r>
       <r>   -2.1865   -0.0000 </r>
       <r>   -1.9521   -0.0000 </r>
       <r>   -1.7236   -0.0000 </r>
       <r>   -1.6864   -0.0000 </r>
       <r>   -1.1925    0.0000 </r>
       <r>   -0.8988    0.0000 </r>
       <r>   -0.8011    0.0000 </r>
       <r>   -0.6956    0.0000 </r>
       <r>   -0.2674    0.0000 </r>
       <r>   -0.2492    0.0000 </r>
       <r>   -0.0917    0.0000 </r>
       <r>    0.1697    0.0000 </r>
      </set>
     </set>
    </set>
   </array>
  </eigenvalues>
  <separator name="orbital magnetization" >
   <v name="MAGDIPOLOUT">      0.00000000      0.00000000      0.00000000</v>
  </separator>
  <dos>
   <i name="efermi">     -3.98248874 </i>
   <total>
    <array>
     <dimension dim="1">gridpoints</dimension>
     <dimension dim="2">spin</dimension>
     <field>energy</field>
     <field>total</field>
     <field>integrated</field>
     <set>
      <set comment="spin 1">
       <r>   -29.7729     0.0000     0.0000 </r>
       <r>   -29.6683     0.0000     0.0000 </r>
       <r>   -29.5637     0.0000     0.0000 </r>
       <r>   -29.4592     0.0000     0.0000 </r>
       <r>   -29.3546     0.0000     0.0000 </r>
       <r>   -29.2500    -0.0000    -0.0000 </r>
       <r>   -29.1455    -0.0000    -0.0000 </r>
       <r>   -29.0409    -0.0000    -0.0000 </r>
       <r>   -28.9364    -0.0000    -0.0000 </r>
       <r>   -28.8318    -0.0000    -0.0000 </r>
       <r>   -28.7272    -0.0000    -0.0000 </r>
       <r>   -28.6227    -0.0065    -0.0007 </r>
       <r>   -28.5181    -0.3391    -0.0361 </r>
       <r>   -28.4136     1.3555     0.1056 </r>
       <r>   -28.3090    14.2431     1.5949 </r>
       <r>   -28.2044     4.4635     2.0616 </r>
       <r>   -28.0999    -0.5638     2.0026 </r>
       <r>   -27.9953    -0.0251     2.0000 </r>
       <r>   -27.8908    -0.0001     2.0000 </r>
       <r>   -27.7862    -0.0000     2.0000 </r>
       <r>   -27.6816    -0.0000     2.0000 </r>
       <r>   -27.5771     0.0000     2.0000 </r>
       <r>   -27.4725     0.0000     2.0000 </r>
       <r>   -27.3679     0.0000     2.0000 </r>
       <r>   -27.2634     0.0000     2.0000 </r>
       <r>   -27.1588     0.0000     2.0000 </r>
       <r>   -27.0543     0.0000     2.0000 </r>
       <r>   -26.9497     0.0000     2.0000 </r>
       <r>   -26.8451     0.0000     2.0000 </r>
       <r>   -26.7406     0.0000     2.0000 </r>
       <r>   -26.6360     0.0000     2.0000 </r>
       <r>   -26.5315     0.0000     2.0000 </r>
       <r>   -26.4269     0.0000     2.0000 </r>
       <r>   -26.3223     0.0000     2.0000 </r>
       <r>   -26.2178     0.0000     2.0000 </r>
       <r>   -26.1132     0.0000     2.0000 </r>
       <r>   -26.0086     0.0000     2.0000 </r>
       <r>   -25.9041     0.0000     2.0000 </r>
       <r>   -25.7995     0.0000     2.0000 </r>
       <r>   -25.6950     0.0000     2.0000 </r>
       <r>   -25.5904     0.0000     2.0000 </r>
       <r>   -25.4858     0.0000     2.0000 </r>
       <r>   -25.3813     0.0000     2.0000 </r>
       <r>   -25.2767     0.0000     2.0000 </r>
       <r>   -25.1722     0.0000     2.0000 </r>
       <r>   -25.0676     0.0000     2.0000 </r>
       <r>   -24.9630     0.0000     2.0000 </r>
       <r>   -24.8585     0.0000     2.0000 </r>
       <r>   -24.7539     0.0000     2.0000 </r>
       <r>   -24.6494     0.0000     2.0000 </r>
       <r>   -24.5448     0.0000     2.0000 </r>
       <r>   -24.4402     0.0000     2.0000 </r>
       <r>   -24.3357     0.0000     2.0000 </r>
       <r>   -24.2311     0.0000     2.0000 </r>
       <r>   -24.1265     0.0000     2.0000 </r>
       <r>   -24.0220     0.0000     2.0000 </r>
       <r>   -23.9174     0.0000     2.0000 </r>
       <r>   -23.8129     0.0000     2.0000 </r>
       <r>   -23.7083     0.0000     2.0000 </r>
       <r>   -23.6037     0.0000     2.0000 </r>
       <r>   -23.4992     0.0000     2.0000 </r>
       <r>   -23.3946     0.0000     2.0000 </r>
       <r>   -23.2901     0.0000     2.0000 </r>
       <r>   -23.1855     0.0000     2.0000 </r>
       <r>   -23.0809     0.0000     2.0000 </r>
       <r>   -22.9764     0.0000     2.0000 </r>
       <r>   -22.8718     0.0000     2.0000 </r>
       <r>   -22.7673     0.0000     2.0000 </r>
       <r>   -22.6627     0.0000     2.0000 </r>
       <r>   -22.5581     0.0000     2.0000 </r>
       <r>   -22.4536     0.0000     2.0000 </r>
       <r>   -22.3490     0.0000     2.0000 </r>
       <r>   -22.2444     0.0000     2.0000 </r>
       <r>   -22.1399     0.0000     2.0000 </r>
       <r>   -22.0353     0.0000     2.0000 </r>
       <r>   -21.9308     0.0000     2.0000 </r>
       <r>   -21.8262     0.0000     2.0000 </r>
       <r>   -21.7216     0.0000     2.0000 </r>
       <r>   -21.6171     0.0000     2.0000 </r>
       <r>   -21.5125     0.0000     2.0000 </r>
       <r>   -21.4080     0.0000     2.0000 </r>
       <r>   -21.3034     0.0000     2.0000 </r>
       <r>   -21.1988     0.0000     2.0000 </r>
       <r>   -21.0943     0.0000     2.0000 </r>
       <r>   -20.9897     0.0000     2.0000 </r>
       <r>   -20.8852     0.0000     2.0000 </r>
       <r>   -20.7806     0.0000     2.0000 </r>
       <r>   -20.6760     0.0000     2.0000 </r>
       <r>   -20.5715     0.0000     2.0000 </r>
       <r>   -20.4669     0.0000     2.0000 </r>
       <r>   -20.3623     0.0000     2.0000 </r>
       <r>   -20.2578     0.0000     2.0000 </r>
       <r>   -20.1532     0.0000     2.0000 </r>
       <r>   -20.0487     0.0000     2.0000 </r>
       <r>   -19.9441     0.0000     2.0000 </r>
       <r>   -19.8395     0.0000     2.0000 </r>
       <r>   -19.7350     0.0000     2.0000 </r>
       <r>   -19.6304     0.0000     2.0000 </r>
       <r>   -19.5259     0.0000     2.0000 </r>
       <r>   -19.4213     0.0000     2.0000 </r>
       <r>   -19.3167     0.0000     2.0000 </r>
       <r>   -19.2122     0.0000     2.0000 </r>
       <r>   -19.1076     0.0000     2.0000 </r>
       <r>   -19.0031     0.0000     2.0000 </r>
       <r>   -18.8985     0.0000     2.0000 </r>
       <r>   -18.7939     0.0000     2.0000 </r>
       <r>   -18.6894     0.0000     2.0000 </r>
       <r>   -18.5848     0.0000     2.0000 </r>
       <r>   -18.4802     0.0000     2.0000 </r>
       <r>   -18.3757     0.0000     2.0000 </r>
       <r>   -18.2711     0.0000     2.0000 </r>
       <r>   -18.1666     0.0000     2.0000 </r>
       <r>   -18.0620     0.0000     2.0000 </r>
       <r>   -17.9574     0.0000     2.0000 </r>
       <r>   -17.8529     0.0000     2.0000 </r>
       <r>   -17.7483     0.0000     2.0000 </r>
       <r>   -17.6438     0.0000     2.0000 </r>
       <r>   -17.5392     0.0000     2.0000 </r>
       <r>   -17.4346     0.0000     2.0000 </r>
       <r>   -17.3301     0.0000     2.0000 </r>
       <r>   -17.2255     0.0000     2.0000 </r>
       <r>   -17.1210     0.0000     2.0000 </r>
       <r>   -17.0164     0.0000     2.0000 </r>
       <r>   -16.9118     0.0000     2.0000 </r>
       <r>   -16.8073     0.0000     2.0000 </r>
       <r>   -16.7027     0.0000     2.0000 </r>
       <r>   -16.5981     0.0000     2.0000 </r>
       <r>   -16.4936     0.0000     2.0000 </r>
       <r>   -16.3890     0.0000     2.0000 </r>
       <r>   -16.2845     0.0000     2.0000 </r>
       <r>   -16.1799     0.0000     2.0000 </r>
       <r>   -16.0753     0.0000     2.0000 </r>
       <r>   -15.9708     0.0000     2.0000 </r>
       <r>   -15.8662     0.0000     2.0000 </r>
       <r>   -15.7617     0.0000     2.0000 </r>
       <r>   -15.6571     0.0000     2.0000 </r>
       <r>   -15.5525     0.0000     2.0000 </r>
       <r>   -15.4480     0.0000     2.0000 </r>
       <r>   -15.3434     0.0000     2.0000 </r>
       <r>   -15.2389     0.0000     2.0000 </r>
       <r>   -15.1343     0.0000     2.0000 </r>
       <r>   -15.0297     0.0000     2.0000 </r>
       <r>   -14.9252     0.0000     2.0000 </r>
       <r>   -14.8206     0.0000     2.0000 </r>
       <r>   -14.7160     0.0000     2.0000 </r>
       <r>   -14.6115    -0.0000     2.0000 </r>
       <r>   -14.5069    -0.0000     2.0000 </r>
       <r>   -14.4024    -0.0000     2.0000 </r>
       <r>   -14.2978    -0.0000     2.0000 </r>
       <r>   -14.1932    -0.0000     2.0000 </r>
       <r>   -14.0887    -0.0011     1.9999 </r>
       <r>   -13.9841    -0.1310     1.9862 </r>
       <r>   -13.8796    -0.3465     1.9500 </r>
       <r>   -13.7750    10.7965     3.0789 </r>
       <r>   -13.6704     9.4264     4.0645 </r>
       <r>   -13.5659    -0.5212     4.0100 </r>
       <r>   -13.4613    -0.0949     4.0001 </r>
       <r>   -13.3568    -0.0006     4.0000 </r>
       <r>   -13.2522    -0.0000     4.0000 </r>
       <r>   -13.1476    -0.0000     4.0000 </r>
       <r>   -13.0431     0.0000     4.0000 </r>
       <r>   -12.9385     0.0000     4.0000 </r>
       <r>   -12.8339     0.0000     4.0000 </r>
       <r>   -12.7294     0.0000     4.0000 </r>
       <r>   -12.6248     0.0000     4.0000 </r>
       <r>   -12.5203     0.0000     4.0000 </r>
       <r>   -12.4157     0.0000     4.0000 </r>
       <r>   -12.3111     0.0000     4.0000 </r>
       <r>   -12.2066    -0.0000     4.0000 </r>
       <r>   -12.1020    -0.0000     4.0000 </r>
       <r>   -11.9975    -0.0000     4.0000 </r>
       <r>   -11.8929    -0.0000     4.0000 </r>
       <r>   -11.7883    -0.0000     4.0000 </r>
       <r>   -11.6838    -0.0000     4.0000 </r>
       <r>   -11.5792    -0.0119     3.9987 </r>
       <r>   -11.4747    -0.4400     3.9527 </r>
       <r>   -11.3701     2.5100     4.2152 </r>
       <r>   -11.2655    14.5627     5.7379 </r>
       <r>   -11.1610     2.3136     5.9798 </r>
       <r>   -11.0564     6.7592     6.6866 </r>
       <r>   -10.9518    12.2388     7.9663 </r>
       <r>   -10.8473    11.3005     9.1479 </r>
       <r>   -10.7427     8.7936    10.0673 </r>
       <r>   -10.6382    -0.5578    10.0090 </r>
       <r>   -10.5336    -0.0879     9.9998 </r>
       <r>   -10.4290    -0.1988     9.9790 </r>
       <r>   -10.3245     0.0984     9.9893 </r>
       <r>   -10.2199    12.5006    11.2964 </r>
       <r>   -10.1154     7.4072    12.0709 </r>
       <r>   -10.0108    -0.6199    12.0061 </r>
       <r>    -9.9062    -0.0580    12.0000 </r>
       <r>    -9.8017    -0.0003    12.0000 </r>
       <r>    -9.6971    -0.0000    12.0000 </r>
       <r>    -9.5926    -0.0000    12.0000 </r>
       <r>    -9.4880    -0.0000    12.0000 </r>
       <r>    -9.3834    -0.0000    12.0000 </r>
       <r>    -9.2789    -0.0000    12.0000 </r>
       <r>    -9.1743    -0.0000    12.0000 </r>
       <r>    -9.0697    -0.0000    12.0000 </r>
       <r>    -8.9652    -0.0028    11.9997 </r>
       <r>    -8.8606    -0.2243    11.9763 </r>
       <r>    -8.7561     0.3011    12.0077 </r>
       <r>    -8.6515    12.9684    13.3637 </r>
       <r>    -8.5469     6.6966    14.0639 </r>
       <r>    -8.4424    -1.2396    13.9343 </r>
       <r>    -8.3378     7.6008    14.7291 </r>
       <r>    -8.2333    12.3151    16.0167 </r>
       <r>    -8.1287     0.0308    16.0200 </r>
       <r>    -8.0241    -0.2340    15.9955 </r>
       <r>    -7.9196    -0.6558    15.9269 </r>
       <r>    -7.8150     5.8269    16.5362 </r>
       <r>    -7.7105    18.2200    18.4413 </r>
       <r>    -7.6059    13.6905    19.8728 </r>
       <r>    -7.5013    14.0627    21.3432 </r>
       <r>    -7.3968    26.8570    24.1514 </r>
       <r>    -7.2922    21.0357    26.3509 </r>
       <r>    -7.1876    14.0462    27.8196 </r>
       <r>    -7.0831    11.6009    29.0326 </r>
       <r>    -6.9785    25.2129    31.6689 </r>
       <r>    -6.8740    16.5059    33.3948 </r>
       <r>    -6.7694    28.9877    36.4258 </r>
       <r>    -6.6648    37.2326    40.3188 </r>
       <r>    -6.5603    35.8192    44.0641 </r>
       <r>    -6.4557    47.9252    49.0753 </r>
       <r>    -6.3512    42.0080    53.4677 </r>
       <r>    -6.2466    42.4578    57.9071 </r>
       <r>    -6.1420    49.1759    63.0490 </r>
       <r>    -6.0375    40.1642    67.2486 </r>
       <r>    -5.9329    21.5047    69.4971 </r>
       <r>    -5.8283    25.5767    72.1715 </r>
       <r>    -5.7238    38.4721    76.1942 </r>
       <r>    -5.6192    45.4039    80.9416 </r>
       <r>    -5.5147    52.4189    86.4226 </r>
       <r>    -5.4101    62.8094    92.9900 </r>
       <r>    -5.3055    77.7776   101.1226 </r>
       <r>    -5.2010    84.1143   109.9176 </r>
       <r>    -5.0964    81.3950   118.4284 </r>
       <r>    -4.9919    67.3281   125.4683 </r>
       <r>    -4.8873    91.4513   135.0306 </r>
       <r>    -4.7827    68.3959   142.1821 </r>
       <r>    -4.6782    35.8914   145.9350 </r>
       <r>    -4.5736     5.0313   146.4610 </r>
       <r>    -4.4691    13.5993   147.8830 </r>
       <r>    -4.3645     0.9417   147.9814 </r>
       <r>    -4.2599     2.3864   148.2310 </r>
       <r>    -4.1554    18.6839   150.1846 </r>
       <r>    -4.0508    16.5750   151.9177 </r>
       <r>    -3.9462     1.1657   152.0396 </r>
       <r>    -3.8417    -0.3710   152.0008 </r>
       <r>    -3.7371    -0.0320   151.9974 </r>
       <r>    -3.6326    -0.5607   151.9388 </r>
       <r>    -3.5280     4.3996   152.3988 </r>
       <r>    -3.4234    14.2682   153.8907 </r>
       <r>    -3.3189     1.3938   154.0365 </r>
       <r>    -3.2143    -0.4582   153.9886 </r>
       <r>    -3.1098    -0.5602   153.9300 </r>
       <r>    -3.0052     9.8131   154.9560 </r>
       <r>    -2.9006    20.4345   157.0927 </r>
       <r>    -2.7961     9.3678   158.0722 </r>
       <r>    -2.6915    -0.9051   157.9776 </r>
       <r>    -2.5870     1.0055   158.0827 </r>
       <r>    -2.4824    13.9433   159.5406 </r>
       <r>    -2.3778     4.4632   160.0073 </r>
       <r>    -2.2733     9.7060   161.0222 </r>
       <r>    -2.1687     9.6569   162.0319 </r>
       <r>    -2.0641     0.1764   162.0504 </r>
       <r>    -1.9596    12.8681   163.3959 </r>
       <r>    -1.8550     8.2170   164.2550 </r>
       <r>    -1.7505    24.9185   166.8606 </r>
       <r>    -1.6459    11.9902   168.1143 </r>
       <r>    -1.5413    -1.0673   168.0027 </r>
       <r>    -1.4368    -0.6787   167.9317 </r>
       <r>    -1.3322     8.7156   168.8430 </r>
       <r>    -1.2277    11.4128   170.0363 </r>
       <r>    -1.1231    -1.0021   169.9316 </r>
       <r>    -1.0185     4.2711   170.3782 </r>
       <r>    -0.9140    27.1611   173.2181 </r>
       <r>    -0.8094    12.1268   174.4861 </r>
       <r>    -0.7049    13.3587   175.8829 </r>
       <r>    -0.6003     1.4534   176.0349 </r>
       <r>    -0.4957    -1.0742   175.9226 </r>
       <r>    -0.3912     4.3637   176.3789 </r>
       <r>    -0.2866    24.8806   178.9804 </r>
       <r>    -0.1820    22.3747   181.3199 </r>
       <r>    -0.0775     6.8350   182.0346 </r>
       <r>     0.0271     1.6591   182.2081 </r>
       <r>     0.1316    14.5358   183.7280 </r>
       <r>     0.2362     3.1008   184.0522 </r>
       <r>     0.3408    -0.4836   184.0016 </r>
       <r>     0.4453    -0.0153   184.0000 </r>
       <r>     0.5499    -0.0000   184.0000 </r>
       <r>     0.6544    -0.0000   184.0000 </r>
       <r>     0.7590    -0.0000   184.0000 </r>
       <r>     0.8636     0.0000   184.0000 </r>
       <r>     0.9681     0.0000   184.0000 </r>
       <r>     1.0727     0.0000   184.0000 </r>
       <r>     1.1772     0.0000   184.0000 </r>
       <r>     1.2818     0.0000   184.0000 </r>
       <r>     1.3864     0.0000   184.0000 </r>
       <r>     1.4909     0.0000   184.0000 </r>
       <r>     1.5955     0.0000   184.0000 </r>
      </set>
      <set comment="spin 2">
       <r>   -29.7729     0.0000     0.0000 </r>
       <r>   -29.6683     0.0000     0.0000 </r>
       <r>   -29.5637     0.0000     0.0000 </r>
       <r>   -29.4592     0.0000     0.0000 </r>
       <r>   -29.3546     0.0000     0.0000 </r>
       <r>   -29.2500     0.0000     0.0000 </r>
       <r>   -29.1455    -0.0000    -0.0000 </r>
       <r>   -29.0409    -0.0000    -0.0000 </r>
       <r>   -28.9364    -0.0000    -0.0000 </r>
       <r>   -28.8318    -0.0000    -0.0000 </r>
       <r>   -28.7272    -0.0000    -0.0000 </r>
       <r>   -28.6227    -0.0019    -0.0002 </r>
       <r>   -28.5181    -0.1807    -0.0191 </r>
       <r>   -28.4136    -0.0295    -0.0222 </r>
       <r>   -28.3090    12.1334     1.2465 </r>
       <r>   -28.2044     7.8814     2.0706 </r>
       <r>   -28.0999    -0.6094     2.0069 </r>
       <r>   -27.9953    -0.0653     2.0000 </r>
       <r>   -27.8908    -0.0003     2.0000 </r>
       <r>   -27.7862    -0.0000     2.0000 </r>
       <r>   -27.6816    -0.0000     2.0000 </r>
       <r>   -27.5771     0.0000     2.0000 </r>
       <r>   -27.4725     0.0000     2.0000 </r>
       <r>   -27.3679     0.0000     2.0000 </r>
       <r>   -27.2634     0.0000     2.0000 </r>
       <r>   -27.1588     0.0000     2.0000 </r>
       <r>   -27.0543     0.0000     2.0000 </r>
       <r>   -26.9497     0.0000     2.0000 </r>
       <r>   -26.8451     0.0000     2.0000 </r>
       <r>   -26.7406     0.0000     2.0000 </r>
       <r>   -26.6360     0.0000     2.0000 </r>
       <r>   -26.5315     0.0000     2.0000 </r>
       <r>   -26.4269     0.0000     2.0000 </r>
       <r>   -26.3223     0.0000     2.0000 </r>
       <r>   -26.2178     0.0000     2.0000 </r>
       <r>   -26.1132     0.0000     2.0000 </r>
       <r>   -26.0086     0.0000     2.0000 </r>
       <r>   -25.9041     0.0000     2.0000 </r>
       <r>   -25.7995     0.0000     2.0000 </r>
       <r>   -25.6950     0.0000     2.0000 </r>
       <r>   -25.5904     0.0000     2.0000 </r>
       <r>   -25.4858     0.0000     2.0000 </r>
       <r>   -25.3813     0.0000     2.0000 </r>
       <r>   -25.2767     0.0000     2.0000 </r>
       <r>   -25.1722     0.0000     2.0000 </r>
       <r>   -25.0676     0.0000     2.0000 </r>
       <r>   -24.9630     0.0000     2.0000 </r>
       <r>   -24.8585     0.0000     2.0000 </r>
       <r>   -24.7539     0.0000     2.0000 </r>
       <r>   -24.6494     0.0000     2.0000 </r>
       <r>   -24.5448     0.0000     2.0000 </r>
       <r>   -24.4402     0.0000     2.0000 </r>
       <r>   -24.3357     0.0000     2.0000 </r>
       <r>   -24.2311     0.0000     2.0000 </r>
       <r>   -24.1265     0.0000     2.0000 </r>
       <r>   -24.0220     0.0000     2.0000 </r>
       <r>   -23.9174     0.0000     2.0000 </r>
       <r>   -23.8129     0.0000     2.0000 </r>
       <r>   -23.7083     0.0000     2.0000 </r>
       <r>   -23.6037     0.0000     2.0000 </r>
       <r>   -23.4992     0.0000     2.0000 </r>
       <r>   -23.3946     0.0000     2.0000 </r>
       <r>   -23.2901     0.0000     2.0000 </r>
       <r>   -23.1855     0.0000     2.0000 </r>
       <r>   -23.0809     0.0000     2.0000 </r>
       <r>   -22.9764     0.0000     2.0000 </r>
       <r>   -22.8718     0.0000     2.0000 </r>
       <r>   -22.7673     0.0000     2.0000 </r>
       <r>   -22.6627     0.0000     2.0000 </r>
       <r>   -22.5581     0.0000     2.0000 </r>
       <r>   -22.4536     0.0000     2.0000 </r>
       <r>   -22.3490     0.0000     2.0000 </r>
       <r>   -22.2444     0.0000     2.0000 </r>
       <r>   -22.1399     0.0000     2.0000 </r>
       <r>   -22.0353     0.0000     2.0000 </r>
       <r>   -21.9308     0.0000     2.0000 </r>
       <r>   -21.8262     0.0000     2.0000 </r>
       <r>   -21.7216     0.0000     2.0000 </r>
       <r>   -21.6171     0.0000     2.0000 </r>
       <r>   -21.5125     0.0000     2.0000 </r>
       <r>   -21.4080     0.0000     2.0000 </r>
       <r>   -21.3034     0.0000     2.0000 </r>
       <r>   -21.1988     0.0000     2.0000 </r>
       <r>   -21.0943     0.0000     2.0000 </r>
       <r>   -20.9897     0.0000     2.0000 </r>
       <r>   -20.8852     0.0000     2.0000 </r>
       <r>   -20.7806     0.0000     2.0000 </r>
       <r>   -20.6760     0.0000     2.0000 </r>
       <r>   -20.5715     0.0000     2.0000 </r>
       <r>   -20.4669     0.0000     2.0000 </r>
       <r>   -20.3623     0.0000     2.0000 </r>
       <r>   -20.2578     0.0000     2.0000 </r>
       <r>   -20.1532     0.0000     2.0000 </r>
       <r>   -20.0487     0.0000     2.0000 </r>
       <r>   -19.9441     0.0000     2.0000 </r>
       <r>   -19.8395     0.0000     2.0000 </r>
       <r>   -19.7350     0.0000     2.0000 </r>
       <r>   -19.6304     0.0000     2.0000 </r>
       <r>   -19.5259     0.0000     2.0000 </r>
       <r>   -19.4213     0.0000     2.0000 </r>
       <r>   -19.3167     0.0000     2.0000 </r>
       <r>   -19.2122     0.0000     2.0000 </r>
       <r>   -19.1076     0.0000     2.0000 </r>
       <r>   -19.0031     0.0000     2.0000 </r>
       <r>   -18.8985     0.0000     2.0000 </r>
       <r>   -18.7939     0.0000     2.0000 </r>
       <r>   -18.6894     0.0000     2.0000 </r>
       <r>   -18.5848     0.0000     2.0000 </r>
       <r>   -18.4802     0.0000     2.0000 </r>
       <r>   -18.3757     0.0000     2.0000 </r>
       <r>   -18.2711     0.0000     2.0000 </r>
       <r>   -18.1666     0.0000     2.0000 </r>
       <r>   -18.0620     0.0000     2.0000 </r>
       <r>   -17.9574     0.0000     2.0000 </r>
       <r>   -17.8529     0.0000     2.0000 </r>
       <r>   -17.7483     0.0000     2.0000 </r>
       <r>   -17.6438     0.0000     2.0000 </r>
       <r>   -17.5392     0.0000     2.0000 </r>
       <r>   -17.4346     0.0000     2.0000 </r>
       <r>   -17.3301     0.0000     2.0000 </r>
       <r>   -17.2255     0.0000     2.0000 </r>
       <r>   -17.1210     0.0000     2.0000 </r>
       <r>   -17.0164     0.0000     2.0000 </r>
       <r>   -16.9118     0.0000     2.0000 </r>
       <r>   -16.8073     0.0000     2.0000 </r>
       <r>   -16.7027     0.0000     2.0000 </r>
       <r>   -16.5981     0.0000     2.0000 </r>
       <r>   -16.4936     0.0000     2.0000 </r>
       <r>   -16.3890     0.0000     2.0000 </r>
       <r>   -16.2845     0.0000     2.0000 </r>
       <r>   -16.1799     0.0000     2.0000 </r>
       <r>   -16.0753     0.0000     2.0000 </r>
       <r>   -15.9708     0.0000     2.0000 </r>
       <r>   -15.8662     0.0000     2.0000 </r>
       <r>   -15.7617     0.0000     2.0000 </r>
       <r>   -15.6571     0.0000     2.0000 </r>
       <r>   -15.5525     0.0000     2.0000 </r>
       <r>   -15.4480     0.0000     2.0000 </r>
       <r>   -15.3434     0.0000     2.0000 </r>
       <r>   -15.2389     0.0000     2.0000 </r>
       <r>   -15.1343     0.0000     2.0000 </r>
       <r>   -15.0297     0.0000     2.0000 </r>
       <r>   -14.9252     0.0000     2.0000 </r>
       <r>   -14.8206     0.0000     2.0000 </r>
       <r>   -14.7160     0.0000     2.0000 </r>
       <r>   -14.6115    -0.0000     2.0000 </r>
       <r>   -14.5069    -0.0000     2.0000 </r>
       <r>   -14.4024    -0.0000     2.0000 </r>
       <r>   -14.2978    -0.0000     2.0000 </r>
       <r>   -14.1932    -0.0000     2.0000 </r>
       <r>   -14.0887    -0.0001     2.0000 </r>
       <r>   -13.9841    -0.0282     1.9970 </r>
       <r>   -13.8796    -0.5800     1.9364 </r>
       <r>   -13.7750     4.8256     2.4410 </r>
       <r>   -13.6704    14.0887     3.9141 </r>
       <r>   -13.5659     1.1455     4.0339 </r>
       <r>   -13.4613    -0.3183     4.0006 </r>
       <r>   -13.3568    -0.0057     4.0000 </r>
       <r>   -13.2522    -0.0000     4.0000 </r>
       <r>   -13.1476    -0.0000     4.0000 </r>
       <r>   -13.0431    -0.0000     4.0000 </r>
       <r>   -12.9385     0.0000     4.0000 </r>
       <r>   -12.8339     0.0000     4.0000 </r>
       <r>   -12.7294     0.0000     4.0000 </r>
       <r>   -12.6248     0.0000     4.0000 </r>
       <r>   -12.5203     0.0000     4.0000 </r>
       <r>   -12.4157     0.0000     4.0000 </r>
       <r>   -12.3111     0.0000     4.0000 </r>
       <r>   -12.2066     0.0000     4.0000 </r>
       <r>   -12.1020    -0.0000     4.0000 </r>
       <r>   -11.9975    -0.0000     4.0000 </r>
       <r>   -11.8929    -0.0000     4.0000 </r>
       <r>   -11.7883    -0.0000     4.0000 </r>
       <r>   -11.6838    -0.0000     4.0000 </r>
       <r>   -11.5792    -0.0019     3.9998 </r>
       <r>   -11.4747    -0.1833     3.9806 </r>
       <r>   -11.3701    -0.0111     3.9795 </r>
       <r>   -11.2655    12.1606     5.2510 </r>
       <r>   -11.1610     7.2209     6.0060 </r>
       <r>   -11.0564     4.4112     6.4673 </r>
       <r>   -10.9518    13.5318     7.8822 </r>
       <r>   -10.8473     3.0085     8.1967 </r>
       <r>   -10.7427    14.2200     9.6836 </r>
       <r>   -10.6382     3.5586    10.0557 </r>
       <r>   -10.5336    -0.5143    10.0019 </r>
       <r>   -10.4290    -0.0645     9.9952 </r>
       <r>   -10.3245    -0.6232     9.9300 </r>
       <r>   -10.2199     6.5339    10.6132 </r>
       <r>   -10.1154    13.1208    11.9851 </r>
       <r>   -10.0108     0.3794    12.0248 </r>
       <r>    -9.9062    -0.2339    12.0003 </r>
       <r>    -9.8017    -0.0031    12.0000 </r>
       <r>    -9.6971    -0.0000    12.0000 </r>
       <r>    -9.5926    -0.0000    12.0000 </r>
       <r>    -9.4880    -0.0000    12.0000 </r>
       <r>    -9.3834    -0.0000    12.0000 </r>
       <r>    -9.2789    -0.0000    12.0000 </r>
       <r>    -9.1743    -0.0000    12.0000 </r>
       <r>    -9.0697    -0.0000    12.0000 </r>
       <r>    -8.9652    -0.0008    11.9999 </r>
       <r>    -8.8606    -0.1129    11.9881 </r>
       <r>    -8.7561    -0.4413    11.9420 </r>
       <r>    -8.6515    10.1647    13.0048 </r>
       <r>    -8.5469    10.0730    14.0581 </r>
       <r>    -8.4424    -0.8268    13.9716 </r>
       <r>    -8.3378     1.6278    14.1418 </r>
       <r>    -8.2333    14.4439    15.6521 </r>
       <r>    -8.1287     3.8812    16.0579 </r>
       <r>    -8.0241    -0.5408    16.0014 </r>
       <r>    -7.9196    -0.4002    15.9595 </r>
       <r>    -7.8150     1.1481    16.0795 </r>
       <r>    -7.7105    17.3627    17.8950 </r>
       <r>    -7.6059    17.8571    19.7622 </r>
       <r>    -7.5013     8.7687    20.6790 </r>
       <r>    -7.3968    24.5520    23.2462 </r>
       <r>    -7.2922    23.5018    25.7036 </r>
       <r>    -7.1876    18.2537    27.6122 </r>
       <r>    -7.0831     8.0429    28.4532 </r>
       <r>    -6.9785    23.6084    30.9217 </r>
       <r>    -6.8740    17.1600    32.7160 </r>
       <r>    -6.7694    27.0679    35.5462 </r>
       <r>    -6.6648    39.2149    39.6466 </r>
       <r>    -6.5603    32.2091    43.0144 </r>
       <r>    -6.4557    46.8380    47.9118 </r>
       <r>    -6.3512    41.7224    52.2744 </r>
       <r>    -6.2466    44.4252    56.9195 </r>
       <r>    -6.1420    46.6585    61.7982 </r>
       <r>    -6.0375    45.3039    66.5352 </r>
       <r>    -5.9329    24.2530    69.0712 </r>
       <r>    -5.8283    20.9918    71.2661 </r>
       <r>    -5.7238    37.6189    75.1996 </r>
       <r>    -5.6192    41.5071    79.5396 </r>
       <r>    -5.5147    53.5822    85.1422 </r>
       <r>    -5.4101    57.7693    91.1826 </r>
       <r>    -5.3055    75.5134    99.0784 </r>
       <r>    -5.2010    84.3348   107.8965 </r>
       <r>    -5.0964    85.1985   116.8050 </r>
       <r>    -4.9919    65.4273   123.6461 </r>
       <r>    -4.8873    84.4384   132.4751 </r>
       <r>    -4.7827    75.4025   140.3593 </r>
       <r>    -4.6782    48.4434   145.4246 </r>
       <r>    -4.5736     6.8217   146.1379 </r>
       <r>    -4.4691    11.3271   147.3222 </r>
       <r>    -4.3645     6.9859   148.0527 </r>
       <r>    -4.2599    -0.8810   147.9606 </r>
       <r>    -4.1554    11.6763   149.1815 </r>
       <r>    -4.0508    19.7946   151.2512 </r>
       <r>    -3.9462     7.8933   152.0766 </r>
       <r>    -3.8417    -0.6554   152.0080 </r>
       <r>    -3.7371    -0.0763   152.0000 </r>
       <r>    -3.6326    -0.0005   152.0000 </r>
       <r>    -3.5280    -0.0232   151.9976 </r>
       <r>    -3.4234    -0.5520   151.9399 </r>
       <r>    -3.3189     4.2268   152.3818 </r>
       <r>    -3.2143    14.3192   153.8790 </r>
       <r>    -3.1098     1.0306   153.9868 </r>
       <r>    -3.0052     1.8939   154.1848 </r>
       <r>    -2.9006    17.8245   156.0486 </r>
       <r>    -2.7961    17.2930   157.8568 </r>
       <r>    -2.6915     1.7954   158.0445 </r>
       <r>    -2.5870    -0.9513   157.9450 </r>
       <r>    -2.4824     3.6073   158.3222 </r>
       <r>    -2.3778    14.3159   159.8191 </r>
       <r>    -2.2733     2.0267   160.0310 </r>
       <r>    -2.1687    12.0168   161.2875 </r>
       <r>    -2.0641     6.8510   162.0039 </r>
       <r>    -1.9596     8.3359   162.8755 </r>
       <r>    -1.8550    10.1499   163.9368 </r>
       <r>    -1.7505     7.3288   164.7031 </r>
       <r>    -1.6459    27.6548   167.5947 </r>
       <r>    -1.5413     4.7060   168.0867 </r>
       <r>    -1.4368    -0.8319   167.9998 </r>
       <r>    -1.3322    -0.6073   167.9363 </r>
       <r>    -1.2277     4.8519   168.4436 </r>
       <r>    -1.1231    14.0119   169.9087 </r>
       <r>    -1.0185     0.4356   169.9542 </r>
       <r>    -0.9140     6.8487   170.6703 </r>
       <r>    -0.8094    20.4890   172.8127 </r>
       <r>    -0.7049    20.0125   174.9052 </r>
       <r>    -0.6003    10.9947   176.0548 </r>
       <r>    -0.4957    -0.4505   176.0077 </r>
       <r>    -0.3912    -1.3456   175.8670 </r>
       <r>    -0.2866    11.5623   177.0760 </r>
       <r>    -0.1820    26.8178   179.8801 </r>
       <r>    -0.0775    13.5101   181.2927 </r>
       <r>     0.0271     6.8580   182.0098 </r>
       <r>     0.1316     3.8478   182.4121 </r>
       <r>     0.2362    14.1764   183.8944 </r>
       <r>     0.3408     1.3552   184.0361 </r>
       <r>     0.4453    -0.3391   184.0007 </r>
       <r>     0.5499    -0.0065   184.0000 </r>
       <r>     0.6544    -0.0000   184.0000 </r>
       <r>     0.7590    -0.0000   184.0000 </r>
       <r>     0.8636    -0.0000   184.0000 </r>
       <r>     0.9681     0.0000   184.0000 </r>
       <r>     1.0727     0.0000   184.0000 </r>
       <r>     1.1772     0.0000   184.0000 </r>
       <r>     1.2818     0.0000   184.0000 </r>
       <r>     1.3864     0.0000   184.0000 </r>
       <r>     1.4909     0.0000   184.0000 </r>
       <r>     1.5955     0.0000   184.0000 </r>
      </set>
     </set>
    </array>
   </total>
  </dos>
 </calculation>
 <structure name="finalpos" >
  <crystal>
   <varray name="basis" >
    <v>      15.00000000       0.00000000       0.00000000 </v>
    <v>       0.00000000      15.00000000       0.00000000 </v>
    <v>       0.00000000       0.00000000      15.00000000 </v>
   </varray>
   <i name="volume">   3375.00000000 </i>
   <varray name="rec_basis" >
    <v>       0.06666667       0.00000000       0.00000000 </v>
    <v>       0.00000000       0.06666667       0.00000000 </v>
    <v>       0.00000000       0.00000000       0.06666667 </v>
   </varray>
  </crystal>
  <varray name="positions" >
   <v>       0.29783667       0.42553600       0.55307200 </v>
   <v>       0.37769267       0.55087533       0.48823400 </v>
   <v>       0.40280400       0.29274333       0.57046133 </v>
   <v>       0.53466733       0.50932467       0.48489533 </v>
   <v>       0.55258533       0.34926800       0.52010000 </v>
   <v>       0.45245200       0.43561667       0.60418933 </v>
   <v>       0.41327133       0.39909867       0.44464533 </v>
   <v>       0.22389400       0.56971800       0.54008733 </v>
   <v>       0.33635200       0.54257200       0.65534667 </v>
   <v>       0.34125533       0.68178000       0.56681600 </v>
   <v>       0.49629000       0.66232733       0.48295800 </v>
   <v>       0.61068533       0.47195733       0.62010600 </v>
   <v>       0.48462133       0.59369133       0.61908933 </v>
   <v>       0.72404000       0.48832067       0.66113933 </v>
   <v>       0.79914000       0.50626067       0.65814867 </v>
  </varray>
 </structure>
</modeling>
