<?xml version="1.0" encoding="ISO-8859-1"?>
<modeling>
 <generator>
  <i name="program" type="string">vasp </i>
  <i name="version" type="string">5.4.4.18Apr17-6-g9f103f2a35  </i>
  <i name="subversion" type="string">(build May 08 2019 13:49:07) complex            parallel </i>
  <i name="platform" type="string">LinuxIFC </i>
  <i name="date" type="string">2019 11 13 </i>
  <i name="time" type="string">11:09:44 </i>
 </generator>
 <incar>
  <i type="string" name="SYSTEM"> CuCO</i>
  <i type="int" name="ISTART">     0</i>
  <i type="string" name="PREC">accurate</i>
  <i type="string" name="ALGO"> Fast</i>
  <i type="int" name="ISPIN">     2</i>
  <i type="int" name="INIWAV">     1</i>
  <i type="int" name="NELM">   300</i>
  <i type="int" name="NELMIN">     3</i>
  <i type="int" name="IBRION">    -1</i>
  <i name="EDIFF">      0.00000010</i>
  <i name="EDIFFG">     -0.00100000</i>
  <i type="int" name="NSW">     0</i>
  <i type="int" name="ISYM">     0</i>
  <i name="ENCUT">    600.00000000</i>
  <i name="NUPDOWN">      1.00000000</i>
  <i type="logical" name="LREAL"> F  </i>
  <i type="int" name="ISMEAR">     1</i>
  <i name="SIGMA">      0.10000000</i>
  <i name="KSPACING">      0.50000000</i>
  <i type="logical" name="KGAMMA"> F  </i>
  <i type="logical" name="LWAVE"> F  </i>
  <i type="logical" name="LCHARG"> F  </i>
  <v type="int" name="KPOINT_BSE">    -1     0     0     0</v>
  <i type="int" name="NELM">   300</i>
  <i type="string" name="GGA"> PE</i>
 </incar>
 <structure name="primitive_cell" >
  <crystal>
   <varray name="basis" >
    <v>      15.00000000       0.00000000       0.00000000 </v>
    <v>       0.00000000      15.00000000       0.00000000 </v>
    <v>       0.00000000       0.00000000      15.00000000 </v>
   </varray>
   <i name="volume">   3375.00000000 </i>
   <varray name="rec_basis" >
    <v>       0.06666667       0.00000000       0.00000000 </v>
    <v>       0.00000000       0.06666667       0.00000000 </v>
    <v>       0.00000000       0.00000000       0.06666667 </v>
   </varray>
  </crystal>
  <varray name="positions" >
   <v>       0.28979533       0.41708733      -0.44808133 </v>
   <v>       0.41471867       0.39948200       0.44780867 </v>
   <v>       0.39644800       0.29169733      -0.43217800 </v>
   <v>       0.22712733      -0.42944467      -0.45245067 </v>
   <v>       0.33285800      -0.45594533      -0.34426467 </v>
   <v>       0.37568333      -0.45087933       0.48862067 </v>
   <v>       0.45117867       0.44009600      -0.38466067 </v>
   <v>      -0.45258800       0.34582733      -0.47263267 </v>
   <v>       0.48378267      -0.40706200      -0.38665000 </v>
   <v>      -0.46315933      -0.49000267       0.47969467 </v>
   <v>       0.34736800      -0.31556667      -0.42687933 </v>
   <v>       0.48907667      -0.33429200       0.47827933 </v>
   <v>      -0.37634667       0.47788533      -0.39022400 </v>
   <v>      -0.25768000       0.48391133      -0.35902267 </v>
   <v>      -0.18096667       0.49218800      -0.35205667 </v>
  </varray>
 </structure>
 <varray name="primitive_index" >
  <v type="int" >        1 </v>
  <v type="int" >        7 </v>
  <v type="int" >        3 </v>
  <v type="int" >        8 </v>
  <v type="int" >        9 </v>
  <v type="int" >        2 </v>
  <v type="int" >        6 </v>
  <v type="int" >        5 </v>
  <v type="int" >       13 </v>
  <v type="int" >        4 </v>
  <v type="int" >       10 </v>
  <v type="int" >       11 </v>
  <v type="int" >       12 </v>
  <v type="int" >       14 </v>
  <v type="int" >       15 </v>
 </varray>
 <kpoints>
  <generation param="Monkhorst-Pack">
   <v type="int" name="divisions">       1        1        1 </v>
   <v name="usershift">      0.00000000       0.00000000       0.00000000 </v>
   <v name="genvec1">      1.00000000       0.00000000       0.00000000 </v>
   <v name="genvec2">      0.00000000       1.00000000       0.00000000 </v>
   <v name="genvec3">      0.00000000       0.00000000       1.00000000 </v>
   <v name="shift">      0.00000000       0.00000000       0.00000000 </v>
  </generation>
  <varray name="kpointlist" >
   <v>       0.00000000       0.00000000       0.00000000 </v>
  </varray>
  <varray name="weights" >
   <v>       1.00000000 </v>
  </varray>
 </kpoints>
 <parameters>
  <separator name="general" >
   <i type="string" name="SYSTEM">CuCO</i>
   <i type="logical" name="LCOMPAT"> F  </i>
  </separator>
  <separator name="electronic" >
   <i type="string" name="PREC">accura</i>
   <i name="ENMAX">    600.00000000</i>
   <i name="ENAUG">    644.87300000</i>
   <i name="EDIFF">      0.00000010</i>
   <i type="int" name="IALGO">    68</i>
   <i type="int" name="IWAVPR">    10</i>
   <i type="int" name="NBANDS">    92</i>
   <i name="NELECT">    153.00000000</i>
   <i type="int" name="TURBO">     0</i>
   <i type="int" name="IRESTART">     0</i>
   <i type="int" name="NREBOOT">     0</i>
   <i type="int" name="NMIN">     0</i>
   <i name="EREF">      0.00000000</i>
   <separator name="electronic smearing" >
    <i type="int" name="ISMEAR">     1</i>
    <i name="SIGMA">      0.10000000</i>
    <i name="KSPACING">      0.50000000</i>
    <i type="logical" name="KGAMMA"> F  </i>
   </separator>
   <separator name="electronic projectors" >
    <i type="logical" name="LREAL"> F  </i>
    <v name="ROPT">      0.00000000      0.00000000      0.00000000</v>
    <i type="int" name="LMAXPAW">  -100</i>
    <i type="int" name="LMAXMIX">     2</i>
    <i type="logical" name="NLSPLINE"> F  </i>
   </separator>
   <separator name="electronic startup" >
    <i type="int" name="ISTART">     0</i>
    <i type="int" name="ICHARG">     2</i>
    <i type="int" name="INIWAV">     1</i>
   </separator>
   <separator name="electronic spin" >
    <i type="int" name="ISPIN">     2</i>
    <i type="logical" name="LNONCOLLINEAR"> F  </i>
    <v name="MAGMOM">      0.06666667      0.06666667      0.06666667      0.06666667      0.06666667      0.06666667      0.06666667      0.06666667      0.06666667      0.06666667      0.06666667      0.06666667      0.06666667      0.06666667      0.06666667</v>
    <i name="NUPDOWN">      1.00000000</i>
    <i type="logical" name="LSORBIT"> F  </i>
    <v name="SAXIS">      0.00000000      0.00000000      1.00000000</v>
    <i type="logical" name="LSPIRAL"> F  </i>
    <v name="QSPIRAL">      0.00000000      0.00000000      0.00000000</v>
    <i type="logical" name="LZEROZ"> F  </i>
   </separator>
   <separator name="electronic exchange-correlation" >
    <i type="logical" name="LASPH"> F  </i>
    <i type="logical" name="LMETAGGA"> F  </i>
   </separator>
   <separator name="electronic convergence" >
    <i type="int" name="NELM">   300</i>
    <i type="int" name="NELMDL">    -5</i>
    <i type="int" name="NELMIN">     3</i>
    <i name="ENINI">    600.00000000</i>
    <separator name="electronic convergence detail" >
     <i type="logical" name="LDIAG"> T  </i>
     <i type="logical" name="LSUBROT"> F  </i>
     <i name="WEIMIN">      0.00000000</i>
     <i name="EBREAK">      0.00000000</i>
     <i name="DEPER">      0.30000000</i>
     <i type="int" name="NRMM">     4</i>
     <i name="TIME">      0.40000000</i>
    </separator>
   </separator>
   <separator name="electronic mixer" >
    <i name="AMIX">      0.40000000</i>
    <i name="BMIX">      1.00000000</i>
    <i name="AMIN">      0.10000000</i>
    <i name="AMIX_MAG">      1.60000000</i>
    <i name="BMIX_MAG">      1.00000000</i>
    <separator name="electronic mixer details" >
     <i type="int" name="IMIX">     4</i>
     <i type="logical" name="MIXFIRST"> F  </i>
     <i type="int" name="MAXMIX">   -45</i>
     <i name="WC">    100.00000000</i>
     <i type="int" name="INIMIX">     1</i>
     <i type="int" name="MIXPRE">     1</i>
     <i type="int" name="MREMOVE">     5</i>
    </separator>
   </separator>
   <separator name="electronic dipolcorrection" >
    <i type="logical" name="LDIPOL"> F  </i>
    <i type="logical" name="LMONO"> F  </i>
    <i type="int" name="IDIPOL">     0</i>
    <i name="EPSILON">      1.00000000</i>
    <v name="DIPOL">   -100.00000000   -100.00000000   -100.00000000</v>
    <i name="EFIELD">      0.00000000</i>
   </separator>
  </separator>
  <separator name="grids" >
   <i type="int" name="NGX">   120</i>
   <i type="int" name="NGY">   120</i>
   <i type="int" name="NGZ">   120</i>
   <i type="int" name="NGXF">   240</i>
   <i type="int" name="NGYF">   240</i>
   <i type="int" name="NGZF">   240</i>
   <i type="logical" name="ADDGRID"> F  </i>
  </separator>
  <separator name="ionic" >
   <i type="int" name="NSW">     0</i>
   <i type="int" name="IBRION">    -1</i>
   <i type="int" name="MDALGO">     0</i>
   <i type="int" name="ISIF">     2</i>
   <i name="PSTRESS">      0.00000000</i>
   <i name="EDIFFG">     -0.00100000</i>
   <i type="int" name="NFREE">     0</i>
   <i name="POTIM">      0.50000000</i>
   <i name="SMASS">     -3.00000000</i>
   <i name="SCALEE">      1.00000000</i>
  </separator>
  <separator name="ionic md" >
   <i name="TEBEG">      0.00010000</i>
   <i name="TEEND">      0.00010000</i>
   <i type="int" name="NBLOCK">     1</i>
   <i type="int" name="KBLOCK">     1</i>
   <i type="int" name="NPACO">   256</i>
   <i name="APACO">     16.00000000</i>
  </separator>
  <separator name="symmetry" >
   <i type="int" name="ISYM">     0</i>
   <i name="SYMPREC">      0.00001000</i>
  </separator>
  <separator name="dos" >
   <i type="int" name="LORBIT">     0</i>
   <v name="RWIGS">     -1.00000000     -1.00000000     -1.00000000</v>
   <i type="int" name="NEDOS">   301</i>
   <i name="EMIN">     10.00000000</i>
   <i name="EMAX">    -10.00000000</i>
   <i name="EFERMI">      0.00000000</i>
  </separator>
  <separator name="writing" >
   <i type="int" name="NWRITE">     2</i>
   <i type="logical" name="LWAVE"> F  </i>
   <i type="logical" name="LDOWNSAMPLE"> F  </i>
   <i type="logical" name="LCHARG"> F  </i>
   <i type="logical" name="LPARD"> F  </i>
   <i type="logical" name="LVTOT"> F  </i>
   <i type="logical" name="LVHAR"> F  </i>
   <i type="logical" name="LELF"> F  </i>
   <i type="logical" name="LOPTICS"> F  </i>
   <v name="STM">      0.00000000      0.00000000      0.00000000      0.00000000      0.00000000      0.00000000      0.00000000</v>
  </separator>
  <separator name="performance" >
   <i type="int" name="NPAR">     4</i>
   <i type="int" name="NSIM">     4</i>
   <i type="int" name="NBLK">    -1</i>
   <i type="logical" name="LPLANE"> T  </i>
   <i type="logical" name="LSCALAPACK"> T  </i>
   <i type="logical" name="LSCAAWARE"> F  </i>
   <i type="logical" name="LSCALU"> F  </i>
   <i type="logical" name="LASYNC"> F  </i>
   <i type="logical" name="LORBITALREAL"> F  </i>
  </separator>
  <separator name="miscellaneous" >
   <i type="int" name="IDIOT">     3</i>
   <i type="int" name="ISPECIAL">     0</i>
   <i type="logical" name="LMUSIC"> F  </i>
   <v name="POMASS">     63.54600000     12.01100000     16.00000000</v>
   <v name="DARWINR">      0.00000000      0.00000000      0.00000000</v>
   <v name="DARWINV">      1.00000000      1.00000000      1.00000000</v>
   <i type="logical" name="LCORR"> T  </i>
  </separator>
  <i type="logical" name="GGA_COMPAT"> T  </i>
  <i type="logical" name="LBERRY"> F  </i>
  <i type="int" name="ICORELEVEL">     0</i>
  <i type="logical" name="LDAU"> F  </i>
  <i type="int" name="I_CONSTRAINED_M">     0</i>
  <separator name="electronic exchange-correlation" >
   <i type="string" name="GGA">PE</i>
   <i type="int" name="VOSKOWN">     0</i>
   <i type="logical" name="LHFCALC"> F  </i>
   <i type="string" name="PRECFOCK"></i>
   <i type="logical" name="LSYMGRAD"> F  </i>
   <i type="logical" name="LHFONE"> F  </i>
   <i type="logical" name="LRHFCALC"> F  </i>
   <i type="logical" name="LTHOMAS"> F  </i>
   <i type="logical" name="LMODELHF"> F  </i>
   <i name="ENCUT4O">     -1.00000000</i>
   <i type="int" name="EXXOEP">     0</i>
   <i type="int" name="FOURORBIT">     0</i>
   <i name="AEXX">      0.00000000</i>
   <i name="HFALPHA">      0.00000000</i>
   <i name="MCALPHA">      0.00000000</i>
   <i name="ALDAX">      1.00000000</i>
   <i name="AGGAX">      1.00000000</i>
   <i name="ALDAC">      1.00000000</i>
   <i name="AGGAC">      1.00000000</i>
   <i type="int" name="NKREDX">     1</i>
   <i type="int" name="NKREDY">     1</i>
   <i type="int" name="NKREDZ">     1</i>
   <i type="logical" name="SHIFTRED"> F  </i>
   <i type="logical" name="ODDONLY"> F  </i>
   <i type="logical" name="EVENONLY"> F  </i>
   <i type="int" name="LMAXFOCK">     0</i>
   <i type="int" name="NMAXFOCKAE">     0</i>
   <i type="logical" name="LFOCKAEDFT"> F  </i>
   <i name="HFSCREEN">      0.00000000</i>
   <i name="HFSCREENC">      0.00000000</i>
   <i type="int" name="NBANDSGWLOW">     0</i>
  </separator>
  <separator name="vdW DFT" >
   <i type="logical" name="LUSE_VDW"> F  </i>
   <i name="Zab_VDW">     -0.84910000</i>
   <i name="PARAM1">      0.12340000</i>
   <i name="PARAM2">      1.00000000</i>
   <i name="PARAM3">      0.00000000</i>
  </separator>
  <separator name="model GW" >
   <i type="int" name="MODEL_GW">     0</i>
   <i name="MODEL_EPS0">    135.00000000</i>
   <i name="MODEL_ALPHA">      1.00000000</i>
  </separator>
  <separator name="linear response parameters" >
   <i type="logical" name="LEPSILON"> F  </i>
   <i type="logical" name="LRPA"> F  </i>
   <i type="logical" name="LNABLA"> F  </i>
   <i type="logical" name="LVEL"> F  </i>
   <i type="int" name="KINTER">     0</i>
   <i name="CSHIFT">      0.10000000</i>
   <i name="OMEGAMAX">     -1.00000000</i>
   <i name="DEG_THRESHOLD">      0.00200000</i>
   <i name="RTIME">     -0.10000000</i>
   <i name="WPLASMAI">      0.00000000</i>
   <v name="DFIELD">      0.00000000      0.00000000      0.00000000</v>
   <v name="WPLASMA">      0.00000000      0.00000000      0.00000000      0.00000000      0.00000000      0.00000000      0.00000000      0.00000000      0.00000000</v>
  </separator>
  <separator name="orbital magnetization" >
   <i type="logical" name="NUCIND"> F  </i>
   <v name="MAGPOS">      0.00000000      0.00000000      0.00000000</v>
   <i type="logical" name="LNICSALL"> T  </i>
   <i type="logical" name="ORBITALMAG"> F  </i>
   <i type="logical" name="LMAGBLOCH"> F  </i>
   <i type="logical" name="LCHIMAG"> F  </i>
   <i type="logical" name="LGAUGE"> T  </i>
   <i type="int" name="MAGATOM">     0</i>
   <v name="MAGDIPOL">      0.00000000      0.00000000      0.00000000</v>
   <v name="AVECCONST">      0.00000000      0.00000000      0.00000000</v>
  </separator>
  <separator name="response functions" >
   <i type="logical" name="LADDER"> F  </i>
   <i type="logical" name="LRPAFORCE"> F  </i>
   <i type="logical" name="LFXC"> F  </i>
   <i type="logical" name="LHARTREE"> T  </i>
   <i type="int" name="IBSE">     0</i>
   <v type="int" name="KPOINT">    -1     0     0     0</v>
   <i type="logical" name="LTCTE"> F  </i>
   <i type="logical" name="LTETE"> F  </i>
   <i type="logical" name="LTRIPLET"> F  </i>
   <i type="logical" name="LFXCEPS"> F  </i>
   <i type="logical" name="LFXHEG"> F  </i>
   <i type="int" name="NATURALO">     2</i>
   <i type="logical" name="L2ORDER"> F  </i>
   <i type="logical" name="LMP2LT"> F  </i>
   <i type="logical" name="LUSEW"> F  </i>
   <i name="ENCUTGW">     -2.00000000</i>
   <i name="ENCUTGWSOFT">     -2.00000000</i>
   <i name="ENCUTLF">     -1.00000000</i>
   <i type="int" name="LMAXMP2">    -1</i>
   <i name="SCISSOR">      0.00000000</i>
   <i type="int" name="NOMEGA">     0</i>
   <i type="int" name="NOMEGAR">     0</i>
   <i type="int" name="NBANDSGW">    -1</i>
   <i type="int" name="NBANDSO">    -1</i>
   <i type="int" name="NBANDSV">    -1</i>
   <i type="int" name="NELM">   300</i>
   <i type="int" name="NELMHF">     1</i>
   <i type="int" name="DIM">     3</i>
   <i type="int" name="ANTIRES">     0</i>
   <i name="OMEGAMAX">    -30.00000000</i>
   <i name="OMEGAMIN">    -30.00000000</i>
   <i name="OMEGATL">   -200.00000000</i>
   <i type="int" name="OMEGAGRID">   140</i>
   <i name="CSHIFT">     -0.10000000</i>
   <i type="logical" name="SELFENERGY"> F  </i>
   <i type="logical" name="LSPECTRAL"> F  </i>
   <i type="logical" name="LSPECTRALGW"> F  </i>
   <i type="logical" name="LSINGLES"> F  </i>
   <i type="logical" name="LFERMIGW"> F  </i>
   <i type="logical" name="ODDONLYGW"> F  </i>
   <i type="logical" name="EVENONLYGW"> F  </i>
   <i type="int" name="NKREDLFX">     1</i>
   <i type="int" name="NKREDLFY">     1</i>
   <i type="int" name="NKREDLFZ">     1</i>
   <i type="int" name="MAXMEM">  2800</i>
   <i type="int" name="TELESCOPE">     0</i>
   <i type="int" name="TAUPAR">     1</i>
   <i type="int" name="OMEGAPAR">    -1</i>
   <i name="LAMBDA">      1.00000000</i>
  </separator>
  <separator name="External order field" >
   <i name="OFIELD_KAPPA">      0.00000000</i>
   <v name="OFIELD_K">      0.00000000      0.00000000      0.00000000</v>
   <i name="OFIELD_Q6_NEAR">      0.00000000</i>
   <i name="OFIELD_Q6_FAR">      0.00000000</i>
   <i name="OFIELD_A">      0.00000000</i>
  </separator>
 </parameters>
 <atominfo>
  <atoms>      15 </atoms>
  <types>       3 </types>
  <array name="atoms" >
   <dimension dim="1">ion</dimension>
   <field type="string">element</field>
   <field type="int">atomtype</field>
   <set>
    <rc><c>Cu</c><c>   1</c></rc>
    <rc><c>Cu</c><c>   1</c></rc>
    <rc><c>Cu</c><c>   1</c></rc>
    <rc><c>Cu</c><c>   1</c></rc>
    <rc><c>Cu</c><c>   1</c></rc>
    <rc><c>Cu</c><c>   1</c></rc>
    <rc><c>Cu</c><c>   1</c></rc>
    <rc><c>Cu</c><c>   1</c></rc>
    <rc><c>Cu</c><c>   1</c></rc>
    <rc><c>Cu</c><c>   1</c></rc>
    <rc><c>Cu</c><c>   1</c></rc>
    <rc><c>Cu</c><c>   1</c></rc>
    <rc><c>Cu</c><c>   1</c></rc>
    <rc><c>C </c><c>   2</c></rc>
    <rc><c>O </c><c>   3</c></rc>
   </set>
  </array>
  <array name="atomtypes" >
   <dimension dim="1">type</dimension>
   <field type="int">atomspertype</field>
   <field type="string">element</field>
   <field>mass</field>
   <field>valence</field>
   <field type="string">pseudopotential</field>
   <set>
    <rc><c>  13</c><c>Cu</c><c>     63.54600000</c><c>     11.00000000</c><c>  PAW_PBE Cu 22Jun2005                  </c></rc>
    <rc><c>   1</c><c>C </c><c>     12.01100000</c><c>      4.00000000</c><c>  PAW_PBE C 08Apr2002                   </c></rc>
    <rc><c>   1</c><c>O </c><c>     16.00000000</c><c>      6.00000000</c><c>  PAW_PBE O 08Apr2002                   </c></rc>
   </set>
  </array>
 </atominfo>
 <structure name="initialpos" >
  <crystal>
   <varray name="basis" >
    <v>      15.00000000       0.00000000       0.00000000 </v>
    <v>       0.00000000      15.00000000       0.00000000 </v>
    <v>       0.00000000       0.00000000      15.00000000 </v>
   </varray>
   <i name="volume">   3375.00000000 </i>
   <varray name="rec_basis" >
    <v>       0.06666667       0.00000000       0.00000000 </v>
    <v>       0.00000000       0.06666667       0.00000000 </v>
    <v>       0.00000000       0.00000000       0.06666667 </v>
   </varray>
  </crystal>
  <varray name="positions" >
   <v>       0.28979533       0.41708733       0.55191867 </v>
   <v>       0.37568333       0.54912067       0.48862067 </v>
   <v>       0.39644800       0.29169733       0.56782200 </v>
   <v>       0.53684067       0.50999733       0.47969467 </v>
   <v>       0.54741200       0.34582733       0.52736733 </v>
   <v>       0.45117867       0.44009600       0.61533933 </v>
   <v>       0.41471867       0.39948200       0.44780867 </v>
   <v>       0.22712733       0.57055533       0.54754933 </v>
   <v>       0.33285800       0.54405467       0.65573533 </v>
   <v>       0.34736800       0.68443333       0.57312067 </v>
   <v>       0.48907667       0.66570800       0.47827933 </v>
   <v>       0.62365333       0.47788533       0.60977600 </v>
   <v>       0.48378267       0.59293800       0.61335000 </v>
   <v>       0.74232000       0.48391133       0.64097733 </v>
   <v>       0.81903333       0.49218800       0.64794333 </v>
  </varray>
 </structure>
 <calculation>
  <scstep>
   <time name="dav">    7.43    7.45</time>
   <time name="total">    8.62    8.65</time>
   <energy>
    <i name="alphaZ">     41.16232785 </i>
    <i name="ewald">  16229.20233837 </i>
    <i name="hartreedc"> -33255.33448711 </i>
    <i name="XCdc">    623.21693027 </i>
    <i name="pawpsdc">  16421.75059358 </i>
    <i name="pawaedc"> -17800.06104309 </i>
    <i name="eentropy">      0.00340223 </i>
    <i name="bandstr">    194.82059844 </i>
    <i name="atom">  18662.21924712 </i>
    <i name="e_fr_energy">   1116.97990767 </i>
    <i name="e_wo_entrp">   1116.97650544 </i>
    <i name="e_0_energy">   1116.97877359 </i>
   </energy>
  </scstep>
  <scstep>
   <time name="dav">    7.36    7.36</time>
   <time name="total">    7.36    7.36</time>
   <energy>
    <i name="e_fr_energy">     89.01267788 </i>
    <i name="e_wo_entrp">     88.99983851 </i>
    <i name="e_0_energy">     89.00839809 </i>
   </energy>
  </scstep>
  <scstep>
   <time name="dav">   11.42   11.43</time>
   <time name="total">   11.42   11.43</time>
   <energy>
    <i name="e_fr_energy">    -32.78909034 </i>
    <i name="e_wo_entrp">    -32.80541908 </i>
    <i name="e_0_energy">    -32.79453325 </i>
   </energy>
  </scstep>
  <scstep>
   <time name="dav">    9.84    9.85</time>
   <time name="total">    9.84    9.85</time>
   <energy>
    <i name="e_fr_energy">    -55.58178149 </i>
    <i name="e_wo_entrp">    -55.59091561 </i>
    <i name="e_0_energy">    -55.58482619 </i>
   </energy>
  </scstep>
  <scstep>
   <time name="dav">   11.91   11.92</time>
   <time name="total">   12.62   12.63</time>
   <energy>
    <i name="e_fr_energy">    -57.33505152 </i>
    <i name="e_wo_entrp">    -57.34772328 </i>
    <i name="e_0_energy">    -57.33927544 </i>
   </energy>
  </scstep>
  <scstep>
   <time name="diag">    1.09    1.09</time>
   <time name="diis">    7.07    7.08</time>
   <time name="orth">    0.06    0.06</time>
   <time name="total">   10.07   10.08</time>
   <energy>
    <i name="e_fr_energy">    -56.77569022 </i>
    <i name="e_wo_entrp">    -56.78470345 </i>
    <i name="e_0_energy">    -56.77869463 </i>
   </energy>
  </scstep>
  <scstep>
   <time name="diag">    1.08    1.09</time>
   <time name="diis">    6.73    6.74</time>
   <time name="orth">    0.06    0.06</time>
   <time name="total">    9.74    9.75</time>
   <energy>
    <i name="e_fr_energy">    -49.36526588 </i>
    <i name="e_wo_entrp">    -49.37408821 </i>
    <i name="e_0_energy">    -49.36820666 </i>
   </energy>
  </scstep>
  <scstep>
   <time name="diag">    1.08    1.09</time>
   <time name="diis">    6.87    6.87</time>
   <time name="orth">    0.06    0.06</time>
   <time name="total">    9.86    9.87</time>
   <energy>
    <i name="e_fr_energy">    -49.10128798 </i>
    <i name="e_wo_entrp">    -49.11016731 </i>
    <i name="e_0_energy">    -49.10424776 </i>
   </energy>
  </scstep>
  <scstep>
   <time name="diag">    1.08    1.09</time>
   <time name="diis">    6.71    6.72</time>
   <time name="orth">    0.06    0.06</time>
   <time name="total">    9.70    9.71</time>
   <energy>
    <i name="e_fr_energy">    -49.04912649 </i>
    <i name="e_wo_entrp">    -49.05796610 </i>
    <i name="e_0_energy">    -49.05207303 </i>
   </energy>
  </scstep>
  <scstep>
   <time name="diag">    1.08    1.09</time>
   <time name="diis">    6.97    6.97</time>
   <time name="orth">    0.06    0.06</time>
   <time name="total">    9.96    9.97</time>
   <energy>
    <i name="e_fr_energy">    -48.98207038 </i>
    <i name="e_wo_entrp">    -48.99085520 </i>
    <i name="e_0_energy">    -48.98499865 </i>
   </energy>
  </scstep>
  <scstep>
   <time name="diag">    1.09    1.09</time>
   <time name="diis">    7.42    7.42</time>
   <time name="orth">    0.06    0.06</time>
   <time name="total">   10.45   10.46</time>
   <energy>
    <i name="e_fr_energy">    -48.97089396 </i>
    <i name="e_wo_entrp">    -48.97980379 </i>
    <i name="e_0_energy">    -48.97386390 </i>
   </energy>
  </scstep>
  <scstep>
   <time name="diag">    1.09    1.09</time>
   <time name="diis">    7.27    7.28</time>
   <time name="orth">    0.06    0.06</time>
   <time name="total">   10.26   10.27</time>
   <energy>
    <i name="e_fr_energy">    -48.96829817 </i>
    <i name="e_wo_entrp">    -48.97714026 </i>
    <i name="e_0_energy">    -48.97124553 </i>
   </energy>
  </scstep>
  <scstep>
   <time name="diag">    1.09    1.09</time>
   <time name="diis">    7.10    7.11</time>
   <time name="orth">    0.06    0.06</time>
   <time name="total">   10.13   10.14</time>
   <energy>
    <i name="e_fr_energy">    -48.96723498 </i>
    <i name="e_wo_entrp">    -48.97609554 </i>
    <i name="e_0_energy">    -48.97018850 </i>
   </energy>
  </scstep>
  <scstep>
   <time name="diag">    1.08    1.08</time>
   <time name="diis">    6.98    6.99</time>
   <time name="orth">    0.06    0.06</time>
   <time name="total">   10.02   10.03</time>
   <energy>
    <i name="e_fr_energy">    -48.96847662 </i>
    <i name="e_wo_entrp">    -48.97732989 </i>
    <i name="e_0_energy">    -48.97142771 </i>
   </energy>
  </scstep>
  <scstep>
   <time name="diag">    1.08    1.09</time>
   <time name="diis">    6.95    6.95</time>
   <time name="orth">    0.06    0.06</time>
   <time name="total">    9.99   10.00</time>
   <energy>
    <i name="e_fr_energy">    -48.96967529 </i>
    <i name="e_wo_entrp">    -48.97853617 </i>
    <i name="e_0_energy">    -48.97262892 </i>
   </energy>
  </scstep>
  <scstep>
   <time name="diag">    1.08    1.09</time>
   <time name="diis">    7.07    7.08</time>
   <time name="orth">    0.06    0.06</time>
   <time name="total">   10.11   10.12</time>
   <energy>
    <i name="e_fr_energy">    -48.97115578 </i>
    <i name="e_wo_entrp">    -48.98002412 </i>
    <i name="e_0_energy">    -48.97411189 </i>
   </energy>
  </scstep>
  <scstep>
   <time name="diag">    1.09    1.09</time>
   <time name="diis">    6.48    6.49</time>
   <time name="orth">    0.06    0.06</time>
   <time name="total">    9.53    9.54</time>
   <energy>
    <i name="e_fr_energy">    -48.97280947 </i>
    <i name="e_wo_entrp">    -48.98168088 </i>
    <i name="e_0_energy">    -48.97576661 </i>
   </energy>
  </scstep>
  <scstep>
   <time name="diag">    1.09    1.09</time>
   <time name="diis">    7.11    7.11</time>
   <time name="orth">    0.06    0.06</time>
   <time name="total">   10.15   10.16</time>
   <energy>
    <i name="e_fr_energy">    -48.97372271 </i>
    <i name="e_wo_entrp">    -48.98259208 </i>
    <i name="e_0_energy">    -48.97667917 </i>
   </energy>
  </scstep>
  <scstep>
   <time name="diag">    1.09    1.09</time>
   <time name="diis">    7.09    7.10</time>
   <time name="orth">    0.06    0.06</time>
   <time name="total">   10.15   10.15</time>
   <energy>
    <i name="e_fr_energy">    -48.97446551 </i>
    <i name="e_wo_entrp">    -48.98333456 </i>
    <i name="e_0_energy">    -48.97742186 </i>
   </energy>
  </scstep>
  <scstep>
   <time name="diag">    1.09    1.09</time>
   <time name="diis">    6.74    6.74</time>
   <time name="orth">    0.06    0.06</time>
   <time name="total">    9.79    9.80</time>
   <energy>
    <i name="e_fr_energy">    -48.97497979 </i>
    <i name="e_wo_entrp">    -48.98384728 </i>
    <i name="e_0_energy">    -48.97793562 </i>
   </energy>
  </scstep>
  <scstep>
   <time name="diag">    1.09    1.09</time>
   <time name="diis">    6.57    6.57</time>
   <time name="orth">    0.06    0.06</time>
   <time name="total">    9.62    9.63</time>
   <energy>
    <i name="e_fr_energy">    -48.97535234 </i>
    <i name="e_wo_entrp">    -48.98421971 </i>
    <i name="e_0_energy">    -48.97830813 </i>
   </energy>
  </scstep>
  <scstep>
   <time name="diag">    1.08    1.09</time>
   <time name="diis">    6.70    6.71</time>
   <time name="orth">    0.06    0.06</time>
   <time name="total">    9.75    9.76</time>
   <energy>
    <i name="e_fr_energy">    -48.97562182 </i>
    <i name="e_wo_entrp">    -48.98448994 </i>
    <i name="e_0_energy">    -48.97857786 </i>
   </energy>
  </scstep>
  <scstep>
   <time name="diag">    1.08    1.08</time>
   <time name="diis">    6.83    6.84</time>
   <time name="orth">    0.06    0.06</time>
   <time name="total">    9.88    9.89</time>
   <energy>
    <i name="e_fr_energy">    -48.97572983 </i>
    <i name="e_wo_entrp">    -48.98459795 </i>
    <i name="e_0_energy">    -48.97868587 </i>
   </energy>
  </scstep>
  <scstep>
   <time name="diag">    1.09    1.09</time>
   <time name="diis">    6.52    6.52</time>
   <time name="orth">    0.06    0.06</time>
   <time name="total">    9.57    9.58</time>
   <energy>
    <i name="e_fr_energy">    -48.97584128 </i>
    <i name="e_wo_entrp">    -48.98470932 </i>
    <i name="e_0_energy">    -48.97879729 </i>
   </energy>
  </scstep>
  <scstep>
   <time name="diag">    1.08    1.08</time>
   <time name="diis">    6.43    6.43</time>
   <time name="orth">    0.06    0.06</time>
   <time name="total">    9.48    9.49</time>
   <energy>
    <i name="e_fr_energy">    -48.97590406 </i>
    <i name="e_wo_entrp">    -48.98477200 </i>
    <i name="e_0_energy">    -48.97886004 </i>
   </energy>
  </scstep>
  <scstep>
   <time name="diag">    1.08    1.09</time>
   <time name="diis">    6.26    6.26</time>
   <time name="orth">    0.06    0.06</time>
   <time name="total">    9.31    9.32</time>
   <energy>
    <i name="e_fr_energy">    -48.97593163 </i>
    <i name="e_wo_entrp">    -48.98479967 </i>
    <i name="e_0_energy">    -48.97888764 </i>
   </energy>
  </scstep>
  <scstep>
   <time name="diag">    1.08    1.09</time>
   <time name="diis">    4.84    4.85</time>
   <time name="orth">    0.06    0.06</time>
   <time name="total">    7.90    7.90</time>
   <energy>
    <i name="e_fr_energy">    -48.97594449 </i>
    <i name="e_wo_entrp">    -48.98481246 </i>
    <i name="e_0_energy">    -48.97890048 </i>
   </energy>
  </scstep>
  <scstep>
   <time name="diag">    1.09    1.09</time>
   <time name="diis">    4.42    4.44</time>
   <time name="orth">    0.06    0.06</time>
   <time name="total">    7.47    7.50</time>
   <energy>
    <i name="e_fr_energy">    -48.97595176 </i>
    <i name="e_wo_entrp">    -48.98481976 </i>
    <i name="e_0_energy">    -48.97890776 </i>
   </energy>
  </scstep>
  <scstep>
   <time name="diag">    1.08    1.09</time>
   <time name="diis">    4.35    4.35</time>
   <time name="orth">    0.06    0.06</time>
   <time name="total">    7.41    7.42</time>
   <energy>
    <i name="e_fr_energy">    -48.97595494 </i>
    <i name="e_wo_entrp">    -48.98482291 </i>
    <i name="e_0_energy">    -48.97891093 </i>
   </energy>
  </scstep>
  <scstep>
   <time name="diag">    1.09    1.09</time>
   <time name="diis">    4.40    4.40</time>
   <time name="orth">    0.06    0.06</time>
   <time name="total">    7.48    7.48</time>
   <energy>
    <i name="e_fr_energy">    -48.97595656 </i>
    <i name="e_wo_entrp">    -48.98482456 </i>
    <i name="e_0_energy">    -48.97891256 </i>
   </energy>
  </scstep>
  <scstep>
   <time name="diag">    1.09    1.09</time>
   <time name="diis">    4.29    4.30</time>
   <time name="orth">    0.06    0.06</time>
   <time name="total">    7.38    7.39</time>
   <energy>
    <i name="e_fr_energy">    -48.97595733 </i>
    <i name="e_wo_entrp">    -48.98482533 </i>
    <i name="e_0_energy">    -48.97891333 </i>
   </energy>
  </scstep>
  <scstep>
   <time name="diag">    1.09    1.09</time>
   <time name="diis">    4.40    4.40</time>
   <time name="orth">    0.06    0.06</time>
   <time name="total">    7.49    7.50</time>
   <energy>
    <i name="e_fr_energy">    -48.97595797 </i>
    <i name="e_wo_entrp">    -48.98482596 </i>
    <i name="e_0_energy">    -48.97891397 </i>
   </energy>
  </scstep>
  <scstep>
   <time name="diag">    1.09    1.09</time>
   <time name="diis">    4.35    4.35</time>
   <time name="orth">    0.06    0.06</time>
   <time name="total">    7.45    7.46</time>
   <energy>
    <i name="e_fr_energy">    -48.97595860 </i>
    <i name="e_wo_entrp">    -48.98482658 </i>
    <i name="e_0_energy">    -48.97891459 </i>
   </energy>
  </scstep>
  <scstep>
   <time name="diag">    1.09    1.09</time>
   <time name="diis">    4.03    4.03</time>
   <time name="orth">    0.06    0.06</time>
   <time name="total">    7.14    7.15</time>
   <energy>
    <i name="e_fr_energy">    -48.97595893 </i>
    <i name="e_wo_entrp">    -48.98482691 </i>
    <i name="e_0_energy">    -48.97891492 </i>
   </energy>
  </scstep>
  <scstep>
   <time name="diag">    1.08    1.08</time>
   <time name="diis">    3.70    3.70</time>
   <time name="orth">    0.06    0.06</time>
   <time name="total">    6.80    6.81</time>
   <energy>
    <i name="e_fr_energy">    -48.97595919 </i>
    <i name="e_wo_entrp">    -48.98482717 </i>
    <i name="e_0_energy">    -48.97891518 </i>
   </energy>
  </scstep>
  <scstep>
   <time name="diag">    1.08    1.09</time>
   <time name="diis">    3.67    3.67</time>
   <time name="orth">    0.06    0.06</time>
   <time name="total">    6.78    6.79</time>
   <energy>
    <i name="e_fr_energy">    -48.97595936 </i>
    <i name="e_wo_entrp">    -48.98482734 </i>
    <i name="e_0_energy">    -48.97891535 </i>
   </energy>
  </scstep>
  <scstep>
   <time name="diag">    1.09    1.09</time>
   <time name="diis">    3.49    3.49</time>
   <time name="orth">    0.06    0.06</time>
   <time name="total">    5.81    5.81</time>
   <energy>
    <i name="alphaZ">     41.16232785 </i>
    <i name="ewald">  16229.20233837 </i>
    <i name="hartreedc"> -33212.48254820 </i>
    <i name="XCdc">    615.27231763 </i>
    <i name="pawpsdc">  17606.15793804 </i>
    <i name="pawaedc"> -19004.11016902 </i>
    <i name="eentropy">      0.00886798 </i>
    <i name="bandstr">   -986.40627923 </i>
    <i name="atom">  18662.21924712 </i>
    <i name="e_fr_energy">    -48.97595946 </i>
    <i name="e_wo_entrp">    -48.98482744 </i>
    <i name="e_0_energy">    -48.97891545 </i>
   </energy>
  </scstep>
  <structure>
   <crystal>
    <varray name="basis" >
     <v>      15.00000000       0.00000000       0.00000000 </v>
     <v>       0.00000000      15.00000000       0.00000000 </v>
     <v>       0.00000000       0.00000000      15.00000000 </v>
    </varray>
    <i name="volume">   3375.00000000 </i>
    <varray name="rec_basis" >
     <v>       0.06666667       0.00000000       0.00000000 </v>
     <v>       0.00000000       0.06666667       0.00000000 </v>
     <v>       0.00000000       0.00000000       0.06666667 </v>
    </varray>
   </crystal>
   <varray name="positions" >
    <v>       0.28979533       0.41708733       0.55191867 </v>
    <v>       0.37568333       0.54912067       0.48862067 </v>
    <v>       0.39644800       0.29169733       0.56782200 </v>
    <v>       0.53684067       0.50999733       0.47969467 </v>
    <v>       0.54741200       0.34582733       0.52736733 </v>
    <v>       0.45117867       0.44009600       0.61533933 </v>
    <v>       0.41471867       0.39948200       0.44780867 </v>
    <v>       0.22712733       0.57055533       0.54754933 </v>
    <v>       0.33285800       0.54405467       0.65573533 </v>
    <v>       0.34736800       0.68443333       0.57312067 </v>
    <v>       0.48907667       0.66570800       0.47827933 </v>
    <v>       0.62365333       0.47788533       0.60977600 </v>
    <v>       0.48378267       0.59293800       0.61335000 </v>
    <v>       0.74232000       0.48391133       0.64097733 </v>
    <v>       0.81903333       0.49218800       0.64794333 </v>
   </varray>
  </structure>
  <varray name="forces" >
   <v>       0.28391407       0.23443517       0.16673584 </v>
   <v>      -0.07106370       0.04546603       0.18943931 </v>
   <v>       0.01766092       0.18829562      -0.03671370 </v>
   <v>      -0.23888432      -0.34044569       0.11793165 </v>
   <v>       0.02171149       0.32921599       0.01958699 </v>
   <v>       0.04163956      -0.51317591      -0.44456849 </v>
   <v>       0.21496004      -0.03074565       0.34746876 </v>
   <v>      -0.30382832       0.07117135      -0.21354122 </v>
   <v>       0.37042869      -0.12843935      -0.05623439 </v>
   <v>       0.20832672      -0.12906686      -0.14693732 </v>
   <v>      -0.15690435       0.30274546      -0.16798551 </v>
   <v>      -0.19834988      -0.08675082      -0.13652278 </v>
   <v>       0.13890247       0.02362793       0.28414972 </v>
   <v>       0.36261213       0.14319749       0.22240132 </v>
   <v>      -0.69112552      -0.10953077      -0.14521018 </v>
  </varray>
  <varray name="stress" >
   <v>      -1.82239915      -0.26005966       0.14621718 </v>
   <v>      -0.26005967      -0.41072211      -0.37550752 </v>
   <v>       0.14621717      -0.37550752      -0.51922237 </v>
  </varray>
  <energy>
   <i name="e_fr_energy">    -48.97595946 </i>
   <i name="e_wo_entrp">    -48.97891545 </i>
   <i name="e_0_energy">      0.00886798 </i>
  </energy>
  <time name="totalsc">  347.46  347.83</time>
  <eigenvalues>
   <array>
    <dimension dim="1">band</dimension>
    <dimension dim="2">kpoint</dimension>
    <dimension dim="3">spin</dimension>
    <field>eigene</field>
    <field>occ</field>
    <set>
     <set comment="spin 1">
      <set comment="kpoint 1">
       <r>  -28.4369    1.0000 </r>
       <r>  -13.8769    1.0000 </r>
       <r>  -11.2524    1.0000 </r>
       <r>  -11.1238    1.0000 </r>
       <r>  -11.0560    1.0000 </r>
       <r>  -10.0842    1.0000 </r>
       <r>   -8.5379    1.0000 </r>
       <r>   -8.1852    1.0000 </r>
       <r>   -7.6488    1.0000 </r>
       <r>   -7.4675    1.0000 </r>
       <r>   -7.3791    1.0000 </r>
       <r>   -7.2554    1.0000 </r>
       <r>   -7.2326    1.0000 </r>
       <r>   -7.0904    1.0000 </r>
       <r>   -7.0136    1.0000 </r>
       <r>   -6.8781    1.0000 </r>
       <r>   -6.7717    1.0000 </r>
       <r>   -6.7331    1.0000 </r>
       <r>   -6.6946    1.0000 </r>
       <r>   -6.6042    1.0000 </r>
       <r>   -6.5859    1.0000 </r>
       <r>   -6.5446    1.0000 </r>
       <r>   -6.4710    1.0000 </r>
       <r>   -6.4534    1.0000 </r>
       <r>   -6.3936    1.0000 </r>
       <r>   -6.3742    1.0000 </r>
       <r>   -6.3594    1.0000 </r>
       <r>   -6.2854    1.0000 </r>
       <r>   -6.2219    1.0000 </r>
       <r>   -6.2098    1.0000 </r>
       <r>   -6.1329    1.0000 </r>
       <r>   -6.1272    1.0000 </r>
       <r>   -6.0671    1.0000 </r>
       <r>   -6.0044    1.0000 </r>
       <r>   -5.9080    1.0000 </r>
       <r>   -5.8287    1.0000 </r>
       <r>   -5.8013    1.0000 </r>
       <r>   -5.6654    1.0000 </r>
       <r>   -5.6394    1.0000 </r>
       <r>   -5.6015    1.0000 </r>
       <r>   -5.5699    1.0000 </r>
       <r>   -5.5254    1.0000 </r>
       <r>   -5.5150    1.0000 </r>
       <r>   -5.4597    1.0000 </r>
       <r>   -5.4211    1.0000 </r>
       <r>   -5.3972    1.0000 </r>
       <r>   -5.3733    1.0000 </r>
       <r>   -5.3571    1.0000 </r>
       <r>   -5.3358    1.0000 </r>
       <r>   -5.3283    1.0000 </r>
       <r>   -5.3039    1.0000 </r>
       <r>   -5.2584    1.0000 </r>
       <r>   -5.2354    1.0000 </r>
       <r>   -5.2239    1.0000 </r>
       <r>   -5.1966    1.0000 </r>
       <r>   -5.1710    1.0000 </r>
       <r>   -5.1461    1.0000 </r>
       <r>   -5.1271    1.0000 </r>
       <r>   -5.1181    1.0000 </r>
       <r>   -5.0700    1.0000 </r>
       <r>   -5.0486    1.0000 </r>
       <r>   -4.9950    1.0000 </r>
       <r>   -4.9884    1.0000 </r>
       <r>   -4.9794    1.0000 </r>
       <r>   -4.9238    1.0000 </r>
       <r>   -4.8995    1.0000 </r>
       <r>   -4.8838    1.0000 </r>
       <r>   -4.8831    1.0000 </r>
       <r>   -4.8449    1.0000 </r>
       <r>   -4.8195    1.0000 </r>
       <r>   -4.8147    1.0000 </r>
       <r>   -4.7603    1.0000 </r>
       <r>   -4.7135    1.0000 </r>
       <r>   -4.5325    1.0000 </r>
       <r>   -4.1711    1.0000 </r>
       <r>   -4.1504    1.0000 </r>
       <r>   -3.5087    1.0000 </r>
       <r>   -3.0322   -0.0000 </r>
       <r>   -2.9138   -0.0000 </r>
       <r>   -2.5381   -0.0000 </r>
       <r>   -2.3817   -0.0000 </r>
       <r>   -2.0038   -0.0000 </r>
       <r>   -1.8670   -0.0000 </r>
       <r>   -1.7481   -0.0000 </r>
       <r>   -1.4215   -0.0000 </r>
       <r>   -1.0526   -0.0000 </r>
       <r>   -0.9593   -0.0000 </r>
       <r>   -0.7202   -0.0000 </r>
       <r>   -0.3609    0.0000 </r>
       <r>   -0.2642    0.0000 </r>
       <r>   -0.1356    0.0000 </r>
       <r>    0.1486    0.0000 </r>
      </set>
     </set>
     <set comment="spin 2">
      <set comment="kpoint 1">
       <r>  -28.4160    1.0000 </r>
       <r>  -13.8374    1.0000 </r>
       <r>  -11.2217    1.0000 </r>
       <r>  -11.1085    1.0000 </r>
       <r>  -10.9904    1.0000 </r>
       <r>  -10.0404    1.0000 </r>
       <r>   -8.5170    1.0000 </r>
       <r>   -8.1367    1.0000 </r>
       <r>   -7.6042    1.0000 </r>
       <r>   -7.4459    1.0000 </r>
       <r>   -7.3547    1.0000 </r>
       <r>   -7.2171    1.0000 </r>
       <r>   -7.1905    1.0000 </r>
       <r>   -7.0616    1.0000 </r>
       <r>   -6.9873    1.0000 </r>
       <r>   -6.8389    1.0000 </r>
       <r>   -6.7497    1.0000 </r>
       <r>   -6.7033    1.0000 </r>
       <r>   -6.6595    1.0000 </r>
       <r>   -6.5838    1.0000 </r>
       <r>   -6.5659    1.0000 </r>
       <r>   -6.5248    1.0000 </r>
       <r>   -6.4424    1.0000 </r>
       <r>   -6.4298    1.0000 </r>
       <r>   -6.3687    1.0000 </r>
       <r>   -6.3440    1.0000 </r>
       <r>   -6.3283    1.0000 </r>
       <r>   -6.2641    1.0000 </r>
       <r>   -6.1975    1.0000 </r>
       <r>   -6.1836    1.0000 </r>
       <r>   -6.1068    1.0000 </r>
       <r>   -6.0989    1.0000 </r>
       <r>   -6.0391    1.0000 </r>
       <r>   -5.9826    1.0000 </r>
       <r>   -5.8866    1.0000 </r>
       <r>   -5.8053    1.0000 </r>
       <r>   -5.7683    1.0000 </r>
       <r>   -5.6443    1.0000 </r>
       <r>   -5.6082    1.0000 </r>
       <r>   -5.5810    1.0000 </r>
       <r>   -5.5467    1.0000 </r>
       <r>   -5.5007    1.0000 </r>
       <r>   -5.4865    1.0000 </r>
       <r>   -5.4313    1.0000 </r>
       <r>   -5.3895    1.0000 </r>
       <r>   -5.3662    1.0000 </r>
       <r>   -5.3479    1.0000 </r>
       <r>   -5.3360    1.0000 </r>
       <r>   -5.3099    1.0000 </r>
       <r>   -5.2993    1.0000 </r>
       <r>   -5.2780    1.0000 </r>
       <r>   -5.2360    1.0000 </r>
       <r>   -5.2103    1.0000 </r>
       <r>   -5.1999    1.0000 </r>
       <r>   -5.1705    1.0000 </r>
       <r>   -5.1474    1.0000 </r>
       <r>   -5.1285    1.0000 </r>
       <r>   -5.1084    1.0000 </r>
       <r>   -5.0940    1.0000 </r>
       <r>   -5.0378    1.0000 </r>
       <r>   -5.0239    1.0000 </r>
       <r>   -4.9701    1.0000 </r>
       <r>   -4.9681    1.0000 </r>
       <r>   -4.9504    1.0000 </r>
       <r>   -4.8984    1.0000 </r>
       <r>   -4.8724    1.0000 </r>
       <r>   -4.8618    1.0000 </r>
       <r>   -4.8392    1.0000 </r>
       <r>   -4.8158    1.0000 </r>
       <r>   -4.7873    1.0000 </r>
       <r>   -4.7788    1.0000 </r>
       <r>   -4.7361    1.0000 </r>
       <r>   -4.6845    1.0000 </r>
       <r>   -4.4898    1.0000 </r>
       <r>   -4.1197    1.0191 </r>
       <r>   -4.1013    0.9809 </r>
       <r>   -3.2990   -0.0000 </r>
       <r>   -2.9823   -0.0000 </r>
       <r>   -2.8653   -0.0000 </r>
       <r>   -2.4723   -0.0000 </r>
       <r>   -2.2886   -0.0000 </r>
       <r>   -1.9757   -0.0000 </r>
       <r>   -1.7916   -0.0000 </r>
       <r>   -1.6829   -0.0000 </r>
       <r>   -1.3032   -0.0000 </r>
       <r>   -0.9170    0.0000 </r>
       <r>   -0.8870    0.0000 </r>
       <r>   -0.6387    0.0000 </r>
       <r>   -0.2618    0.0000 </r>
       <r>   -0.2245    0.0000 </r>
       <r>   -0.0586    0.0000 </r>
       <r>    0.1918    0.0000 </r>
      </set>
     </set>
    </set>
   </array>
  </eigenvalues>
  <separator name="orbital magnetization" >
   <v name="MAGDIPOLOUT">      0.00000000      0.00000000      0.00000000</v>
  </separator>
  <dos>
   <i name="efermi">     -4.02470902 </i>
   <total>
    <array>
     <dimension dim="1">gridpoints</dimension>
     <dimension dim="2">spin</dimension>
     <field>energy</field>
     <field>total</field>
     <field>integrated</field>
     <set>
      <set comment="spin 1">
       <r>   -29.8683     0.0000     0.0000 </r>
       <r>   -29.7634     0.0000     0.0000 </r>
       <r>   -29.6584     0.0000     0.0000 </r>
       <r>   -29.5534     0.0000     0.0000 </r>
       <r>   -29.4484     0.0000     0.0000 </r>
       <r>   -29.3435     0.0000     0.0000 </r>
       <r>   -29.2385    -0.0000    -0.0000 </r>
       <r>   -29.1335    -0.0000    -0.0000 </r>
       <r>   -29.0286    -0.0000    -0.0000 </r>
       <r>   -28.9236    -0.0000    -0.0000 </r>
       <r>   -28.8186    -0.0000    -0.0000 </r>
       <r>   -28.7136    -0.0061    -0.0006 </r>
       <r>   -28.6087    -0.3326    -0.0356 </r>
       <r>   -28.5037     1.3257     0.1036 </r>
       <r>   -28.3987    14.2252     1.5968 </r>
       <r>   -28.2938     4.4230     2.0611 </r>
       <r>   -28.1888    -0.5584     2.0025 </r>
       <r>   -28.0838    -0.0239     2.0000 </r>
       <r>   -27.9788    -0.0001     2.0000 </r>
       <r>   -27.8739    -0.0000     2.0000 </r>
       <r>   -27.7689    -0.0000     2.0000 </r>
       <r>   -27.6639     0.0000     2.0000 </r>
       <r>   -27.5589     0.0000     2.0000 </r>
       <r>   -27.4540     0.0000     2.0000 </r>
       <r>   -27.3490     0.0000     2.0000 </r>
       <r>   -27.2440     0.0000     2.0000 </r>
       <r>   -27.1391     0.0000     2.0000 </r>
       <r>   -27.0341     0.0000     2.0000 </r>
       <r>   -26.9291     0.0000     2.0000 </r>
       <r>   -26.8241     0.0000     2.0000 </r>
       <r>   -26.7192     0.0000     2.0000 </r>
       <r>   -26.6142     0.0000     2.0000 </r>
       <r>   -26.5092     0.0000     2.0000 </r>
       <r>   -26.4043     0.0000     2.0000 </r>
       <r>   -26.2993     0.0000     2.0000 </r>
       <r>   -26.1943     0.0000     2.0000 </r>
       <r>   -26.0893     0.0000     2.0000 </r>
       <r>   -25.9844     0.0000     2.0000 </r>
       <r>   -25.8794     0.0000     2.0000 </r>
       <r>   -25.7744     0.0000     2.0000 </r>
       <r>   -25.6695     0.0000     2.0000 </r>
       <r>   -25.5645     0.0000     2.0000 </r>
       <r>   -25.4595     0.0000     2.0000 </r>
       <r>   -25.3545     0.0000     2.0000 </r>
       <r>   -25.2496     0.0000     2.0000 </r>
       <r>   -25.1446     0.0000     2.0000 </r>
       <r>   -25.0396     0.0000     2.0000 </r>
       <r>   -24.9346     0.0000     2.0000 </r>
       <r>   -24.8297     0.0000     2.0000 </r>
       <r>   -24.7247     0.0000     2.0000 </r>
       <r>   -24.6197     0.0000     2.0000 </r>
       <r>   -24.5148     0.0000     2.0000 </r>
       <r>   -24.4098     0.0000     2.0000 </r>
       <r>   -24.3048     0.0000     2.0000 </r>
       <r>   -24.1998     0.0000     2.0000 </r>
       <r>   -24.0949     0.0000     2.0000 </r>
       <r>   -23.9899     0.0000     2.0000 </r>
       <r>   -23.8849     0.0000     2.0000 </r>
       <r>   -23.7800     0.0000     2.0000 </r>
       <r>   -23.6750     0.0000     2.0000 </r>
       <r>   -23.5700     0.0000     2.0000 </r>
       <r>   -23.4650     0.0000     2.0000 </r>
       <r>   -23.3601     0.0000     2.0000 </r>
       <r>   -23.2551     0.0000     2.0000 </r>
       <r>   -23.1501     0.0000     2.0000 </r>
       <r>   -23.0452     0.0000     2.0000 </r>
       <r>   -22.9402     0.0000     2.0000 </r>
       <r>   -22.8352     0.0000     2.0000 </r>
       <r>   -22.7302     0.0000     2.0000 </r>
       <r>   -22.6253     0.0000     2.0000 </r>
       <r>   -22.5203     0.0000     2.0000 </r>
       <r>   -22.4153     0.0000     2.0000 </r>
       <r>   -22.3103     0.0000     2.0000 </r>
       <r>   -22.2054     0.0000     2.0000 </r>
       <r>   -22.1004     0.0000     2.0000 </r>
       <r>   -21.9954     0.0000     2.0000 </r>
       <r>   -21.8905     0.0000     2.0000 </r>
       <r>   -21.7855     0.0000     2.0000 </r>
       <r>   -21.6805     0.0000     2.0000 </r>
       <r>   -21.5755     0.0000     2.0000 </r>
       <r>   -21.4706     0.0000     2.0000 </r>
       <r>   -21.3656     0.0000     2.0000 </r>
       <r>   -21.2606     0.0000     2.0000 </r>
       <r>   -21.1557     0.0000     2.0000 </r>
       <r>   -21.0507     0.0000     2.0000 </r>
       <r>   -20.9457     0.0000     2.0000 </r>
       <r>   -20.8407     0.0000     2.0000 </r>
       <r>   -20.7358     0.0000     2.0000 </r>
       <r>   -20.6308     0.0000     2.0000 </r>
       <r>   -20.5258     0.0000     2.0000 </r>
       <r>   -20.4209     0.0000     2.0000 </r>
       <r>   -20.3159     0.0000     2.0000 </r>
       <r>   -20.2109     0.0000     2.0000 </r>
       <r>   -20.1059     0.0000     2.0000 </r>
       <r>   -20.0010     0.0000     2.0000 </r>
       <r>   -19.8960     0.0000     2.0000 </r>
       <r>   -19.7910     0.0000     2.0000 </r>
       <r>   -19.6860     0.0000     2.0000 </r>
       <r>   -19.5811     0.0000     2.0000 </r>
       <r>   -19.4761     0.0000     2.0000 </r>
       <r>   -19.3711     0.0000     2.0000 </r>
       <r>   -19.2662     0.0000     2.0000 </r>
       <r>   -19.1612     0.0000     2.0000 </r>
       <r>   -19.0562     0.0000     2.0000 </r>
       <r>   -18.9512     0.0000     2.0000 </r>
       <r>   -18.8463     0.0000     2.0000 </r>
       <r>   -18.7413     0.0000     2.0000 </r>
       <r>   -18.6363     0.0000     2.0000 </r>
       <r>   -18.5314     0.0000     2.0000 </r>
       <r>   -18.4264     0.0000     2.0000 </r>
       <r>   -18.3214     0.0000     2.0000 </r>
       <r>   -18.2164     0.0000     2.0000 </r>
       <r>   -18.1115     0.0000     2.0000 </r>
       <r>   -18.0065     0.0000     2.0000 </r>
       <r>   -17.9015     0.0000     2.0000 </r>
       <r>   -17.7965     0.0000     2.0000 </r>
       <r>   -17.6916     0.0000     2.0000 </r>
       <r>   -17.5866     0.0000     2.0000 </r>
       <r>   -17.4816     0.0000     2.0000 </r>
       <r>   -17.3767     0.0000     2.0000 </r>
       <r>   -17.2717     0.0000     2.0000 </r>
       <r>   -17.1667     0.0000     2.0000 </r>
       <r>   -17.0617     0.0000     2.0000 </r>
       <r>   -16.9568     0.0000     2.0000 </r>
       <r>   -16.8518     0.0000     2.0000 </r>
       <r>   -16.7468     0.0000     2.0000 </r>
       <r>   -16.6419     0.0000     2.0000 </r>
       <r>   -16.5369     0.0000     2.0000 </r>
       <r>   -16.4319     0.0000     2.0000 </r>
       <r>   -16.3269     0.0000     2.0000 </r>
       <r>   -16.2220     0.0000     2.0000 </r>
       <r>   -16.1170     0.0000     2.0000 </r>
       <r>   -16.0120     0.0000     2.0000 </r>
       <r>   -15.9071     0.0000     2.0000 </r>
       <r>   -15.8021     0.0000     2.0000 </r>
       <r>   -15.6971     0.0000     2.0000 </r>
       <r>   -15.5921     0.0000     2.0000 </r>
       <r>   -15.4872     0.0000     2.0000 </r>
       <r>   -15.3822     0.0000     2.0000 </r>
       <r>   -15.2772     0.0000     2.0000 </r>
       <r>   -15.1722     0.0000     2.0000 </r>
       <r>   -15.0673     0.0000     2.0000 </r>
       <r>   -14.9623     0.0000     2.0000 </r>
       <r>   -14.8573     0.0000     2.0000 </r>
       <r>   -14.7524    -0.0000     2.0000 </r>
       <r>   -14.6474    -0.0000     2.0000 </r>
       <r>   -14.5424    -0.0000     2.0000 </r>
       <r>   -14.4374    -0.0000     2.0000 </r>
       <r>   -14.3325    -0.0000     2.0000 </r>
       <r>   -14.2275    -0.0001     2.0000 </r>
       <r>   -14.1225    -0.0267     1.9972 </r>
       <r>   -14.0176    -0.5740     1.9369 </r>
       <r>   -13.9126     4.7600     2.4366 </r>
       <r>   -13.8076    14.0814     3.9148 </r>
       <r>   -13.7026     1.1308     4.0335 </r>
       <r>   -13.5977    -0.3133     4.0006 </r>
       <r>   -13.4927    -0.0054     4.0000 </r>
       <r>   -13.3877    -0.0000     4.0000 </r>
       <r>   -13.2828    -0.0000     4.0000 </r>
       <r>   -13.1778    -0.0000     4.0000 </r>
       <r>   -13.0728     0.0000     4.0000 </r>
       <r>   -12.9678     0.0000     4.0000 </r>
       <r>   -12.8629     0.0000     4.0000 </r>
       <r>   -12.7579     0.0000     4.0000 </r>
       <r>   -12.6529     0.0000     4.0000 </r>
       <r>   -12.5479     0.0000     4.0000 </r>
       <r>   -12.4430     0.0000     4.0000 </r>
       <r>   -12.3380     0.0000     4.0000 </r>
       <r>   -12.2330     0.0000     4.0000 </r>
       <r>   -12.1281    -0.0000     4.0000 </r>
       <r>   -12.0231    -0.0000     4.0000 </r>
       <r>   -11.9181    -0.0000     4.0000 </r>
       <r>   -11.8131    -0.0000     4.0000 </r>
       <r>   -11.7082    -0.0000     4.0000 </r>
       <r>   -11.6032    -0.0001     4.0000 </r>
       <r>   -11.4982    -0.0264     3.9972 </r>
       <r>   -11.3933    -0.5817     3.9362 </r>
       <r>   -11.2883     4.2919     4.3867 </r>
       <r>   -11.1833    15.4353     6.0070 </r>
       <r>   -11.0783    22.3486     8.3529 </r>
       <r>   -10.9734    16.1504    10.0483 </r>
       <r>   -10.8684    -0.2197    10.0252 </r>
       <r>   -10.7634    -0.2375    10.0003 </r>
       <r>   -10.6585    -0.0027    10.0000 </r>
       <r>   -10.5535    -0.0000    10.0000 </r>
       <r>   -10.4485    -0.0000    10.0000 </r>
       <r>   -10.3435    -0.0143     9.9985 </r>
       <r>   -10.2386    -0.4746     9.9487 </r>
       <r>   -10.1336     3.0260    10.2663 </r>
       <r>   -10.0286    14.5933    11.7982 </r>
       <r>    -9.9236     2.3571    12.0456 </r>
       <r>    -9.8187    -0.4240    12.0011 </r>
       <r>    -9.7137    -0.0107    12.0000 </r>
       <r>    -9.6087    -0.0000    12.0000 </r>
       <r>    -9.5038    -0.0000    12.0000 </r>
       <r>    -9.3988    -0.0000    12.0000 </r>
       <r>    -9.2938    -0.0000    12.0000 </r>
       <r>    -9.1888    -0.0000    12.0000 </r>
       <r>    -9.0839    -0.0000    12.0000 </r>
       <r>    -8.9789    -0.0000    12.0000 </r>
       <r>    -8.8739    -0.0002    12.0000 </r>
       <r>    -8.7690    -0.0491    11.9948 </r>
       <r>    -8.6640    -0.6226    11.9295 </r>
       <r>    -8.5590     6.8746    12.6511 </r>
       <r>    -8.4540    12.8264    13.9975 </r>
       <r>    -8.3491    -0.1673    13.9800 </r>
       <r>    -8.2441     1.8152    14.1705 </r>
       <r>    -8.1391    14.5313    15.6959 </r>
       <r>    -8.0341     3.4147    16.0543 </r>
       <r>    -7.9292    -0.5060    16.0012 </r>
       <r>    -7.8242    -0.3211    15.9675 </r>
       <r>    -7.7192     1.0217    16.0748 </r>
       <r>    -7.6143    13.4299    17.4845 </r>
       <r>    -7.5093     8.2362    18.3491 </r>
       <r>    -7.4043    19.2236    20.3670 </r>
       <r>    -7.2993    19.7459    22.4398 </r>
       <r>    -7.1944    28.0804    25.3875 </r>
       <r>    -7.0894    16.7951    27.1505 </r>
       <r>    -6.9844    22.0130    29.4612 </r>
       <r>    -6.8795    13.7851    30.9083 </r>
       <r>    -6.7745    23.0739    33.3304 </r>
       <r>    -6.6695    38.4609    37.3677 </r>
       <r>    -6.5645    40.1901    41.5866 </r>
       <r>    -6.4596    44.3465    46.2417 </r>
       <r>    -6.3546    55.8617    52.1056 </r>
       <r>    -6.2496    42.2834    56.5442 </r>
       <r>    -6.1447    46.3350    61.4081 </r>
       <r>    -6.0397    42.9683    65.9185 </r>
       <r>    -5.9347    24.2130    68.4602 </r>
       <r>    -5.8297    28.5614    71.4584 </r>
       <r>    -5.7248    24.7426    74.0557 </r>
       <r>    -5.6198    36.0785    77.8429 </r>
       <r>    -5.5148    58.9892    84.0351 </r>
       <r>    -5.4098    61.1060    90.4495 </r>
       <r>    -5.3049    89.7349    99.8692 </r>
       <r>    -5.1999    84.1028   108.6976 </r>
       <r>    -5.0949    83.7753   117.4917 </r>
       <r>    -4.9900    69.1537   124.7509 </r>
       <r>    -4.8850    83.3004   133.4951 </r>
       <r>    -4.7800    82.0166   142.1046 </r>
       <r>    -4.6750    34.6165   145.7383 </r>
       <r>    -4.5701     7.2536   146.4998 </r>
       <r>    -4.4651    13.3702   147.9033 </r>
       <r>    -4.3601     0.9323   148.0011 </r>
       <r>    -4.2552    -0.5598   147.9424 </r>
       <r>    -4.1502    22.9314   150.3495 </r>
       <r>    -4.0452    16.9621   152.1301 </r>
       <r>    -3.9402    -1.0813   152.0166 </r>
       <r>    -3.8353    -0.1572   152.0001 </r>
       <r>    -3.7303    -0.0718   151.9925 </r>
       <r>    -3.6253    -0.5936   151.9302 </r>
       <r>    -3.5204     8.3202   152.8036 </r>
       <r>    -3.4154    11.7150   154.0333 </r>
       <r>    -3.3104    -0.1623   154.0163 </r>
       <r>    -3.2054    -0.4839   153.9655 </r>
       <r>    -3.1005     0.9852   154.0689 </r>
       <r>    -2.9955    14.4834   155.5893 </r>
       <r>    -2.8905    17.6744   157.4446 </r>
       <r>    -2.7855     5.9583   158.0701 </r>
       <r>    -2.6806    -1.2115   157.9429 </r>
       <r>    -2.5756     4.2851   158.3927 </r>
       <r>    -2.4706    14.1913   159.8824 </r>
       <r>    -2.3657    13.5270   161.3023 </r>
       <r>    -2.2607     7.3109   162.0698 </r>
       <r>    -2.1557    -1.1182   161.9524 </r>
       <r>    -2.0507     3.0085   162.2682 </r>
       <r>    -1.9458    14.8866   163.8309 </r>
       <r>    -1.8408    15.3095   165.4380 </r>
       <r>    -1.7358    17.5005   167.2750 </r>
       <r>    -1.6309     7.5020   168.0625 </r>
       <r>    -1.5259    -1.0800   167.9492 </r>
       <r>    -1.4209    10.1070   169.0101 </r>
       <r>    -1.3159     9.9893   170.0587 </r>
       <r>    -1.2110    -0.9267   169.9614 </r>
       <r>    -1.1060     1.9435   170.1654 </r>
       <r>    -1.0010    18.5597   172.1137 </r>
       <r>    -0.8961    16.8748   173.8851 </r>
       <r>    -0.7911     2.1863   174.1146 </r>
       <r>    -0.6861    13.6073   175.5430 </r>
       <r>    -0.5811     4.8896   176.0562 </r>
       <r>    -0.4762    -1.2677   175.9232 </r>
       <r>    -0.3712     7.9784   176.7607 </r>
       <r>    -0.2662    20.7110   178.9347 </r>
       <r>    -0.1612    16.3691   180.6530 </r>
       <r>    -0.0563    12.5963   181.9753 </r>
       <r>     0.0487     0.0038   181.9757 </r>
       <r>     0.1537    10.5755   183.0858 </r>
       <r>     0.2586     9.3308   184.0653 </r>
       <r>     0.3636    -0.5310   184.0096 </r>
       <r>     0.4686    -0.0905   184.0001 </r>
       <r>     0.5736    -0.0006   184.0000 </r>
       <r>     0.6785    -0.0000   184.0000 </r>
       <r>     0.7835    -0.0000   184.0000 </r>
       <r>     0.8885     0.0000   184.0000 </r>
       <r>     0.9934     0.0000   184.0000 </r>
       <r>     1.0984     0.0000   184.0000 </r>
       <r>     1.2034     0.0000   184.0000 </r>
       <r>     1.3084     0.0000   184.0000 </r>
       <r>     1.4133     0.0000   184.0000 </r>
       <r>     1.5183     0.0000   184.0000 </r>
       <r>     1.6233     0.0000   184.0000 </r>
      </set>
      <set comment="spin 2">
       <r>   -29.8683     0.0000     0.0000 </r>
       <r>   -29.7634     0.0000     0.0000 </r>
       <r>   -29.6584     0.0000     0.0000 </r>
       <r>   -29.5534     0.0000     0.0000 </r>
       <r>   -29.4484     0.0000     0.0000 </r>
       <r>   -29.3435     0.0000     0.0000 </r>
       <r>   -29.2385    -0.0000    -0.0000 </r>
       <r>   -29.1335    -0.0000    -0.0000 </r>
       <r>   -29.0286    -0.0000    -0.0000 </r>
       <r>   -28.9236    -0.0000    -0.0000 </r>
       <r>   -28.8186    -0.0000    -0.0000 </r>
       <r>   -28.7136    -0.0020    -0.0002 </r>
       <r>   -28.6087    -0.1899    -0.0201 </r>
       <r>   -28.5037     0.0564    -0.0142 </r>
       <r>   -28.3987    12.4091     1.2884 </r>
       <r>   -28.2938     7.4547     2.0709 </r>
       <r>   -28.1888    -0.6182     2.0060 </r>
       <r>   -28.0838    -0.0571     2.0000 </r>
       <r>   -27.9788    -0.0003     2.0000 </r>
       <r>   -27.8739    -0.0000     2.0000 </r>
       <r>   -27.7689    -0.0000     2.0000 </r>
       <r>   -27.6639     0.0000     2.0000 </r>
       <r>   -27.5589     0.0000     2.0000 </r>
       <r>   -27.4540     0.0000     2.0000 </r>
       <r>   -27.3490     0.0000     2.0000 </r>
       <r>   -27.2440     0.0000     2.0000 </r>
       <r>   -27.1391     0.0000     2.0000 </r>
       <r>   -27.0341     0.0000     2.0000 </r>
       <r>   -26.9291     0.0000     2.0000 </r>
       <r>   -26.8241     0.0000     2.0000 </r>
       <r>   -26.7192     0.0000     2.0000 </r>
       <r>   -26.6142     0.0000     2.0000 </r>
       <r>   -26.5092     0.0000     2.0000 </r>
       <r>   -26.4043     0.0000     2.0000 </r>
       <r>   -26.2993     0.0000     2.0000 </r>
       <r>   -26.1943     0.0000     2.0000 </r>
       <r>   -26.0893     0.0000     2.0000 </r>
       <r>   -25.9844     0.0000     2.0000 </r>
       <r>   -25.8794     0.0000     2.0000 </r>
       <r>   -25.7744     0.0000     2.0000 </r>
       <r>   -25.6695     0.0000     2.0000 </r>
       <r>   -25.5645     0.0000     2.0000 </r>
       <r>   -25.4595     0.0000     2.0000 </r>
       <r>   -25.3545     0.0000     2.0000 </r>
       <r>   -25.2496     0.0000     2.0000 </r>
       <r>   -25.1446     0.0000     2.0000 </r>
       <r>   -25.0396     0.0000     2.0000 </r>
       <r>   -24.9346     0.0000     2.0000 </r>
       <r>   -24.8297     0.0000     2.0000 </r>
       <r>   -24.7247     0.0000     2.0000 </r>
       <r>   -24.6197     0.0000     2.0000 </r>
       <r>   -24.5148     0.0000     2.0000 </r>
       <r>   -24.4098     0.0000     2.0000 </r>
       <r>   -24.3048     0.0000     2.0000 </r>
       <r>   -24.1998     0.0000     2.0000 </r>
       <r>   -24.0949     0.0000     2.0000 </r>
       <r>   -23.9899     0.0000     2.0000 </r>
       <r>   -23.8849     0.0000     2.0000 </r>
       <r>   -23.7800     0.0000     2.0000 </r>
       <r>   -23.6750     0.0000     2.0000 </r>
       <r>   -23.5700     0.0000     2.0000 </r>
       <r>   -23.4650     0.0000     2.0000 </r>
       <r>   -23.3601     0.0000     2.0000 </r>
       <r>   -23.2551     0.0000     2.0000 </r>
       <r>   -23.1501     0.0000     2.0000 </r>
       <r>   -23.0452     0.0000     2.0000 </r>
       <r>   -22.9402     0.0000     2.0000 </r>
       <r>   -22.8352     0.0000     2.0000 </r>
       <r>   -22.7302     0.0000     2.0000 </r>
       <r>   -22.6253     0.0000     2.0000 </r>
       <r>   -22.5203     0.0000     2.0000 </r>
       <r>   -22.4153     0.0000     2.0000 </r>
       <r>   -22.3103     0.0000     2.0000 </r>
       <r>   -22.2054     0.0000     2.0000 </r>
       <r>   -22.1004     0.0000     2.0000 </r>
       <r>   -21.9954     0.0000     2.0000 </r>
       <r>   -21.8905     0.0000     2.0000 </r>
       <r>   -21.7855     0.0000     2.0000 </r>
       <r>   -21.6805     0.0000     2.0000 </r>
       <r>   -21.5755     0.0000     2.0000 </r>
       <r>   -21.4706     0.0000     2.0000 </r>
       <r>   -21.3656     0.0000     2.0000 </r>
       <r>   -21.2606     0.0000     2.0000 </r>
       <r>   -21.1557     0.0000     2.0000 </r>
       <r>   -21.0507     0.0000     2.0000 </r>
       <r>   -20.9457     0.0000     2.0000 </r>
       <r>   -20.8407     0.0000     2.0000 </r>
       <r>   -20.7358     0.0000     2.0000 </r>
       <r>   -20.6308     0.0000     2.0000 </r>
       <r>   -20.5258     0.0000     2.0000 </r>
       <r>   -20.4209     0.0000     2.0000 </r>
       <r>   -20.3159     0.0000     2.0000 </r>
       <r>   -20.2109     0.0000     2.0000 </r>
       <r>   -20.1059     0.0000     2.0000 </r>
       <r>   -20.0010     0.0000     2.0000 </r>
       <r>   -19.8960     0.0000     2.0000 </r>
       <r>   -19.7910     0.0000     2.0000 </r>
       <r>   -19.6860     0.0000     2.0000 </r>
       <r>   -19.5811     0.0000     2.0000 </r>
       <r>   -19.4761     0.0000     2.0000 </r>
       <r>   -19.3711     0.0000     2.0000 </r>
       <r>   -19.2662     0.0000     2.0000 </r>
       <r>   -19.1612     0.0000     2.0000 </r>
       <r>   -19.0562     0.0000     2.0000 </r>
       <r>   -18.9512     0.0000     2.0000 </r>
       <r>   -18.8463     0.0000     2.0000 </r>
       <r>   -18.7413     0.0000     2.0000 </r>
       <r>   -18.6363     0.0000     2.0000 </r>
       <r>   -18.5314     0.0000     2.0000 </r>
       <r>   -18.4264     0.0000     2.0000 </r>
       <r>   -18.3214     0.0000     2.0000 </r>
       <r>   -18.2164     0.0000     2.0000 </r>
       <r>   -18.1115     0.0000     2.0000 </r>
       <r>   -18.0065     0.0000     2.0000 </r>
       <r>   -17.9015     0.0000     2.0000 </r>
       <r>   -17.7965     0.0000     2.0000 </r>
       <r>   -17.6916     0.0000     2.0000 </r>
       <r>   -17.5866     0.0000     2.0000 </r>
       <r>   -17.4816     0.0000     2.0000 </r>
       <r>   -17.3767     0.0000     2.0000 </r>
       <r>   -17.2717     0.0000     2.0000 </r>
       <r>   -17.1667     0.0000     2.0000 </r>
       <r>   -17.0617     0.0000     2.0000 </r>
       <r>   -16.9568     0.0000     2.0000 </r>
       <r>   -16.8518     0.0000     2.0000 </r>
       <r>   -16.7468     0.0000     2.0000 </r>
       <r>   -16.6419     0.0000     2.0000 </r>
       <r>   -16.5369     0.0000     2.0000 </r>
       <r>   -16.4319     0.0000     2.0000 </r>
       <r>   -16.3269     0.0000     2.0000 </r>
       <r>   -16.2220     0.0000     2.0000 </r>
       <r>   -16.1170     0.0000     2.0000 </r>
       <r>   -16.0120     0.0000     2.0000 </r>
       <r>   -15.9071     0.0000     2.0000 </r>
       <r>   -15.8021     0.0000     2.0000 </r>
       <r>   -15.6971     0.0000     2.0000 </r>
       <r>   -15.5921     0.0000     2.0000 </r>
       <r>   -15.4872     0.0000     2.0000 </r>
       <r>   -15.3822     0.0000     2.0000 </r>
       <r>   -15.2772     0.0000     2.0000 </r>
       <r>   -15.1722     0.0000     2.0000 </r>
       <r>   -15.0673     0.0000     2.0000 </r>
       <r>   -14.9623     0.0000     2.0000 </r>
       <r>   -14.8573     0.0000     2.0000 </r>
       <r>   -14.7524     0.0000     2.0000 </r>
       <r>   -14.6474    -0.0000     2.0000 </r>
       <r>   -14.5424    -0.0000     2.0000 </r>
       <r>   -14.4374    -0.0000     2.0000 </r>
       <r>   -14.3325    -0.0000     2.0000 </r>
       <r>   -14.2275    -0.0000     2.0000 </r>
       <r>   -14.1225    -0.0040     1.9996 </r>
       <r>   -14.0176    -0.2697     1.9713 </r>
       <r>   -13.9126     0.7168     2.0465 </r>
       <r>   -13.8076    13.6552     3.4799 </r>
       <r>   -13.7026     5.5928     4.0670 </r>
       <r>   -13.5977    -0.6039     4.0036 </r>
       <r>   -13.4927    -0.0344     4.0000 </r>
       <r>   -13.3877    -0.0001     4.0000 </r>
       <r>   -13.2828    -0.0000     4.0000 </r>
       <r>   -13.1778    -0.0000     4.0000 </r>
       <r>   -13.0728     0.0000     4.0000 </r>
       <r>   -12.9678     0.0000     4.0000 </r>
       <r>   -12.8629     0.0000     4.0000 </r>
       <r>   -12.7579     0.0000     4.0000 </r>
       <r>   -12.6529     0.0000     4.0000 </r>
       <r>   -12.5479     0.0000     4.0000 </r>
       <r>   -12.4430     0.0000     4.0000 </r>
       <r>   -12.3380     0.0000     4.0000 </r>
       <r>   -12.2330     0.0000     4.0000 </r>
       <r>   -12.1281     0.0000     4.0000 </r>
       <r>   -12.0231    -0.0000     4.0000 </r>
       <r>   -11.9181    -0.0000     4.0000 </r>
       <r>   -11.8131    -0.0000     4.0000 </r>
       <r>   -11.7082    -0.0000     4.0000 </r>
       <r>   -11.6032    -0.0000     4.0000 </r>
       <r>   -11.4982    -0.0062     3.9993 </r>
       <r>   -11.3933    -0.3380     3.9639 </r>
       <r>   -11.2883     1.0651     4.0757 </r>
       <r>   -11.1833    14.7851     5.6277 </r>
       <r>   -11.0783    18.1303     7.5309 </r>
       <r>   -10.9734    17.3656     9.3538 </r>
       <r>   -10.8684     6.8658    10.0745 </r>
       <r>   -10.7634    -0.6516    10.0061 </r>
       <r>   -10.6585    -0.0577    10.0000 </r>
       <r>   -10.5535    -0.0003    10.0000 </r>
       <r>   -10.4485    -0.0000    10.0000 </r>
       <r>   -10.3435    -0.0015     9.9998 </r>
       <r>   -10.2386    -0.1603     9.9830 </r>
       <r>   -10.1336    -0.1524     9.9670 </r>
       <r>   -10.0286    11.7312    11.1985 </r>
       <r>    -9.9236     8.3010    12.0698 </r>
       <r>    -9.8187    -0.5944    12.0074 </r>
       <r>    -9.7137    -0.0705    12.0000 </r>
       <r>    -9.6087    -0.0004    12.0000 </r>
       <r>    -9.5038    -0.0000    12.0000 </r>
       <r>    -9.3988    -0.0000    12.0000 </r>
       <r>    -9.2938    -0.0000    12.0000 </r>
       <r>    -9.1888    -0.0000    12.0000 </r>
       <r>    -9.0839    -0.0000    12.0000 </r>
       <r>    -8.9789    -0.0000    12.0000 </r>
       <r>    -8.8739    -0.0001    12.0000 </r>
       <r>    -8.7690    -0.0202    11.9979 </r>
       <r>    -8.6640    -0.5320    11.9420 </r>
       <r>    -8.5590     3.9247    12.3540 </r>
       <r>    -8.4540    14.4020    13.8658 </r>
       <r>    -8.3491     1.5487    14.0284 </r>
       <r>    -8.2441    -0.8575    13.9384 </r>
       <r>    -8.1391     9.7218    14.9589 </r>
       <r>    -8.0341    10.4431    16.0551 </r>
       <r>    -7.9292    -0.4071    16.0124 </r>
       <r>    -7.8242    -0.1932    15.9921 </r>
       <r>    -7.7192    -0.5898    15.9302 </r>
       <r>    -7.6143     8.2021    16.7912 </r>
       <r>    -7.5093    12.6366    18.1177 </r>
       <r>    -7.4043    16.8613    19.8877 </r>
       <r>    -7.2993    18.1696    21.7950 </r>
       <r>    -7.1944    23.6242    24.2748 </r>
       <r>    -7.0894    22.3060    26.6164 </r>
       <r>    -6.9844    22.3924    28.9669 </r>
       <r>    -6.8795    13.2081    30.3534 </r>
       <r>    -6.7745    19.9739    32.4501 </r>
       <r>    -6.6695    36.2376    36.2541 </r>
       <r>    -6.5645    42.2167    40.6856 </r>
       <r>    -6.4596    41.9119    45.0852 </r>
       <r>    -6.3546    51.9391    50.5374 </r>
       <r>    -6.2496    48.1345    55.5901 </r>
       <r>    -6.1447    43.0314    60.1072 </r>
       <r>    -6.0397    46.3016    64.9676 </r>
       <r>    -5.9347    29.1517    68.0277 </r>
       <r>    -5.8297    24.4083    70.5899 </r>
       <r>    -5.7248    28.1078    73.5404 </r>
       <r>    -5.6198    28.8936    76.5735 </r>
       <r>    -5.5148    57.3226    82.5907 </r>
       <r>    -5.4098    55.4254    88.4089 </r>
       <r>    -5.3049    86.6195    97.5015 </r>
       <r>    -5.1999    87.3553   106.6713 </r>
       <r>    -5.0949    86.4014   115.7411 </r>
       <r>    -4.9900    68.7681   122.9598 </r>
       <r>    -4.8850    75.3952   130.8742 </r>
       <r>    -4.7800    86.6308   139.9680 </r>
       <r>    -4.6750    50.4388   145.2627 </r>
       <r>    -4.5701     8.4815   146.1530 </r>
       <r>    -4.4651    12.0137   147.4141 </r>
       <r>    -4.3601     6.1953   148.0644 </r>
       <r>    -4.2552    -1.6995   147.8860 </r>
       <r>    -4.1502     8.5379   148.7823 </r>
       <r>    -4.0452    28.2982   151.7528 </r>
       <r>    -3.9402     3.0637   152.0744 </r>
       <r>    -3.8353    -0.6942   152.0015 </r>
       <r>    -3.7303    -0.0146   152.0000 </r>
       <r>    -3.6253    -0.0004   152.0000 </r>
       <r>    -3.5204    -0.0715   151.9925 </r>
       <r>    -3.4154    -0.5920   151.9303 </r>
       <r>    -3.3104     8.3573   152.8076 </r>
       <r>    -3.2054    11.6163   154.0270 </r>
       <r>    -3.1005    -0.8085   153.9421 </r>
       <r>    -2.9955     7.3194   154.7104 </r>
       <r>    -2.8905    18.1560   156.6163 </r>
       <r>    -2.7855    13.1464   157.9963 </r>
       <r>    -2.6806     0.1628   158.0134 </r>
       <r>    -2.5756    -0.6657   157.9435 </r>
       <r>    -2.4706    10.0766   159.0013 </r>
       <r>    -2.3657    10.4383   160.0970 </r>
       <r>    -2.2607    13.0089   161.4626 </r>
       <r>    -2.1557     5.4931   162.0392 </r>
       <r>    -2.0507     0.1044   162.0502 </r>
       <r>    -1.9458    13.1466   163.4302 </r>
       <r>    -1.8408     8.1682   164.2876 </r>
       <r>    -1.7358    16.6276   166.0331 </r>
       <r>    -1.6309    16.9103   167.8082 </r>
       <r>    -1.5259     2.2351   168.0428 </r>
       <r>    -1.4209    -1.0634   167.9312 </r>
       <r>    -1.3159     8.1431   168.7859 </r>
       <r>    -1.2110    11.8491   170.0298 </r>
       <r>    -1.1060    -0.4092   169.9868 </r>
       <r>    -1.0010    -0.5201   169.9322 </r>
       <r>    -0.8961    21.5204   172.1913 </r>
       <r>    -0.7911    17.7844   174.0581 </r>
       <r>    -0.6861     2.3986   174.3099 </r>
       <r>    -0.5811    14.3651   175.8178 </r>
       <r>    -0.4762     2.0387   176.0319 </r>
       <r>    -0.3712    -1.4651   175.8781 </r>
       <r>    -0.2662    13.2586   177.2698 </r>
       <r>    -0.1612    24.7144   179.8642 </r>
       <r>    -0.0563    11.6699   181.0892 </r>
       <r>     0.0487     8.6963   182.0020 </r>
       <r>     0.1537     3.9216   182.4137 </r>
       <r>     0.2586    14.1255   183.8965 </r>
       <r>     0.3636     1.3250   184.0356 </r>
       <r>     0.4686    -0.3326   184.0006 </r>
       <r>     0.5736    -0.0061   184.0000 </r>
       <r>     0.6785    -0.0000   184.0000 </r>
       <r>     0.7835    -0.0000   184.0000 </r>
       <r>     0.8885    -0.0000   184.0000 </r>
       <r>     0.9934     0.0000   184.0000 </r>
       <r>     1.0984     0.0000   184.0000 </r>
       <r>     1.2034     0.0000   184.0000 </r>
       <r>     1.3084     0.0000   184.0000 </r>
       <r>     1.4133     0.0000   184.0000 </r>
       <r>     1.5183     0.0000   184.0000 </r>
       <r>     1.6233     0.0000   184.0000 </r>
      </set>
     </set>
    </array>
   </total>
  </dos>
 </calculation>
 <structure name="finalpos" >
  <crystal>
   <varray name="basis" >
    <v>      15.00000000       0.00000000       0.00000000 </v>
    <v>       0.00000000      15.00000000       0.00000000 </v>
    <v>       0.00000000       0.00000000      15.00000000 </v>
   </varray>
   <i name="volume">   3375.00000000 </i>
   <varray name="rec_basis" >
    <v>       0.06666667       0.00000000       0.00000000 </v>
    <v>       0.00000000       0.06666667       0.00000000 </v>
    <v>       0.00000000       0.00000000       0.06666667 </v>
   </varray>
  </crystal>
  <varray name="positions" >
   <v>       0.28979533       0.41708733       0.55191867 </v>
   <v>       0.37568333       0.54912067       0.48862067 </v>
   <v>       0.39644800       0.29169733       0.56782200 </v>
   <v>       0.53684067       0.50999733       0.47969467 </v>
   <v>       0.54741200       0.34582733       0.52736733 </v>
   <v>       0.45117867       0.44009600       0.61533933 </v>
   <v>       0.41471867       0.39948200       0.44780867 </v>
   <v>       0.22712733       0.57055533       0.54754933 </v>
   <v>       0.33285800       0.54405467       0.65573533 </v>
   <v>       0.34736800       0.68443333       0.57312067 </v>
   <v>       0.48907667       0.66570800       0.47827933 </v>
   <v>       0.62365333       0.47788533       0.60977600 </v>
   <v>       0.48378267       0.59293800       0.61335000 </v>
   <v>       0.74232000       0.48391133       0.64097733 </v>
   <v>       0.81903333       0.49218800       0.64794333 </v>
  </varray>
 </structure>
</modeling>
