 vasp.5.4.4.18Apr17-6-g9f103f2a35 (build May 08 2019 13:49:07) complex          
  
 executed on             LinuxIFC date 2019.11.13  12:07:58
 running on   24 total cores
 distrk:  each k-point on   24 cores,    1 groups
 distr:  one band on NCORES_PER_BAND=   6 cores,    4 groups


--------------------------------------------------------------------------------------------------------


 INCAR:
 POTCAR:    PAW_PBE Cu 22Jun2005                  
 POTCAR:    PAW_PBE C 08Apr2002                   
 POTCAR:    PAW_PBE O 08Apr2002                   
 POTCAR:    PAW_PBE Cu 22Jun2005                  
   VRHFIN =Cu: d10 p1                                                           
   LEXCH  = PE                                                                  
   EATOM  =  1390.9808 eV,  102.2342 Ry                                         
                                                                                
   TITEL  = PAW_PBE Cu 22Jun2005                                                
   LULTRA =        F    use ultrasoft PP ?                                      
   IUNSCR =        1    unscreen: 0-lin 1-nonlin 2-no                           
   RPACOR =    2.000    partial core radius                                     
   POMASS =   63.546; ZVAL   =   11.000    mass and valenz                      
   RCORE  =    2.300    outmost cutoff radius                                   
   RWIGS  =    2.200; RWIGS  =    1.164    wigner-seitz radius (au A)           
   ENMAX  =  295.446; ENMIN  =  221.585 eV                                      
   ICORE  =        3    local potential                                         
   LCOR   =        T    correct aug charges                                     
   LPAW   =        T    paw PP                                                  
   EAUG   =  586.980                                                            
   DEXC   =    0.000                                                            
   RMAX   =    2.344    core radius for proj-oper                               
   RAUG   =    1.300    factor for augmentation sphere                          
   RDEP   =    2.302    radius for radial grids                                 
   RDEPT  =    1.771    core radius for aug-charge                              
                                                                                
   Atomic configuration                                                         
    9 entries                                                                   
     n  l   j            E        occ.                                          
     1  0  0.50     -8850.2468   2.0000                                         
     2  0  0.50     -1062.3498   2.0000                                         
     2  1  1.50      -916.8226   6.0000                                         
     3  0  0.50      -114.6929   2.0000                                         
     3  1  1.50       -72.1325   6.0000                                         
     3  2  2.50        -5.0394  10.0000                                         
     4  0  0.50        -4.6097   1.0000                                         
     4  1  0.50        -4.0817   0.0000                                         
     4  3  2.50        -1.3606   0.0000                                         
   Description                                                                  
     l       E           TYP  RCUT    TYP  RCUT                                 
     2     -5.0393973     23  2.200                                             
     2     10.8846608     23  2.200                                             
     0     -4.6097109     23  2.200                                             
     0      8.2520465     23  2.200                                             
     1     -2.7211652     23  2.200                                             
     1     21.7055443     23  2.200                                             
     3      2.7211652     23  2.300                                             
  local pseudopotential read in
  partial core-charges read in
  partial kinetic energy density read in
  atomic valenz-charges read in
  non local Contribution for L=           2  read in
    real space projection operators read in
  non local Contribution for L=           2  read in
    real space projection operators read in
  non local Contribution for L=           0  read in
    real space projection operators read in
  non local Contribution for L=           0  read in
    real space projection operators read in
  non local Contribution for L=           1  read in
    real space projection operators read in
  non local Contribution for L=           1  read in
    real space projection operators read in
    PAW grid and wavefunctions read in
 
   number of l-projection  operators is LMAX  =           6
   number of lm-projection operators is LMMAX =          18
 
 POTCAR:    PAW_PBE C 08Apr2002                   
   VRHFIN =C: s2p2                                                              
   LEXCH  = PE                                                                  
   EATOM  =   147.1560 eV,   10.8157 Ry                                         
                                                                                
   TITEL  = PAW_PBE C 08Apr2002                                                 
   LULTRA =        F    use ultrasoft PP ?                                      
   IUNSCR =        1    unscreen: 0-lin 1-nonlin 2-no                           
   RPACOR =    1.200    partial core radius                                     
   POMASS =   12.011; ZVAL   =    4.000    mass and valenz                      
   RCORE  =    1.500    outmost cutoff radius                                   
   RWIGS  =    1.630; RWIGS  =    0.863    wigner-seitz radius (au A)           
   ENMAX  =  400.000; ENMIN  =  300.000 eV                                      
   ICORE  =        2    local potential                                         
   LCOR   =        T    correct aug charges                                     
   LPAW   =        T    paw PP                                                  
   EAUG   =  644.873                                                            
   DEXC   =    0.000                                                            
   RMAX   =    1.529    core radius for proj-oper                               
   RAUG   =    1.300    factor for augmentation sphere                          
   RDEP   =    1.501    radius for radial grids                                 
   RDEPT  =    1.300    core radius for aug-charge                              
                                                                                
   Atomic configuration                                                         
    4 entries                                                                   
     n  l   j            E        occ.                                          
     1  0  0.50      -273.3789   2.0000                                         
     2  0  0.50       -13.7508   2.0000                                         
     2  1  0.50        -5.2854   2.0000                                         
     3  2  1.50        -5.4423   0.0000                                         
   Description                                                                  
     l       E           TYP  RCUT    TYP  RCUT                                 
     0    -13.7508458     23  1.200                                             
     0     -8.2022199     23  1.200                                             
     1     -5.2854383     23  1.500                                             
     1     34.0145650     23  1.500                                             
     2     -5.4423304      7  1.500                                             
  local pseudopotential read in
  partial core-charges read in
  partial kinetic energy density read in
  atomic valenz-charges read in
  non local Contribution for L=           0  read in
    real space projection operators read in
  non local Contribution for L=           0  read in
    real space projection operators read in
  non local Contribution for L=           1  read in
    real space projection operators read in
  non local Contribution for L=           1  read in
    real space projection operators read in
    PAW grid and wavefunctions read in
 
   number of l-projection  operators is LMAX  =           4
   number of lm-projection operators is LMMAX =           8
 
 POTCAR:    PAW_PBE O 08Apr2002                   
   VRHFIN =O: s2p4                                                              
   LEXCH  = PE                                                                  
   EATOM  =   432.3788 eV,   31.7789 Ry                                         
                                                                                
   TITEL  = PAW_PBE O 08Apr2002                                                 
   LULTRA =        F    use ultrasoft PP ?                                      
   IUNSCR =        1    unscreen: 0-lin 1-nonlin 2-no                           
   RPACOR =    1.200    partial core radius                                     
   POMASS =   16.000; ZVAL   =    6.000    mass and valenz                      
   RCORE  =    1.520    outmost cutoff radius                                   
   RWIGS  =    1.550; RWIGS  =    0.820    wigner-seitz radius (au A)           
   ENMAX  =  400.000; ENMIN  =  300.000 eV                                      
   ICORE  =        2    local potential                                         
   LCOR   =        T    correct aug charges                                     
   LPAW   =        T    paw PP                                                  
   EAUG   =  605.392                                                            
   DEXC   =    0.000                                                            
   RMAX   =    1.553    core radius for proj-oper                               
   RAUG   =    1.300    factor for augmentation sphere                          
   RDEP   =    1.550    radius for radial grids                                 
   RDEPT  =    1.329    core radius for aug-charge                              
                                                                                
   Atomic configuration                                                         
    4 entries                                                                   
     n  l   j            E        occ.                                          
     1  0  0.50      -514.6923   2.0000                                         
     2  0  0.50       -23.9615   2.0000                                         
     2  1  0.50        -9.0305   4.0000                                         
     3  2  1.50        -9.5241   0.0000                                         
   Description                                                                  
     l       E           TYP  RCUT    TYP  RCUT                                 
     0    -23.9615318     23  1.200                                             
     0     -9.5240782     23  1.200                                             
     1     -9.0304911     23  1.520                                             
     1      8.1634956     23  1.520                                             
     2     -9.5240782      7  1.500                                             
  local pseudopotential read in
  partial core-charges read in
  partial kinetic energy density read in
  kinetic energy density of atom read in
  atomic valenz-charges read in
  non local Contribution for L=           0  read in
    real space projection operators read in
  non local Contribution for L=           0  read in
    real space projection operators read in
  non local Contribution for L=           1  read in
    real space projection operators read in
  non local Contribution for L=           1  read in
    real space projection operators read in
    PAW grid and wavefunctions read in
 
   number of l-projection  operators is LMAX  =           4
   number of lm-projection operators is LMMAX =           8
 
  PAW_PBE Cu 22Jun2005                  :
 energy of atom  1       EATOM=-1390.9808
 kinetic energy error for atom=    0.0033 (will be added to EATOM!!)
  PAW_PBE C 08Apr2002                   :
 energy of atom  2       EATOM= -147.1560
 kinetic energy error for atom=    0.0057 (will be added to EATOM!!)
  PAW_PBE O 08Apr2002                   :
 energy of atom  3       EATOM= -432.3788
 kinetic energy error for atom=    0.0168 (will be added to EATOM!!)
 
 
 POSCAR: Cu13 C1 O1                              
  positions in cartesian coordinates
  No initial velocities read in
 exchange correlation table for  LEXCH =        8
   RHO(1)=    0.500       N(1)  =     2000
   RHO(2)=  100.500       N(2)  =     4000
 


--------------------------------------------------------------------------------------------------------


 ion  position               nearest neighbor table
   1  0.291  0.419  0.560-   8 2.38   3 2.41   2 2.43   6 2.53   9 2.55   7 2.60
   2  0.374  0.541  0.494-   7 2.35   4 2.42  10 2.42   1 2.43   8 2.43  11 2.47  13 2.57   9 2.59
                             6 2.64
   3  0.392  0.293  0.557-   7 2.39   1 2.41   6 2.47   5 2.52
   4  0.530  0.504  0.478-   7 2.36  12 2.36   2 2.42   5 2.43  11 2.49  13 2.56   6 2.56
   5  0.548  0.352  0.532-   6 2.29   4 2.43   7 2.49   3 2.52  12 2.61
   6  0.450  0.437  0.614-   5 2.29  13 2.40   3 2.47   9 2.49   1 2.53   4 2.56   2 2.64   7 2.68

   7  0.417  0.400  0.442-   2 2.35   4 2.36   3 2.39   5 2.49   1 2.60   6 2.68
   8  0.224  0.562  0.553-   9 2.35   1 2.38   2 2.43  10 2.64
   9  0.335  0.546  0.663-   8 2.35  13 2.43  10 2.47   6 2.49   1 2.55   2 2.59
  10  0.352  0.682  0.571-   2 2.42  13 2.46   9 2.47  11 2.47   8 2.64
  11  0.483  0.663  0.473-  13 2.38   2 2.47  10 2.47   4 2.49
  12  0.638  0.489  0.592-  14 1.82   4 2.36   5 2.61
  13  0.483  0.593  0.616-  11 2.38   6 2.40   9 2.43  10 2.46   4 2.56   2 2.57
  14  0.743  0.497  0.653-  15 1.16  12 1.82
  15  0.813  0.512  0.681-  14 1.16
 

IMPORTANT INFORMATION: All symmetrisations will be switched off!
NOSYMM: (Re-)initialisation of all symmetry stuff for point group C_1.

 
 

Automatic generation of k-mesh.
 generate k-points for:    1    1    1
Space group operators:
 irot       det(A)        alpha          n_x          n_y          n_z        tau_x        tau_y        tau_z
    1     1.000000     0.000000     1.000000     0.000000     0.000000     0.000000     0.000000     0.000000
 
 Subroutine IBZKPT returns following result:
 ===========================================
 
 Found      1 irreducible k-points:
 
 Following reciprocal coordinates:
            Coordinates               Weight
  0.000000  0.000000  0.000000      1.000000
 
 Following cartesian coordinates:
            Coordinates               Weight
  0.000000  0.000000  0.000000      1.000000
 


--------------------------------------------------------------------------------------------------------




 Dimension of arrays:
   k-points           NKPTS =      1   k-points in BZ     NKDIM =      1   number of bands    NBANDS=     92
   number of dos      NEDOS =    301   number of ions     NIONS =     15
   non local maximal  LDIM  =      6   non local SUM 2l+1 LMDIM =     18
   total plane-waves  NPLWV = ******
   max r-space proj   IRMAX =      1   max aug-charges    IRDMAX=  15028
   dimension x,y,z NGX =   120 NGY =  120 NGZ =  120
   dimension x,y,z NGXF=   240 NGYF=  240 NGZF=  240
   support grid    NGXF=   240 NGYF=  240 NGZF=  240
   ions per type =              13   1   1
   NGX,Y,Z   is equivalent  to a cutoff of  13.30, 13.30, 13.30 a.u.
   NGXF,Y,Z  is equivalent  to a cutoff of  26.60, 26.60, 26.60 a.u.

 SYSTEM =  CuCO                                    
 POSCAR =  Cu13 C1 O1                              

 Startparameter for this run:
   NWRITE =      2    write-flag & timer
   PREC   = accura    normal or accurate (medium, high low for compatibility)
   ISTART =      0    job   : 0-new  1-cont  2-samecut
   ICHARG =      2    charge: 1-file 2-atom 10-const
   ISPIN  =      2    spin polarized calculation?
   LNONCOLLINEAR =      F non collinear calculations
   LSORBIT =      F    spin-orbit coupling
   INIWAV =      1    electr: 0-lowe 1-rand  2-diag
   LASPH  =      F    aspherical Exc in radial PAW
   METAGGA=      F    non-selfconsistent MetaGGA calc.

 Electronic Relaxation 1
   ENCUT  =  600.0 eV  44.10 Ry    6.64 a.u.  29.96 29.96 29.96*2*pi/ulx,y,z
   ENINI  =  600.0     initial cutoff
   ENAUG  =  644.9 eV  augmentation charge cutoff
   NELM   =    300;   NELMIN=  3; NELMDL= -5     # of ELM steps 
   EDIFF  = 0.1E-06   stopping-criterion for ELM
   LREAL  =      F    real-space projection
   NLSPLINE    = F    spline interpolate recip. space projectors
   LCOMPAT=      F    compatible to vasp.4.4
   GGA_COMPAT  = T    GGA compatible to vasp.4.4-vasp.4.6
   LMAXPAW     = -100 max onsite density
   LMAXMIX     =    2 max onsite mixed and CHGCAR
   VOSKOWN=      0    Vosko Wilk Nusair interpolation
   ROPT   =    0.00000   0.00000   0.00000
 Ionic relaxation
   EDIFFG = -.1E-02   stopping-criterion for IOM
   NSW    =      0    number of steps for IOM
   NBLOCK =      1;   KBLOCK =      1    inner block; outer block 
   IBRION =     -1    ionic relax: 0-MD 1-quasi-New 2-CG
   NFREE  =      0    steps in history (QN), initial steepest desc. (CG)
   ISIF   =      2    stress and relaxation
   IWAVPR =     10    prediction:  0-non 1-charg 2-wave 3-comb
   ISYM   =      0    0-nonsym 1-usesym 2-fastsym
   LCORR  =      T    Harris-Foulkes like correction to forces

   POTIM  = 0.5000    time-step for ionic-motion
   TEIN   =    0.0    initial temperature
   TEBEG  =    0.0;   TEEND  =   0.0 temperature during run
   SMASS  =  -3.00    Nose mass-parameter (am)
   estimated Nose-frequenzy (Omega)   =  0.10E-29 period in steps =****** mass=  -0.514E-26a.u.
   SCALEE = 1.0000    scale energy and forces
   NPACO  =    256;   APACO  = 16.0  distance and # of slots for P.C.
   PSTRESS=    0.0 pullay stress

  Mass of Ions in am
   POMASS =  63.55 12.01 16.00
  Ionic Valenz
   ZVAL   =  11.00  4.00  6.00
  Atomic Wigner-Seitz radii
   RWIGS  =  -1.00 -1.00 -1.00
  virtual crystal weights 
   VCA    =   1.00  1.00  1.00
   NELECT =     153.0000    total number of electrons
   NUPDOWN=       1.0000    fix difference up-down

 DOS related values:
   EMIN   =  10.00;   EMAX   =-10.00  energy-range for DOS
   EFERMI =   0.00
   ISMEAR =     1;   SIGMA  =   0.10  broadening in eV -4-tet -1-fermi 0-gaus

 Electronic relaxation 2 (details)
   IALGO  =     68    algorithm
   LDIAG  =      T    sub-space diagonalisation (order eigenvalues)
   LSUBROT=      F    optimize rotation matrix (better conditioning)
   TURBO    =      0    0=normal 1=particle mesh
   IRESTART =      0    0=no restart 2=restart with 2 vectors
   NREBOOT  =      0    no. of reboots
   NMIN     =      0    reboot dimension
   EREF     =   0.00    reference energy to select bands
   IMIX   =      4    mixing-type and parameters
     AMIX     =   0.40;   BMIX     =  1.00
     AMIX_MAG =   1.60;   BMIX_MAG =  1.00
     AMIN     =   0.10
     WC   =   100.;   INIMIX=   1;  MIXPRE=   1;  MAXMIX= -45

 Intra band minimization:
   WEIMIN = 0.0000     energy-eigenvalue tresh-hold
   EBREAK =  0.27E-09  absolut break condition
   DEPER  =   0.30     relativ break condition  

   TIME   =   0.40     timestep for ELM

  volume/ion in A,a.u.               =     225.00      1518.37
  Fermi-wavevector in a.u.,A,eV,Ry     =   0.583733  1.103095  4.636102  0.340744
  Thomas-Fermi vector in A             =   1.629149
 
 Write flags
   LWAVE        =      F    write WAVECAR
   LDOWNSAMPLE  =      F    k-point downsampling of WAVECAR
   LCHARG       =      F    write CHGCAR
   LVTOT        =      F    write LOCPOT, total local potential
   LVHAR        =      F    write LOCPOT, Hartree potential only
   LELF         =      F    write electronic localiz. function (ELF)
   LORBIT       =      0    0 simple, 1 ext, 2 COOP (PROOUT), +10 PAW based schemes


 Dipole corrections
   LMONO  =      F    monopole corrections only (constant potential shift)
   LDIPOL =      F    correct potential (dipole corrections)
   IDIPOL =      0    1-x, 2-y, 3-z, 4-all directions 
   EPSILON=  1.0000000 bulk dielectric constant

 Exchange correlation treatment:
   GGA     =    PE    GGA type
   LEXCH   =     8    internal setting for exchange type
   VOSKOWN=      0    Vosko Wilk Nusair interpolation
   LHFCALC =     F    Hartree Fock is set to
   LHFONE  =     F    Hartree Fock one center treatment
   AEXX    =    0.0000 exact exchange contribution

 Linear response parameters
   LEPSILON=     F    determine dielectric tensor
   LRPA    =     F    only Hartree local field effects (RPA)
   LNABLA  =     F    use nabla operator in PAW spheres
   LVEL    =     F    velocity operator in full k-point grid
   LINTERFAST=   F  fast interpolation
   KINTER  =     0    interpolate to denser k-point grid
   CSHIFT  =0.1000    complex shift for real part using Kramers Kronig
   OMEGAMAX=  -1.0    maximum frequency
   DEG_THRESHOLD= 0.2000000E-02 threshold for treating states as degnerate
   RTIME   =   -0.100 relaxation time in fs
  (WPLASMAI=    0.000 imaginary part of plasma frequency in eV, 0.658/RTIME)
   DFIELD  = 0.0000000 0.0000000 0.0000000 field for delta impulse in time
 
 Orbital magnetization related:
   ORBITALMAG=     F  switch on orbital magnetization
   LCHIMAG   =     F  perturbation theory with respect to B field
   DQ        =  0.001000  dq finite difference perturbation B field
   LLRAUG    =     F  two centre corrections for induced B field



--------------------------------------------------------------------------------------------------------


 Static calculation
 charge density and potential will be updated during run
 spin polarized calculation
 RMM-DIIS sequential band-by-band and
  variant of blocked Davidson during initial phase
 perform sub-space diagonalisation
    before iterative eigenvector-optimisation
 modified Broyden-mixing scheme, WC =      100.0
 initial mixing is a Kerker type mixing with AMIX =  0.4000 and BMIX =      1.0000
 Hartree-type preconditioning will be used
 using additional bands           15
 reciprocal scheme for non local part
 use partial core corrections
 calculate Harris-corrections to forces 
   (improved forces if not selfconsistent)
 use gradient corrections 
 use of overlap-Matrix (Vanderbilt PP)
 Methfessel and Paxton  Order N= 1 SIGMA  =   0.10


--------------------------------------------------------------------------------------------------------


  energy-cutoff  :      600.00
  volume of cell :     3375.00
      direct lattice vectors                 reciprocal lattice vectors
    15.000000000  0.000000000  0.000000000     0.066666667  0.000000000  0.000000000
     0.000000000 15.000000000  0.000000000     0.000000000  0.066666667  0.000000000
     0.000000000  0.000000000 15.000000000     0.000000000  0.000000000  0.066666667

  length of vectors
    15.000000000 15.000000000 15.000000000     0.066666667  0.066666667  0.066666667


 
 k-points in units of 2pi/SCALE and weight: read from INCAR                         
   0.00000000  0.00000000  0.00000000       1.000
 
 k-points in reciprocal lattice and weights: read from INCAR                         
   0.00000000  0.00000000  0.00000000       1.000
 
 position of ions in fractional coordinates (direct lattice) 
   0.29138600  0.41851600  0.55988133
   0.37365733  0.54136800  0.49434467
   0.39241000  0.29322067  0.55695333
   0.52985467  0.50382867  0.47841467
   0.54778533  0.35223067  0.53241133
   0.45010867  0.43672933  0.61385067
   0.41727867  0.40022733  0.44175333
   0.22422467  0.56195000  0.55313667
   0.33535467  0.54638733  0.66280200
   0.35194333  0.68188667  0.57123467
   0.48282600  0.66280733  0.47314267
   0.63783800  0.48877000  0.59226400
   0.48277867  0.59341733  0.61558400
   0.74278000  0.49713667  0.65262800
   0.81272667  0.51222733  0.68132667
 
 position of ions in cartesian coordinates  (Angst):
   4.37079000  6.27774000  8.39822000
   5.60486000  8.12052000  7.41517000
   5.88615000  4.39831000  8.35430000
   7.94782000  7.55743000  7.17622000
   8.21678000  5.28346000  7.98617000
   6.75163000  6.55094000  9.20776000
   6.25918000  6.00341000  6.62630000
   3.36337000  8.42925000  8.29705000
   5.03032000  8.19581000  9.94203000
   5.27915000 10.22830000  8.56852000
   7.24239000  9.94211000  7.09714000
   9.56757000  7.33155000  8.88396000
   7.24168000  8.90126000  9.23376000
  11.14170000  7.45705000  9.78942000
  12.19090000  7.68341000 10.21990000
 


--------------------------------------------------------------------------------------------------------


 k-point  1 :   0.0000 0.0000 0.0000  plane waves:  112451

 maximum and minimum number of plane-waves per node :     18753    18726

 maximum number of plane-waves:    112451
 maximum index in each direction: 
   IXMAX=   29   IYMAX=   29   IZMAX=   29
   IXMIN=  -29   IYMIN=  -29   IZMIN=  -29


 parallel 3D FFT for wavefunctions:
    minimum data exchange during FFTs selected (reduces bandwidth)
 parallel 3D FFT for charge:
    minimum data exchange during FFTs selected (reduces bandwidth)


 total amount of memory used by VASP MPI-rank0   158680. kBytes
=======================================================================

   base      :      30000. kBytes
   nonl-proj :      12601. kBytes
   fftplans  :      27994. kBytes
   grid      :      74150. kBytes
   one-center:         93. kBytes
   wavefun   :      13842. kBytes
 
     INWAV:  cpu time    0.0000: real time    0.0001
 Broyden mixing: mesh for mixing (old mesh)
   NGX = 59   NGY = 59   NGZ = 59
  (NGX  =240   NGY  =240   NGZ  =240)
  gives a total of 205379 points

 initial charge density was supplied:
 charge density of overlapping atoms calculated
 number of electron     153.0000000 magnetization       1.0000000
 keeping initial charge density in first step


--------------------------------------------------------------------------------------------------------


 Maximum index for augmentation-charges          707 (set IRDMAX)


--------------------------------------------------------------------------------------------------------


 First call to EWALD:  gamma=   0.118
 Maximum number of real-space cells 3x 3x 3
 Maximum number of reciprocal cells 3x 3x 3

    FEWALD:  cpu time    0.0017: real time    0.0019


--------------------------------------- Iteration      1(   1)  ---------------------------------------


    POTLOK:  cpu time    1.1441: real time    1.1485
    SETDIJ:  cpu time    0.0174: real time    0.0174
     EDDAV:  cpu time    7.4253: real time    7.4423
       DOS:  cpu time    0.0009: real time    0.0009
    --------------------------------------------
      LOOP:  cpu time    8.5877: real time    8.6091

 eigenvalue-minimisations  :   376
 total energy-change (2. order) : 0.1119291E+04  (-0.4462628E+04)
 number of electron     153.0000000 magnetization       1.0000000
 augmentation part      153.0000000 magnetization       1.0000000

 Free energy of the ion-electron system (eV)
  ---------------------------------------------------
  alpha Z        PSCENC =        41.16232785
  Ewald energy   TEWEN  =     16323.44889877
  -Hartree energ DENC   =    -33344.63121402
  -exchange      EXHF   =         0.00000000
  -V(xc)+E(xc)   XCENC  =       623.50331010
  PAW double counting   =     16421.75059358   -17800.06104309
  entropy T*S    EENTRO =        -0.01113200
  eigenvalues    EBANDS =       191.91008864
  atomic energy  EATOM  =     18662.21924712
  Solvation  Ediel_sol  =         0.00000000
  ---------------------------------------------------
  free energy    TOTEN  =      1119.29107694 eV

  energy without entropy =     1119.30220894  energy(sigma->0) =     1119.29478761


--------------------------------------------------------------------------------------------------------




--------------------------------------- Iteration      1(   2)  ---------------------------------------


     EDDAV:  cpu time    7.3670: real time    7.3830
       DOS:  cpu time    0.0005: real time    0.0005
    --------------------------------------------
      LOOP:  cpu time    7.3674: real time    7.3835

 eigenvalue-minimisations  :   368
 total energy-change (2. order) :-0.1031918E+04  (-0.9792529E+03)
 number of electron     153.0000000 magnetization       1.0000000
 augmentation part      153.0000000 magnetization       1.0000000

 Free energy of the ion-electron system (eV)
  ---------------------------------------------------
  alpha Z        PSCENC =        41.16232785
  Ewald energy   TEWEN  =     16323.44889877
  -Hartree energ DENC   =    -33344.63121402
  -exchange      EXHF   =         0.00000000
  -V(xc)+E(xc)   XCENC  =       623.50331010
  PAW double counting   =     16421.75059358   -17800.06104309
  entropy T*S    EENTRO =         0.00966147
  eigenvalues    EBANDS =      -840.02912743
  atomic energy  EATOM  =     18662.21924712
  Solvation  Ediel_sol  =         0.00000000
  ---------------------------------------------------
  free energy    TOTEN  =        87.37265435 eV

  energy without entropy =       87.36299288  energy(sigma->0) =       87.36943386


--------------------------------------------------------------------------------------------------------




--------------------------------------- Iteration      1(   3)  ---------------------------------------


     EDDAV:  cpu time   11.7203: real time   11.7461
       DOS:  cpu time    0.0004: real time    0.0004
    --------------------------------------------
      LOOP:  cpu time   11.7208: real time   11.7465

 eigenvalue-minimisations  :   664
 total energy-change (2. order) :-0.1221382E+03  (-0.1145485E+03)
 number of electron     153.0000000 magnetization       1.0000000
 augmentation part      153.0000000 magnetization       1.0000000

 Free energy of the ion-electron system (eV)
  ---------------------------------------------------
  alpha Z        PSCENC =        41.16232785
  Ewald energy   TEWEN  =     16323.44889877
  -Hartree energ DENC   =    -33344.63121402
  -exchange      EXHF   =         0.00000000
  -V(xc)+E(xc)   XCENC  =       623.50331010
  PAW double counting   =     16421.75059358   -17800.06104309
  entropy T*S    EENTRO =         0.00889528
  eigenvalues    EBANDS =      -962.16657070
  atomic energy  EATOM  =     18662.21924712
  Solvation  Ediel_sol  =         0.00000000
  ---------------------------------------------------
  free energy    TOTEN  =       -34.76555511 eV

  energy without entropy =      -34.77445039  energy(sigma->0) =      -34.76852020


--------------------------------------------------------------------------------------------------------




--------------------------------------- Iteration      1(   4)  ---------------------------------------


     EDDAV:  cpu time   10.3223: real time   10.3430
       DOS:  cpu time    0.0005: real time    0.0005
    --------------------------------------------
      LOOP:  cpu time   10.3228: real time   10.3435

 eigenvalue-minimisations  :   568
 total energy-change (2. order) :-0.2112680E+02  (-0.2081417E+02)
 number of electron     153.0000000 magnetization       1.0000000
 augmentation part      153.0000000 magnetization       1.0000000

 Free energy of the ion-electron system (eV)
  ---------------------------------------------------
  alpha Z        PSCENC =        41.16232785
  Ewald energy   TEWEN  =     16323.44889877
  -Hartree energ DENC   =    -33344.63121402
  -exchange      EXHF   =         0.00000000
  -V(xc)+E(xc)   XCENC  =       623.50331010
  PAW double counting   =     16421.75059358   -17800.06104309
  entropy T*S    EENTRO =         0.00898535
  eigenvalues    EBANDS =      -983.29345939
  atomic energy  EATOM  =     18662.21924712
  Solvation  Ediel_sol  =         0.00000000
  ---------------------------------------------------
  free energy    TOTEN  =       -55.89235373 eV

  energy without entropy =      -55.90133908  energy(sigma->0) =      -55.89534885


--------------------------------------------------------------------------------------------------------




--------------------------------------- Iteration      1(   5)  ---------------------------------------


     EDDAV:  cpu time   12.2473: real time   12.2556
       DOS:  cpu time    0.0005: real time    0.0005
    CHARGE:  cpu time    0.6624: real time    0.6627
    MIXING:  cpu time    0.0225: real time    0.0225
    --------------------------------------------
      LOOP:  cpu time   12.9328: real time   12.9413

 eigenvalue-minimisations  :   696
 total energy-change (2. order) :-0.1380448E+01  (-0.1267471E+01)
 number of electron     153.0000016 magnetization       1.0000000
 augmentation part       87.4219082 magnetization       0.3752463

 Broyden mixing:
  rms(total) = 0.23912E+01    rms(broyden)= 0.23911E+01
  rms(prec ) = 0.27434E+01
  weight for this iteration     100.00

 Free energy of the ion-electron system (eV)
  ---------------------------------------------------
  alpha Z        PSCENC =        41.16232785
  Ewald energy   TEWEN  =     16323.44889877
  -Hartree energ DENC   =    -33344.63121402
  -exchange      EXHF   =         0.00000000
  -V(xc)+E(xc)   XCENC  =       623.50331010
  PAW double counting   =     16421.75059358   -17800.06104309
  entropy T*S    EENTRO =         0.00976844
  eigenvalues    EBANDS =      -984.67469010
  atomic energy  EATOM  =     18662.21924712
  Solvation  Ediel_sol  =         0.00000000
  ---------------------------------------------------
  free energy    TOTEN  =       -57.27280135 eV

  energy without entropy =      -57.28256979  energy(sigma->0) =      -57.27605750


--------------------------------------------------------------------------------------------------------




--------------------------------------- Iteration      1(   6)  ---------------------------------------


    POTLOK:  cpu time    1.1318: real time    1.1330
    SETDIJ:  cpu time    0.0172: real time    0.0172
    EDDIAG:  cpu time    1.0862: real time    1.0871
  RMM-DIIS:  cpu time    7.0390: real time    7.0441
    ORTHCH:  cpu time    0.0542: real time    0.0545
       DOS:  cpu time    0.0004: real time    0.0004
    CHARGE:  cpu time    0.6389: real time    0.6389
    MIXING:  cpu time    0.0231: real time    0.0231
    --------------------------------------------
      LOOP:  cpu time    9.9908: real time    9.9983

 eigenvalue-minimisations  :   422
 total energy-change (2. order) : 0.5668681E+00  (-0.1243184E+02)
 number of electron     153.0000020 magnetization       1.0000000
 augmentation part       95.7127199 magnetization       0.0925396

 Broyden mixing:
  rms(total) = 0.15876E+01    rms(broyden)= 0.15874E+01
  rms(prec ) = 0.18303E+01
  weight for this iteration     100.00

 eigenvalues of (default mixing * dielectric matrix)
  average eigenvalue GAMMA=   0.6112
  0.6112

 Free energy of the ion-electron system (eV)
  ---------------------------------------------------
  alpha Z        PSCENC =        41.16232785
  Ewald energy   TEWEN  =     16323.44889877
  -Hartree energ DENC   =    -33091.77339900
  -exchange      EXHF   =         0.00000000
  -V(xc)+E(xc)   XCENC  =       611.22414903
  PAW double counting   =     16704.98654499   -18028.70331432
  entropy T*S    EENTRO =         0.00593675
  eigenvalues    EBANDS =     -1279.27632443
  atomic energy  EATOM  =     18662.21924712
  Solvation  Ediel_sol  =         0.00000000
  ---------------------------------------------------
  free energy    TOTEN  =       -56.70593325 eV

  energy without entropy =      -56.71187000  energy(sigma->0) =      -56.70791216


--------------------------------------------------------------------------------------------------------




--------------------------------------- Iteration      1(   7)  ---------------------------------------


    POTLOK:  cpu time    1.1315: real time    1.1348
    SETDIJ:  cpu time    0.0166: real time    0.0166
    EDDIAG:  cpu time    1.0872: real time    1.0876
  RMM-DIIS:  cpu time    6.3493: real time    6.3545
    ORTHCH:  cpu time    0.0549: real time    0.0549
       DOS:  cpu time    0.0004: real time    0.0004
    CHARGE:  cpu time    0.6490: real time    0.6493
    MIXING:  cpu time    0.0236: real time    0.0236
    --------------------------------------------
      LOOP:  cpu time    9.3124: real time    9.3217

 eigenvalue-minimisations  :   380
 total energy-change (2. order) : 0.7532622E+01  (-0.2586143E+01)
 number of electron     153.0000019 magnetization       1.0000000
 augmentation part       92.8809988 magnetization       0.1100883

 Broyden mixing:
  rms(total) = 0.39802E+00    rms(broyden)= 0.39800E+00
  rms(prec ) = 0.49161E+00
  weight for this iteration     100.00

 eigenvalues of (default mixing * dielectric matrix)
  average eigenvalue GAMMA=   0.9340
  1.1981  0.6699

 Free energy of the ion-electron system (eV)
  ---------------------------------------------------
  alpha Z        PSCENC =        41.16232785
  Ewald energy   TEWEN  =     16323.44889877
  -Hartree energ DENC   =    -33227.30318198
  -exchange      EXHF   =         0.00000000
  -V(xc)+E(xc)   XCENC  =       615.66938400
  PAW double counting   =     17048.79829432   -18422.39861727
  entropy T*S    EENTRO =         0.00649865
  eigenvalues    EBANDS =     -1090.77616312
  atomic energy  EATOM  =     18662.21924712
  Solvation  Ediel_sol  =         0.00000000
  ---------------------------------------------------
  free energy    TOTEN  =       -49.17331165 eV

  energy without entropy =      -49.17981030  energy(sigma->0) =      -49.17547787


--------------------------------------------------------------------------------------------------------




--------------------------------------- Iteration      1(   8)  ---------------------------------------


    POTLOK:  cpu time    1.1327: real time    1.1330
    SETDIJ:  cpu time    0.0169: real time    0.0169
    EDDIAG:  cpu time    1.0869: real time    1.0874
  RMM-DIIS:  cpu time    7.9260: real time    7.9341
    ORTHCH:  cpu time    0.0546: real time    0.0546
       DOS:  cpu time    0.0004: real time    0.0004
    CHARGE:  cpu time    0.6587: real time    0.6591
    MIXING:  cpu time    0.0241: real time    0.0241
    --------------------------------------------
      LOOP:  cpu time   10.9004: real time   10.9097

 eigenvalue-minimisations  :   422
 total energy-change (2. order) : 0.2393750E+00  (-0.4501292E+00)
 number of electron     153.0000019 magnetization       1.0000000
 augmentation part       92.0552708 magnetization       0.1084334

 Broyden mixing:
  rms(total) = 0.33220E+00    rms(broyden)= 0.33217E+00
  rms(prec ) = 0.37607E+00
  weight for this iteration     100.00

 eigenvalues of (default mixing * dielectric matrix)
  average eigenvalue GAMMA=   0.8978
  1.3228  0.6853  0.6853

 Free energy of the ion-electron system (eV)
  ---------------------------------------------------
  alpha Z        PSCENC =        41.16232785
  Ewald energy   TEWEN  =     16323.44889877
  -Hartree energ DENC   =    -33276.68687361
  -exchange      EXHF   =         0.00000000
  -V(xc)+E(xc)   XCENC  =       616.11282129
  PAW double counting   =     17411.49343001   -18805.09314846
  entropy T*S    EENTRO =         0.00753798
  eigenvalues    EBANDS =     -1021.59817760
  atomic energy  EATOM  =     18662.21924712
  Solvation  Ediel_sol  =         0.00000000
  ---------------------------------------------------
  free energy    TOTEN  =       -48.93393664 eV

  energy without entropy =      -48.94147462  energy(sigma->0) =      -48.93644930


--------------------------------------------------------------------------------------------------------




--------------------------------------- Iteration      1(   9)  ---------------------------------------


    POTLOK:  cpu time    1.1306: real time    1.1318
    SETDIJ:  cpu time    0.0177: real time    0.0176
    EDDIAG:  cpu time    1.0856: real time    1.0867
  RMM-DIIS:  cpu time    7.3233: real time    7.3305
    ORTHCH:  cpu time    0.0549: real time    0.0549
       DOS:  cpu time    0.0004: real time    0.0004
    CHARGE:  cpu time    0.6561: real time    0.6564
    MIXING:  cpu time    0.0248: real time    0.0248
    --------------------------------------------
      LOOP:  cpu time   10.2933: real time   10.3032

 eigenvalue-minimisations  :   412
 total energy-change (2. order) : 0.6689428E-01  (-0.1094133E+00)
 number of electron     153.0000019 magnetization       1.0000000
 augmentation part       92.2387560 magnetization       0.0975671

 Broyden mixing:
  rms(total) = 0.19106E+00    rms(broyden)= 0.19105E+00
  rms(prec ) = 0.22686E+00
  weight for this iteration     100.00

 eigenvalues of (default mixing * dielectric matrix)
  average eigenvalue GAMMA=   1.0312
  2.0785  0.7812  0.7812  0.4841

 Free energy of the ion-electron system (eV)
  ---------------------------------------------------
  alpha Z        PSCENC =        41.16232785
  Ewald energy   TEWEN  =     16323.44889877
  -Hartree energ DENC   =    -33274.70908433
  -exchange      EXHF   =         0.00000000
  -V(xc)+E(xc)   XCENC  =       615.69876745
  PAW double counting   =     17505.32779363   -18900.48547600
  entropy T*S    EENTRO =         0.00739120
  eigenvalues    EBANDS =     -1021.53690804
  atomic energy  EATOM  =     18662.21924712
  Solvation  Ediel_sol  =         0.00000000
  ---------------------------------------------------
  free energy    TOTEN  =       -48.86704235 eV

  energy without entropy =      -48.87443356  energy(sigma->0) =      -48.86950609


--------------------------------------------------------------------------------------------------------




--------------------------------------- Iteration      1(  10)  ---------------------------------------


    POTLOK:  cpu time    1.1322: real time    1.1355
    SETDIJ:  cpu time    0.0170: real time    0.0170
    EDDIAG:  cpu time    1.0863: real time    1.0871
  RMM-DIIS:  cpu time    7.8352: real time    7.8408
    ORTHCH:  cpu time    0.0547: real time    0.0547
       DOS:  cpu time    0.0004: real time    0.0004
    CHARGE:  cpu time    0.6543: real time    0.6546
    MIXING:  cpu time    0.0254: real time    0.0254
    --------------------------------------------
      LOOP:  cpu time   10.8055: real time   10.8154

 eigenvalue-minimisations  :   423
 total energy-change (2. order) : 0.6499241E-01  (-0.2251984E-01)
 number of electron     153.0000019 magnetization       1.0000000
 augmentation part       92.4542399 magnetization       0.0835890

 Broyden mixing:
  rms(total) = 0.69154E-01    rms(broyden)= 0.69151E-01
  rms(prec ) = 0.89705E-01
  weight for this iteration     100.00

 eigenvalues of (default mixing * dielectric matrix)
  average eigenvalue GAMMA=   1.0473
  2.1354  1.0824  0.7718  0.7718  0.4752

 Free energy of the ion-electron system (eV)
  ---------------------------------------------------
  alpha Z        PSCENC =        41.16232785
  Ewald energy   TEWEN  =     16323.44889877
  -Hartree energ DENC   =    -33272.00056779
  -exchange      EXHF   =         0.00000000
  -V(xc)+E(xc)   XCENC  =       615.19848758
  PAW double counting   =     17619.70379097   -19016.46516142
  entropy T*S    EENTRO =         0.00732933
  eigenvalues    EBANDS =     -1022.07640236
  atomic energy  EATOM  =     18662.21924712
  Solvation  Ediel_sol  =         0.00000000
  ---------------------------------------------------
  free energy    TOTEN  =       -48.80204994 eV

  energy without entropy =      -48.80937928  energy(sigma->0) =      -48.80449306


--------------------------------------------------------------------------------------------------------




--------------------------------------- Iteration      1(  11)  ---------------------------------------


    POTLOK:  cpu time    1.1311: real time    1.1316
    SETDIJ:  cpu time    0.0174: real time    0.0174
    EDDIAG:  cpu time    1.0865: real time    1.0874
  RMM-DIIS:  cpu time    7.7557: real time    7.7612
    ORTHCH:  cpu time    0.0513: real time    0.0513
       DOS:  cpu time    0.0005: real time    0.0005
    CHARGE:  cpu time    0.6552: real time    0.6556
    MIXING:  cpu time    0.0261: real time    0.0261
    --------------------------------------------
      LOOP:  cpu time   10.7238: real time   10.7311

 eigenvalue-minimisations  :   423
 total energy-change (2. order) : 0.1281252E-01  (-0.8134250E-02)
 number of electron     153.0000019 magnetization       1.0000000
 augmentation part       92.3803983 magnetization       0.0849563

 Broyden mixing:
  rms(total) = 0.41204E-01    rms(broyden)= 0.41200E-01
  rms(prec ) = 0.53615E-01
  weight for this iteration     100.00

 eigenvalues of (default mixing * dielectric matrix)
  average eigenvalue GAMMA=   1.0279
  2.1644  1.4133  0.7804  0.7804  0.4856  0.5433

 Free energy of the ion-electron system (eV)
  ---------------------------------------------------
  alpha Z        PSCENC =        41.16232785
  Ewald energy   TEWEN  =     16323.44889877
  -Hartree energ DENC   =    -33280.00505995
  -exchange      EXHF   =         0.00000000
  -V(xc)+E(xc)   XCENC  =       615.31872146
  PAW double counting   =     17666.73592668   -19065.61452577
  entropy T*S    EENTRO =         0.00763705
  eigenvalues    EBANDS =     -1012.06241062
  atomic energy  EATOM  =     18662.21924712
  Solvation  Ediel_sol  =         0.00000000
  ---------------------------------------------------
  free energy    TOTEN  =       -48.78923742 eV

  energy without entropy =      -48.79687447  energy(sigma->0) =      -48.79178310


--------------------------------------------------------------------------------------------------------




--------------------------------------- Iteration      1(  12)  ---------------------------------------


    POTLOK:  cpu time    1.1317: real time    1.1322
    SETDIJ:  cpu time    0.0172: real time    0.0172
    EDDIAG:  cpu time    1.0824: real time    1.0834
  RMM-DIIS:  cpu time    6.9332: real time    6.9375
    ORTHCH:  cpu time    0.0525: real time    0.0525
       DOS:  cpu time    0.0004: real time    0.0004
    CHARGE:  cpu time    0.6596: real time    0.6600
    MIXING:  cpu time    0.0269: real time    0.0269
    --------------------------------------------
      LOOP:  cpu time    9.9039: real time    9.9100

 eigenvalue-minimisations  :   427
 total energy-change (2. order) : 0.2508310E-02  (-0.2216768E-02)
 number of electron     153.0000019 magnetization       1.0000000
 augmentation part       92.3728845 magnetization       0.0836847

 Broyden mixing:
  rms(total) = 0.21497E-01    rms(broyden)= 0.21496E-01
  rms(prec ) = 0.33072E-01
  weight for this iteration     100.00

 eigenvalues of (default mixing * dielectric matrix)
  average eigenvalue GAMMA=   1.0810
  2.3616  1.7140  1.0814  0.7098  0.7098  0.5363  0.4540

 Free energy of the ion-electron system (eV)
  ---------------------------------------------------
  alpha Z        PSCENC =        41.16232785
  Ewald energy   TEWEN  =     16323.44889877
  -Hartree energ DENC   =    -33283.31913652
  -exchange      EXHF   =         0.00000000
  -V(xc)+E(xc)   XCENC  =       615.36812122
  PAW double counting   =     17675.93724903   -19075.24050858
  entropy T*S    EENTRO =         0.00753338
  eigenvalues    EBANDS =     -1008.37046138
  atomic energy  EATOM  =     18662.21924712
  Solvation  Ediel_sol  =         0.00000000
  ---------------------------------------------------
  free energy    TOTEN  =       -48.78672911 eV

  energy without entropy =      -48.79426249  energy(sigma->0) =      -48.78924024


--------------------------------------------------------------------------------------------------------




--------------------------------------- Iteration      1(  13)  ---------------------------------------


    POTLOK:  cpu time    1.1302: real time    1.1337
    SETDIJ:  cpu time    0.0174: real time    0.0174
    EDDIAG:  cpu time    1.0825: real time    1.0834
  RMM-DIIS:  cpu time    7.2312: real time    7.2361
    ORTHCH:  cpu time    0.0520: real time    0.0520
       DOS:  cpu time    0.0004: real time    0.0004
    CHARGE:  cpu time    0.6589: real time    0.6591
    MIXING:  cpu time    0.0279: real time    0.0279
    --------------------------------------------
      LOOP:  cpu time   10.2006: real time   10.2100

 eigenvalue-minimisations  :   431
 total energy-change (2. order) : 0.1225040E-02  (-0.6333374E-03)
 number of electron     153.0000019 magnetization       1.0000000
 augmentation part       92.3873340 magnetization       0.0837487

 Broyden mixing:
  rms(total) = 0.94319E-02    rms(broyden)= 0.94315E-02
  rms(prec ) = 0.19628E-01
  weight for this iteration     100.00

 eigenvalues of (default mixing * dielectric matrix)
  average eigenvalue GAMMA=   1.1116
  2.4094  1.9415  1.3145  0.7541  0.7541  0.7502  0.5239  0.4454

 Free energy of the ion-electron system (eV)
  ---------------------------------------------------
  alpha Z        PSCENC =        41.16232785
  Ewald energy   TEWEN  =     16323.44889877
  -Hartree energ DENC   =    -33287.48143384
  -exchange      EXHF   =         0.00000000
  -V(xc)+E(xc)   XCENC  =       615.38952742
  PAW double counting   =     17679.32434316   -19078.63565612
  entropy T*S    EENTRO =         0.00753572
  eigenvalues    EBANDS =     -1004.22029415
  atomic energy  EATOM  =     18662.21924712
  Solvation  Ediel_sol  =         0.00000000
  ---------------------------------------------------
  free energy    TOTEN  =       -48.78550407 eV

  energy without entropy =      -48.79303979  energy(sigma->0) =      -48.78801598


--------------------------------------------------------------------------------------------------------




--------------------------------------- Iteration      1(  14)  ---------------------------------------


    POTLOK:  cpu time    1.1313: real time    1.1336
    SETDIJ:  cpu time    0.0171: real time    0.0171
    EDDIAG:  cpu time    1.0829: real time    1.0839
  RMM-DIIS:  cpu time    6.8977: real time    6.9025
    ORTHCH:  cpu time    0.0508: real time    0.0508
       DOS:  cpu time    0.0004: real time    0.0004
    CHARGE:  cpu time    0.6587: real time    0.6588
    MIXING:  cpu time    0.0289: real time    0.0290
    --------------------------------------------
      LOOP:  cpu time    9.8677: real time    9.8760

 eigenvalue-minimisations  :   408
 total energy-change (2. order) :-0.1075497E-02  (-0.3392354E-03)
 number of electron     153.0000019 magnetization       1.0000000
 augmentation part       92.3984865 magnetization       0.0840474

 Broyden mixing:
  rms(total) = 0.10864E-01    rms(broyden)= 0.10864E-01
  rms(prec ) = 0.16941E-01
  weight for this iteration     100.00

 eigenvalues of (default mixing * dielectric matrix)
  average eigenvalue GAMMA=   1.1382
  2.3792  2.3792  1.3804  1.0222  0.7308  0.7308  0.6709  0.5014  0.4490

 Free energy of the ion-electron system (eV)
  ---------------------------------------------------
  alpha Z        PSCENC =        41.16232785
  Ewald energy   TEWEN  =     16323.44889877
  -Hartree energ DENC   =    -33292.15565888
  -exchange      EXHF   =         0.00000000
  -V(xc)+E(xc)   XCENC  =       615.41820386
  PAW double counting   =     17673.21743686   -19072.23779558
  entropy T*S    EENTRO =         0.00753681
  eigenvalues    EBANDS =      -999.86677638
  atomic energy  EATOM  =     18662.21924712
  Solvation  Ediel_sol  =         0.00000000
  ---------------------------------------------------
  free energy    TOTEN  =       -48.78657957 eV

  energy without entropy =      -48.79411638  energy(sigma->0) =      -48.78909184


--------------------------------------------------------------------------------------------------------




--------------------------------------- Iteration      1(  15)  ---------------------------------------


    POTLOK:  cpu time    1.1305: real time    1.1323
    SETDIJ:  cpu time    0.0174: real time    0.0174
    EDDIAG:  cpu time    1.0828: real time    1.0836
  RMM-DIIS:  cpu time    6.9717: real time    6.9772
    ORTHCH:  cpu time    0.0502: real time    0.0502
       DOS:  cpu time    0.0004: real time    0.0004
    CHARGE:  cpu time    0.6574: real time    0.6575
    MIXING:  cpu time    0.0292: real time    0.0296
    --------------------------------------------
      LOOP:  cpu time    9.9397: real time    9.9483

 eigenvalue-minimisations  :   414
 total energy-change (2. order) :-0.1227023E-02  (-0.1502146E-03)
 number of electron     153.0000019 magnetization       1.0000000
 augmentation part       92.3960143 magnetization       0.0843549

 Broyden mixing:
  rms(total) = 0.72019E-02    rms(broyden)= 0.72018E-02
  rms(prec ) = 0.11521E-01
  weight for this iteration     100.00

 eigenvalues of (default mixing * dielectric matrix)
  average eigenvalue GAMMA=   1.1878
  2.6779  2.6779  1.3797  1.3797  0.7429  0.7429  0.7753  0.5630  0.4500  0.4889

 Free energy of the ion-electron system (eV)
  ---------------------------------------------------
  alpha Z        PSCENC =        41.16232785
  Ewald energy   TEWEN  =     16323.44889877
  -Hartree energ DENC   =    -33295.59277926
  -exchange      EXHF   =         0.00000000
  -V(xc)+E(xc)   XCENC  =       615.45061400
  PAW double counting   =     17667.47265711   -19066.34454357
  entropy T*S    EENTRO =         0.00752597
  eigenvalues    EBANDS =      -996.61175458
  atomic energy  EATOM  =     18662.21924712
  Solvation  Ediel_sol  =         0.00000000
  ---------------------------------------------------
  free energy    TOTEN  =       -48.78780659 eV

  energy without entropy =      -48.79533256  energy(sigma->0) =      -48.79031525


--------------------------------------------------------------------------------------------------------




--------------------------------------- Iteration      1(  16)  ---------------------------------------


    POTLOK:  cpu time    1.1310: real time    1.1342
    SETDIJ:  cpu time    0.0175: real time    0.0175
    EDDIAG:  cpu time    1.0831: real time    1.0837
  RMM-DIIS:  cpu time    6.7631: real time    6.7684
    ORTHCH:  cpu time    0.0506: real time    0.0507
       DOS:  cpu time    0.0004: real time    0.0004
    CHARGE:  cpu time    0.6554: real time    0.6554
    MIXING:  cpu time    0.0302: real time    0.0302
    --------------------------------------------
      LOOP:  cpu time    9.7313: real time    9.7405

 eigenvalue-minimisations  :   397
 total energy-change (2. order) :-0.1583393E-02  (-0.1234046E-03)
 number of electron     153.0000019 magnetization       1.0000000
 augmentation part       92.3863459 magnetization       0.0844375

 Broyden mixing:
  rms(total) = 0.54508E-02    rms(broyden)= 0.54501E-02
  rms(prec ) = 0.78725E-02
  weight for this iteration     100.00

 eigenvalues of (default mixing * dielectric matrix)
  average eigenvalue GAMMA=   1.2314
  3.2269  2.6457  1.5156  1.5156  0.9656  0.7501  0.7501  0.7145  0.4467  0.5135
  0.5012

 Free energy of the ion-electron system (eV)
  ---------------------------------------------------
  alpha Z        PSCENC =        41.16232785
  Ewald energy   TEWEN  =     16323.44889877
  -Hartree energ DENC   =    -33298.63034970
  -exchange      EXHF   =         0.00000000
  -V(xc)+E(xc)   XCENC  =       615.48343913
  PAW double counting   =     17663.40326945   -19062.25077598
  entropy T*S    EENTRO =         0.00756904
  eigenvalues    EBANDS =      -993.63301566
  atomic energy  EATOM  =     18662.21924712
  Solvation  Ediel_sol  =         0.00000000
  ---------------------------------------------------
  free energy    TOTEN  =       -48.78938998 eV

  energy without entropy =      -48.79695902  energy(sigma->0) =      -48.79191299


--------------------------------------------------------------------------------------------------------




--------------------------------------- Iteration      1(  17)  ---------------------------------------


    POTLOK:  cpu time    1.1326: real time    1.1335
    SETDIJ:  cpu time    0.0171: real time    0.0171
    EDDIAG:  cpu time    1.0833: real time    1.0838
  RMM-DIIS:  cpu time    6.8626: real time    6.8671
    ORTHCH:  cpu time    0.0505: real time    0.0507
       DOS:  cpu time    0.0004: real time    0.0004
    CHARGE:  cpu time    0.6558: real time    0.6559
    MIXING:  cpu time    0.0314: real time    0.0314
    --------------------------------------------
      LOOP:  cpu time    9.8337: real time    9.8398

 eigenvalue-minimisations  :   396
 total energy-change (2. order) :-0.1653757E-02  (-0.4965606E-04)
 number of electron     153.0000019 magnetization       1.0000000
 augmentation part       92.3876552 magnetization       0.0843064

 Broyden mixing:
  rms(total) = 0.25146E-02    rms(broyden)= 0.25145E-02
  rms(prec ) = 0.41459E-02
  weight for this iteration     100.00

 eigenvalues of (default mixing * dielectric matrix)
  average eigenvalue GAMMA=   1.3229
  4.3068  2.5684  1.9904  1.4297  1.2089  0.7608  0.7608  0.7476  0.6452  0.4474
  0.5248  0.4839

 Free energy of the ion-electron system (eV)
  ---------------------------------------------------
  alpha Z        PSCENC =        41.16232785
  Ewald energy   TEWEN  =     16323.44889877
  -Hartree energ DENC   =    -33300.44244598
  -exchange      EXHF   =         0.00000000
  -V(xc)+E(xc)   XCENC  =       615.49328136
  PAW double counting   =     17661.43048073   -19060.25266250
  entropy T*S    EENTRO =         0.00757688
  eigenvalues    EBANDS =      -991.85774797
  atomic energy  EATOM  =     18662.21924712
  Solvation  Ediel_sol  =         0.00000000
  ---------------------------------------------------
  free energy    TOTEN  =       -48.79104374 eV

  energy without entropy =      -48.79862062  energy(sigma->0) =      -48.79356937


--------------------------------------------------------------------------------------------------------




--------------------------------------- Iteration      1(  18)  ---------------------------------------


    POTLOK:  cpu time    1.1316: real time    1.1322
    SETDIJ:  cpu time    0.0173: real time    0.0173
    EDDIAG:  cpu time    1.0836: real time    1.0841
  RMM-DIIS:  cpu time    6.5825: real time    6.5876
    ORTHCH:  cpu time    0.0507: real time    0.0507
       DOS:  cpu time    0.0005: real time    0.0005
    CHARGE:  cpu time    0.6562: real time    0.6564
    MIXING:  cpu time    0.0322: real time    0.0322
    --------------------------------------------
      LOOP:  cpu time    9.5546: real time    9.5610

 eigenvalue-minimisations  :   407
 total energy-change (2. order) :-0.8899699E-03  (-0.2028732E-04)
 number of electron     153.0000019 magnetization       1.0000000
 augmentation part       92.3877853 magnetization       0.0844140

 Broyden mixing:
  rms(total) = 0.13850E-02    rms(broyden)= 0.13850E-02
  rms(prec ) = 0.26431E-02
  weight for this iteration     100.00

 eigenvalues of (default mixing * dielectric matrix)
  average eigenvalue GAMMA=   1.3726
  5.0908  2.6497  2.2050  1.3294  1.3294  0.8574  0.8574  0.7479  0.7479  0.5860
  0.4474  0.5142  0.4806

 Free energy of the ion-electron system (eV)
  ---------------------------------------------------
  alpha Z        PSCENC =        41.16232785
  Ewald energy   TEWEN  =     16323.44889877
  -Hartree energ DENC   =    -33301.36091829
  -exchange      EXHF   =         0.00000000
  -V(xc)+E(xc)   XCENC  =       615.49521553
  PAW double counting   =     17661.20685521   -19060.03753594
  entropy T*S    EENTRO =         0.00757521
  eigenvalues    EBANDS =      -990.93359917
  atomic energy  EATOM  =     18662.21924712
  Solvation  Ediel_sol  =         0.00000000
  ---------------------------------------------------
  free energy    TOTEN  =       -48.79193371 eV

  energy without entropy =      -48.79950892  energy(sigma->0) =      -48.79445878


--------------------------------------------------------------------------------------------------------




--------------------------------------- Iteration      1(  19)  ---------------------------------------


    POTLOK:  cpu time    1.1335: real time    1.1340
    SETDIJ:  cpu time    0.0175: real time    0.0175
    EDDIAG:  cpu time    1.0837: real time    1.0843
  RMM-DIIS:  cpu time    7.6018: real time    7.6072
    ORTHCH:  cpu time    0.0502: real time    0.0502
       DOS:  cpu time    0.0004: real time    0.0004
    CHARGE:  cpu time    0.6568: real time    0.6571
    MIXING:  cpu time    0.0338: real time    0.0338
    --------------------------------------------
      LOOP:  cpu time   10.5778: real time   10.5846

 eigenvalue-minimisations  :   453
 total energy-change (2. order) :-0.8574649E-03  (-0.1294548E-04)
 number of electron     153.0000019 magnetization       1.0000000
 augmentation part       92.3887236 magnetization       0.0845647

 Broyden mixing:
  rms(total) = 0.12566E-02    rms(broyden)= 0.12566E-02
  rms(prec ) = 0.19814E-02
  weight for this iteration     100.00

 eigenvalues of (default mixing * dielectric matrix)
  average eigenvalue GAMMA=   1.4287
  5.7985  2.7594  2.2313  1.5461  1.5461  1.1645  0.7485  0.7485  0.7905  0.6765
  0.5574  0.4471  0.5079  0.4795

 Free energy of the ion-electron system (eV)
  ---------------------------------------------------
  alpha Z        PSCENC =        41.16232785
  Ewald energy   TEWEN  =     16323.44889877
  -Hartree energ DENC   =    -33301.87011020
  -exchange      EXHF   =         0.00000000
  -V(xc)+E(xc)   XCENC  =       615.49253843
  PAW double counting   =     17661.36052638   -19060.19235221
  entropy T*S    EENTRO =         0.00757056
  eigenvalues    EBANDS =      -990.42143788
  atomic energy  EATOM  =     18662.21924712
  Solvation  Ediel_sol  =         0.00000000
  ---------------------------------------------------
  free energy    TOTEN  =       -48.79279117 eV

  energy without entropy =      -48.80036174  energy(sigma->0) =      -48.79531469


--------------------------------------------------------------------------------------------------------




--------------------------------------- Iteration      1(  20)  ---------------------------------------


    POTLOK:  cpu time    1.1322: real time    1.1385
    SETDIJ:  cpu time    0.0173: real time    0.0173
    EDDIAG:  cpu time    1.0839: real time    1.0849
  RMM-DIIS:  cpu time    7.4024: real time    7.4077
    ORTHCH:  cpu time    0.0502: real time    0.0502
       DOS:  cpu time    0.0004: real time    0.0004
    CHARGE:  cpu time    0.6563: real time    0.6568
    MIXING:  cpu time    0.0353: real time    0.0353
    --------------------------------------------
      LOOP:  cpu time   10.3782: real time   10.3912

 eigenvalue-minimisations  :   406
 total energy-change (2. order) :-0.4834148E-03  (-0.4479296E-05)
 number of electron     153.0000019 magnetization       1.0000000
 augmentation part       92.3886006 magnetization       0.0845131

 Broyden mixing:
  rms(total) = 0.71156E-03    rms(broyden)= 0.71155E-03
  rms(prec ) = 0.12498E-02
  weight for this iteration     100.00

 eigenvalues of (default mixing * dielectric matrix)
  average eigenvalue GAMMA=   1.4463
  6.2620  2.8333  2.3023  1.9209  1.2972  1.2972  0.8578  0.8578  0.7461  0.7461
  0.6164  0.4474  0.5154  0.5154  0.4787

 Free energy of the ion-electron system (eV)
  ---------------------------------------------------
  alpha Z        PSCENC =        41.16232785
  Ewald energy   TEWEN  =     16323.44889877
  -Hartree energ DENC   =    -33302.03702545
  -exchange      EXHF   =         0.00000000
  -V(xc)+E(xc)   XCENC  =       615.49178548
  PAW double counting   =     17661.64068836   -19060.48155721
  entropy T*S    EENTRO =         0.00756743
  eigenvalues    EBANDS =      -990.24520694
  atomic energy  EATOM  =     18662.21924712
  Solvation  Ediel_sol  =         0.00000000
  ---------------------------------------------------
  free energy    TOTEN  =       -48.79327459 eV

  energy without entropy =      -48.80084202  energy(sigma->0) =      -48.79579706


--------------------------------------------------------------------------------------------------------




--------------------------------------- Iteration      1(  21)  ---------------------------------------


    POTLOK:  cpu time    1.1321: real time    1.1330
    SETDIJ:  cpu time    0.0173: real time    0.0175
    EDDIAG:  cpu time    1.0822: real time    1.0829
  RMM-DIIS:  cpu time    6.6271: real time    6.6315
    ORTHCH:  cpu time    0.0502: real time    0.0502
       DOS:  cpu time    0.0004: real time    0.0004
    CHARGE:  cpu time    0.6525: real time    0.6528
    MIXING:  cpu time    0.0371: real time    0.0371
    --------------------------------------------
      LOOP:  cpu time    9.5990: real time    9.6054

 eigenvalue-minimisations  :   403
 total energy-change (2. order) :-0.3809859E-03  (-0.2776760E-05)
 number of electron     153.0000019 magnetization       1.0000000
 augmentation part       92.3891500 magnetization       0.0844511

 Broyden mixing:
  rms(total) = 0.61941E-03    rms(broyden)= 0.61939E-03
  rms(prec ) = 0.95397E-03
  weight for this iteration     100.00

 eigenvalues of (default mixing * dielectric matrix)
  average eigenvalue GAMMA=   1.4896
  6.6226  3.1922  2.4456  2.1984  1.3851  1.3851  0.9386  0.9386  0.7448  0.7448
  0.6904  0.5954  0.4473  0.4777  0.5137  0.5137

 Free energy of the ion-electron system (eV)
  ---------------------------------------------------
  alpha Z        PSCENC =        41.16232785
  Ewald energy   TEWEN  =     16323.44889877
  -Hartree energ DENC   =    -33302.03799598
  -exchange      EXHF   =         0.00000000
  -V(xc)+E(xc)   XCENC  =       615.49096732
  PAW double counting   =     17661.80791363   -19060.65026840
  entropy T*S    EENTRO =         0.00756577
  eigenvalues    EBANDS =      -990.24231166
  atomic energy  EATOM  =     18662.21924712
  Solvation  Ediel_sol  =         0.00000000
  ---------------------------------------------------
  free energy    TOTEN  =       -48.79365557 eV

  energy without entropy =      -48.80122135  energy(sigma->0) =      -48.79617750


--------------------------------------------------------------------------------------------------------




--------------------------------------- Iteration      1(  22)  ---------------------------------------


    POTLOK:  cpu time    1.1322: real time    1.1330
    SETDIJ:  cpu time    0.0172: real time    0.0172
    EDDIAG:  cpu time    1.0822: real time    1.0827
  RMM-DIIS:  cpu time    6.6760: real time    6.6811
    ORTHCH:  cpu time    0.0503: real time    0.0503
       DOS:  cpu time    0.0003: real time    0.0003
    CHARGE:  cpu time    0.6534: real time    0.6537
    MIXING:  cpu time    0.0386: real time    0.0386
    --------------------------------------------
      LOOP:  cpu time    9.6502: real time    9.6569

 eigenvalue-minimisations  :   403
 total energy-change (2. order) :-0.2717260E-03  (-0.2326311E-05)
 number of electron     153.0000019 magnetization       1.0000000
 augmentation part       92.3887393 magnetization       0.0844342

 Broyden mixing:
  rms(total) = 0.33533E-03    rms(broyden)= 0.33531E-03
  rms(prec ) = 0.57617E-03
  weight for this iteration     100.00

 eigenvalues of (default mixing * dielectric matrix)
  average eigenvalue GAMMA=   1.5442
  7.0473  3.9622  2.4824  2.1266  1.5992  1.2809  1.2809  0.9468  0.8596  0.7512
  0.7512  0.6535  0.5670  0.4471  0.4777  0.5146  0.5027

 Free energy of the ion-electron system (eV)
  ---------------------------------------------------
  alpha Z        PSCENC =        41.16232785
  Ewald energy   TEWEN  =     16323.44889877
  -Hartree energ DENC   =    -33302.11527142
  -exchange      EXHF   =         0.00000000
  -V(xc)+E(xc)   XCENC  =       615.49079891
  PAW double counting   =     17662.00918647   -19060.85750108
  entropy T*S    EENTRO =         0.00756833
  eigenvalues    EBANDS =      -990.15918226
  atomic energy  EATOM  =     18662.21924712
  Solvation  Ediel_sol  =         0.00000000
  ---------------------------------------------------
  free energy    TOTEN  =       -48.79392730 eV

  energy without entropy =      -48.80149563  energy(sigma->0) =      -48.79645008


--------------------------------------------------------------------------------------------------------




--------------------------------------- Iteration      1(  23)  ---------------------------------------


    POTLOK:  cpu time    1.1327: real time    1.1335
    SETDIJ:  cpu time    0.0173: real time    0.0173
    EDDIAG:  cpu time    1.0852: real time    1.0866
  RMM-DIIS:  cpu time    7.0613: real time    7.0664
    ORTHCH:  cpu time    0.0504: real time    0.0504
       DOS:  cpu time    0.0004: real time    0.0004
    CHARGE:  cpu time    0.6527: real time    0.6530
    MIXING:  cpu time    0.0411: real time    0.0411
    --------------------------------------------
      LOOP:  cpu time   10.0411: real time   10.0488

 eigenvalue-minimisations  :   429
 total energy-change (2. order) :-0.1190834E-03  (-0.7516722E-06)
 number of electron     153.0000019 magnetization       1.0000000
 augmentation part       92.3884911 magnetization       0.0844631

 Broyden mixing:
  rms(total) = 0.21450E-03    rms(broyden)= 0.21449E-03
  rms(prec ) = 0.35297E-03
  weight for this iteration     100.00

 eigenvalues of (default mixing * dielectric matrix)
  average eigenvalue GAMMA=   1.5590
  7.3637  4.2605  2.4902  2.1103  1.9392  1.3112  1.3112  0.9414  0.9414  0.7527
  0.7527  0.7320  0.6557  0.5678  0.4472  0.4766  0.5039  0.5039

 Free energy of the ion-electron system (eV)
  ---------------------------------------------------
  alpha Z        PSCENC =        41.16232785
  Ewald energy   TEWEN  =     16323.44889877
  -Hartree energ DENC   =    -33302.19267075
  -exchange      EXHF   =         0.00000000
  -V(xc)+E(xc)   XCENC  =       615.49048854
  PAW double counting   =     17662.02793237   -19060.87620241
  entropy T*S    EENTRO =         0.00756891
  eigenvalues    EBANDS =      -990.08163677
  atomic energy  EATOM  =     18662.21924712
  Solvation  Ediel_sol  =         0.00000000
  ---------------------------------------------------
  free energy    TOTEN  =       -48.79404638 eV

  energy without entropy =      -48.80161529  energy(sigma->0) =      -48.79656935


--------------------------------------------------------------------------------------------------------




--------------------------------------- Iteration      1(  24)  ---------------------------------------


    POTLOK:  cpu time    1.1331: real time    1.1363
    SETDIJ:  cpu time    0.0174: real time    0.0174
    EDDIAG:  cpu time    1.0837: real time    1.0842
  RMM-DIIS:  cpu time    6.4291: real time    6.4337
    ORTHCH:  cpu time    0.0506: real time    0.0506
       DOS:  cpu time    0.0004: real time    0.0004
    CHARGE:  cpu time    0.6534: real time    0.6536
    MIXING:  cpu time    0.0424: real time    0.0424
    --------------------------------------------
      LOOP:  cpu time    9.4102: real time    9.4187

 eigenvalue-minimisations  :   395
 total energy-change (2. order) :-0.1012183E-03  (-0.6760723E-06)
 number of electron     153.0000019 magnetization       1.0000000
 augmentation part       92.3884730 magnetization       0.0844648

 Broyden mixing:
  rms(total) = 0.15562E-03    rms(broyden)= 0.15562E-03
  rms(prec ) = 0.24938E-03
  weight for this iteration     100.00

 eigenvalues of (default mixing * dielectric matrix)
  average eigenvalue GAMMA=   1.5958
  7.7140  4.6093  2.4847  2.4847  1.8381  1.4738  1.4738  1.0603  1.0603  0.7577
  0.7577  0.7831  0.7099  0.6143  0.4472  0.5622  0.4764  0.5064  0.5064

 Free energy of the ion-electron system (eV)
  ---------------------------------------------------
  alpha Z        PSCENC =        41.16232785
  Ewald energy   TEWEN  =     16323.44889877
  -Hartree energ DENC   =    -33302.20913287
  -exchange      EXHF   =         0.00000000
  -V(xc)+E(xc)   XCENC  =       615.49051540
  PAW double counting   =     17661.94886419   -19060.79477788
  entropy T*S    EENTRO =         0.00756848
  eigenvalues    EBANDS =      -990.06765867
  atomic energy  EATOM  =     18662.21924712
  Solvation  Ediel_sol  =         0.00000000
  ---------------------------------------------------
  free energy    TOTEN  =       -48.79414760 eV

  energy without entropy =      -48.80171608  energy(sigma->0) =      -48.79667043


--------------------------------------------------------------------------------------------------------




--------------------------------------- Iteration      1(  25)  ---------------------------------------


    POTLOK:  cpu time    1.1316: real time    1.1324
    SETDIJ:  cpu time    0.0170: real time    0.0170
    EDDIAG:  cpu time    1.0847: real time    1.0852
  RMM-DIIS:  cpu time    6.4045: real time    6.4092
    ORTHCH:  cpu time    0.0503: real time    0.0503
       DOS:  cpu time    0.0004: real time    0.0004
    CHARGE:  cpu time    0.6528: real time    0.6537
    MIXING:  cpu time    0.0452: real time    0.0452
    --------------------------------------------
      LOOP:  cpu time    9.3863: real time    9.3933

 eigenvalue-minimisations  :   389
 total energy-change (2. order) :-0.6913756E-04  (-0.6256461E-06)
 number of electron     153.0000019 magnetization       1.0000000
 augmentation part       92.3886271 magnetization       0.0844738

 Broyden mixing:
  rms(total) = 0.10235E-03    rms(broyden)= 0.10233E-03
  rms(prec ) = 0.16169E-03
  weight for this iteration     100.00

 eigenvalues of (default mixing * dielectric matrix)
  average eigenvalue GAMMA=   1.6197
  7.9150  4.9961  2.6502  2.6502  1.8438  1.8438  1.3024  1.3024  0.9279  0.9279
  0.7560  0.7560  0.7092  0.7092  0.6023  0.4472  0.5662  0.4763  0.5061  0.5061

 Free energy of the ion-electron system (eV)
  ---------------------------------------------------
  alpha Z        PSCENC =        41.16232785
  Ewald energy   TEWEN  =     16323.44889877
  -Hartree energ DENC   =    -33302.20142655
  -exchange      EXHF   =         0.00000000
  -V(xc)+E(xc)   XCENC  =       615.49044204
  PAW double counting   =     17661.84260068   -19060.68455029
  entropy T*S    EENTRO =         0.00756817
  eigenvalues    EBANDS =      -990.07932453
  atomic energy  EATOM  =     18662.21924712
  Solvation  Ediel_sol  =         0.00000000
  ---------------------------------------------------
  free energy    TOTEN  =       -48.79421674 eV

  energy without entropy =      -48.80178491  energy(sigma->0) =      -48.79673946


--------------------------------------------------------------------------------------------------------




--------------------------------------- Iteration      1(  26)  ---------------------------------------


    POTLOK:  cpu time    1.1331: real time    1.1336
    SETDIJ:  cpu time    0.0175: real time    0.0175
    EDDIAG:  cpu time    1.0841: real time    1.0851
  RMM-DIIS:  cpu time    6.2758: real time    6.2805
    ORTHCH:  cpu time    0.0506: real time    0.0506
       DOS:  cpu time    0.0004: real time    0.0004
    CHARGE:  cpu time    0.6559: real time    0.6562
    MIXING:  cpu time    0.0483: real time    0.0483
    --------------------------------------------
      LOOP:  cpu time    9.2656: real time    9.2721

 eigenvalue-minimisations  :   360
 total energy-change (2. order) :-0.2889536E-04  (-0.2641835E-06)
 number of electron     153.0000019 magnetization       1.0000000
 augmentation part       92.3888227 magnetization       0.0844769

 Broyden mixing:
  rms(total) = 0.82195E-04    rms(broyden)= 0.82194E-04
  rms(prec ) = 0.11466E-03
  weight for this iteration     100.00

 eigenvalues of (default mixing * dielectric matrix)
  average eigenvalue GAMMA=   1.6380
  8.0568  5.3738  3.0339  2.5452  1.9183  1.9183  1.3705  1.3705  1.0246  1.0246
  0.7722  0.7722  0.7414  0.7414  0.6158  0.6158  0.5690  0.4472  0.5047  0.5047
  0.4765

 Free energy of the ion-electron system (eV)
  ---------------------------------------------------
  alpha Z        PSCENC =        41.16232785
  Ewald energy   TEWEN  =     16323.44889877
  -Hartree energ DENC   =    -33302.19721763
  -exchange      EXHF   =         0.00000000
  -V(xc)+E(xc)   XCENC  =       615.49026343
  PAW double counting   =     17661.80794960   -19060.64779226
  entropy T*S    EENTRO =         0.00756831
  eigenvalues    EBANDS =      -990.08549081
  atomic energy  EATOM  =     18662.21924712
  Solvation  Ediel_sol  =         0.00000000
  ---------------------------------------------------
  free energy    TOTEN  =       -48.79424563 eV

  energy without entropy =      -48.80181394  energy(sigma->0) =      -48.79676840


--------------------------------------------------------------------------------------------------------




--------------------------------------- Iteration      1(  27)  ---------------------------------------


    POTLOK:  cpu time    1.1320: real time    1.1323
    SETDIJ:  cpu time    0.0173: real time    0.0173
    EDDIAG:  cpu time    1.0830: real time    1.0836
  RMM-DIIS:  cpu time    5.1577: real time    5.1605
    ORTHCH:  cpu time    0.0506: real time    0.0506
       DOS:  cpu time    0.0004: real time    0.0004
    CHARGE:  cpu time    0.6557: real time    0.6574
    MIXING:  cpu time    0.0509: real time    0.0509
    --------------------------------------------
      LOOP:  cpu time    8.1476: real time    8.1530

 eigenvalue-minimisations  :   294
 total energy-change (2. order) :-0.1323630E-04  (-0.1264818E-06)
 number of electron     153.0000019 magnetization       1.0000000
 augmentation part       92.3886521 magnetization       0.0844649

 Broyden mixing:
  rms(total) = 0.54958E-04    rms(broyden)= 0.54953E-04
  rms(prec ) = 0.78736E-04
  weight for this iteration     100.00

 eigenvalues of (default mixing * dielectric matrix)
  average eigenvalue GAMMA=   1.6320
  8.1334  5.6700  3.2219  2.4648  2.1427  1.8571  1.4211  1.4211  0.9778  0.9316
  0.9316  0.7557  0.7557  0.7857  0.7167  0.6078  0.6078  0.5707  0.4472  0.4765
  0.5042  0.5042

 Free energy of the ion-electron system (eV)
  ---------------------------------------------------
  alpha Z        PSCENC =        41.16232785
  Ewald energy   TEWEN  =     16323.44889877
  -Hartree energ DENC   =    -33302.20366853
  -exchange      EXHF   =         0.00000000
  -V(xc)+E(xc)   XCENC  =       615.49039402
  PAW double counting   =     17661.80921827   -19060.65060504
  entropy T*S    EENTRO =         0.00756841
  eigenvalues    EBANDS =      -990.07763974
  atomic energy  EATOM  =     18662.21924712
  Solvation  Ediel_sol  =         0.00000000
  ---------------------------------------------------
  free energy    TOTEN  =       -48.79425887 eV

  energy without entropy =      -48.80182728  energy(sigma->0) =      -48.79678167


--------------------------------------------------------------------------------------------------------




--------------------------------------- Iteration      1(  28)  ---------------------------------------


    POTLOK:  cpu time    1.1321: real time    1.1354
    SETDIJ:  cpu time    0.0175: real time    0.0175
    EDDIAG:  cpu time    1.0804: real time    1.0903
  RMM-DIIS:  cpu time    4.4257: real time    4.4277
    ORTHCH:  cpu time    0.0503: real time    0.0506
       DOS:  cpu time    0.0004: real time    0.0004
    CHARGE:  cpu time    0.6561: real time    0.6564
    MIXING:  cpu time    0.0547: real time    0.0547
[...]
     66      -4.8931      1.00000
     67      -4.8792      1.00000
     68      -4.8754      1.00000
     69      -4.8654      1.00000
     70      -4.8208      1.00000
     71      -4.8015      1.00000
     72      -4.7707      1.00000
     73      -4.7023      1.00000
     74      -4.5191      1.00000
     75      -4.1831      1.00000
     76      -4.0471      1.00000
     77      -3.6089      1.00000
     78      -3.0300     -0.00000
     79      -2.8857     -0.00000
     80      -2.5130     -0.00000
     81      -2.4063     -0.00000
     82      -1.9034     -0.00000
     83      -1.8837     -0.00000
     84      -1.7475     -0.00000
     85      -1.4881     -0.00000
     86      -1.1307     -0.00000
     87      -0.9383     -0.00000
     88      -0.6538      0.00000
     89      -0.3655      0.00000
     90      -0.2165      0.00000
     91      -0.0648      0.00000
     92       0.0839      0.00000

 spin component 2

 k-point     1 :       0.0000    0.0000    0.0000
  band No.  band energies     occupation 
      1     -28.5663      1.00000
      2     -13.9104      1.00000
      3     -11.3494      1.00000
      4     -11.2289      1.00000
      5     -11.0969      1.00000
      6     -10.1293      1.00000
      7      -8.5720      1.00000
      8      -8.1407      1.00000
      9      -7.6829      1.00000
     10      -7.4718      1.00000
     11      -7.3663      1.00000
     12      -7.3161      1.00000
     13      -7.1955      1.00000
     14      -7.1402      1.00000
     15      -6.9477      1.00000
     16      -6.9296      1.00000
     17      -6.7764      1.00000
     18      -6.7328      1.00000
     19      -6.6401      1.00000
     20      -6.5601      1.00000
     21      -6.5279      1.00000
     22      -6.5257      1.00000
     23      -6.4873      1.00000
     24      -6.4540      1.00000
     25      -6.4289      1.00000
     26      -6.3751      1.00000
     27      -6.3285      1.00000
     28      -6.2740      1.00000
     29      -6.2338      1.00000
     30      -6.2118      1.00000
     31      -6.1898      1.00000
     32      -6.1033      1.00000
     33      -6.0725      1.00000
     34      -6.0467      1.00000
     35      -5.9515      1.00000
     36      -5.8509      1.00000
     37      -5.7746      1.00000
     38      -5.7213      1.00000
     39      -5.6642      1.00000
     40      -5.6516      1.00000
     41      -5.5556      1.00000
     42      -5.5229      1.00000
     43      -5.4837      1.00000
     44      -5.4528      1.00000
     45      -5.4262      1.00000
     46      -5.3879      1.00000
     47      -5.3514      1.00000
     48      -5.3318      1.00000
     49      -5.3183      1.00000
     50      -5.2876      1.00000
     51      -5.2715      1.00000
     52      -5.2299      1.00000
     53      -5.1994      1.00000
     54      -5.1971      1.00000
     55      -5.1679      1.00000
     56      -5.1291      1.00000
     57      -5.1207      1.00000
     58      -5.1016      1.00000
     59      -5.0876      1.00000
     60      -5.0496      1.00000
     61      -5.0317      1.00000
     62      -4.9946      1.00000
     63      -4.9749      1.00000
     64      -4.9634      1.00000
     65      -4.8992      1.00000
     66      -4.8696      1.00000
     67      -4.8502      1.00000
     68      -4.8451      1.00000
     69      -4.8248      1.00000
     70      -4.7839      1.00000
     71      -4.7710      1.00000
     72      -4.7486      1.00000
     73      -4.6708      1.00000
     74      -4.4761      1.00000
     75      -4.1168      1.01360
     76      -4.0132      0.98640
     77      -3.3980     -0.00000
     78      -2.9750     -0.00000
     79      -2.8356     -0.00000
     80      -2.4529     -0.00000
     81      -2.3107     -0.00000
     82      -1.8721     -0.00000
     83      -1.7838     -0.00000
     84      -1.6925     -0.00000
     85      -1.4023     -0.00000
     86      -0.9739      0.00000
     87      -0.8796      0.00000
     88      -0.5907      0.00000
     89      -0.2546      0.00000
     90      -0.1533      0.00000
     91      -0.0191      0.00000
     92       0.1348      0.00000


--------------------------------------------------------------------------------------------------------


 soft charge-density along one line, spin component           1
         0         1         2         3         4         5         6         7         8         9
 total charge-density along one line
 
 soft charge-density along one line, spin component           2
         0         1         2         3         4         5         6         7         8         9
 total charge-density along one line
 
 pseudopotential strength for first ion, spin component:           1
-10.552   0.008  -0.020   0.006  -0.011   1.047  -0.006   0.017
  0.008 -10.520  -0.005   0.009   0.002  -0.006   1.023   0.004
 -0.020  -0.005 -10.496   0.005  -0.015   0.017   0.004   1.004
  0.006   0.009   0.005 -10.498   0.000  -0.004  -0.009  -0.003
 -0.011   0.002  -0.015   0.000 -10.530   0.008  -0.002   0.013
  1.047  -0.006   0.017  -0.004   0.008   6.271   0.004  -0.014
 -0.006   1.023   0.004  -0.009  -0.002   0.004   6.285  -0.003
  0.017   0.004   1.004  -0.003   0.013  -0.014  -0.003   6.300
 -0.004  -0.009  -0.003   1.004  -0.000   0.003   0.009   0.002
  0.008  -0.002   0.013  -0.000   1.031  -0.005   0.001  -0.009
 -0.008   0.000  -0.006  -0.001  -0.005   0.005  -0.000  -0.000
 -0.015   0.000  -0.012  -0.002  -0.009   0.010  -0.001  -0.000
 -0.012   0.000   0.005  -0.001   0.010   0.008  -0.000  -0.004
 -0.001  -0.007   0.001  -0.011   0.000   0.001   0.005  -0.000
 -0.006  -0.001   0.007   0.000  -0.012   0.003   0.001  -0.005
 -0.012   0.000   0.005  -0.001   0.011   0.008  -0.000  -0.005
 -0.001  -0.007   0.001  -0.012   0.000   0.001   0.005  -0.000
 -0.006  -0.001   0.008   0.000  -0.013   0.002   0.001  -0.006
 pseudopotential strength for first ion, spin component:           2
-10.501   0.004  -0.010  -0.003   0.005   1.007  -0.003   0.008
  0.004 -10.503  -0.006   0.009  -0.001  -0.003   1.009   0.004
 -0.010  -0.006 -10.479   0.003  -0.012   0.008   0.004   0.990
 -0.003   0.009   0.003 -10.480  -0.003   0.003  -0.008  -0.002
  0.005  -0.001  -0.012  -0.003 -10.511  -0.004   0.001   0.009
  1.007  -0.003   0.008   0.003  -0.004   6.298   0.002  -0.005
 -0.003   1.009   0.004  -0.008   0.001   0.002   6.294  -0.003
  0.008   0.004   0.990  -0.002   0.009  -0.005  -0.003   6.307
  0.003  -0.008  -0.002   0.990   0.002  -0.002   0.006   0.002
 -0.004   0.001   0.009   0.002   1.014   0.003  -0.000  -0.006
 -0.003   0.001  -0.003  -0.001  -0.003   0.001   0.000  -0.002
 -0.006   0.001  -0.006  -0.002  -0.006   0.001   0.000  -0.003
 -0.013   0.001   0.005   0.000   0.009   0.011  -0.001  -0.005
  0.000  -0.009   0.002  -0.013   0.000  -0.000   0.007  -0.002
 -0.009   0.000   0.008   0.002  -0.013   0.008  -0.000  -0.007
 -0.015   0.001   0.006   0.000   0.010   0.013  -0.002  -0.006
  0.000  -0.009   0.002  -0.015   0.001  -0.000   0.008  -0.002
 -0.011   0.000   0.009   0.002  -0.015   0.009  -0.000  -0.008
 total augmentation occupancy for first ion, spin component:           1
  1.932   0.005  -0.007   0.003  -0.003  -0.008  -0.004   0.009  -0.001   0.003  -0.022   0.014   0.035  -0.004   0.037  -0.018
  0.005   1.927  -0.006   0.008   0.001  -0.004  -0.018   0.005  -0.001   0.000  -0.005  -0.001  -0.006   0.041  -0.005   0.001
 -0.007  -0.006   1.947   0.003  -0.003   0.008   0.005  -0.027  -0.003   0.005  -0.015   0.010  -0.011  -0.000  -0.017   0.006
  0.003   0.008   0.003   1.938  -0.005  -0.002  -0.001  -0.003  -0.024   0.003   0.007   0.001   0.003   0.053  -0.003  -0.000
 -0.003   0.001  -0.003  -0.005   1.937   0.003   0.000   0.005   0.003  -0.015  -0.014   0.007  -0.011   0.008   0.029   0.012
 -0.008  -0.004   0.008  -0.002   0.003   0.015  -0.000   0.002   0.000   0.001  -0.029   0.000   0.020   0.001   0.010  -0.001
 -0.004  -0.018   0.005  -0.001   0.000  -0.000   0.008  -0.000   0.001  -0.000   0.004  -0.001  -0.002   0.013   0.002   0.000
  0.009   0.005  -0.027  -0.003   0.005   0.002  -0.000   0.007  -0.001   0.002  -0.043   0.005  -0.007  -0.002  -0.007   0.001
 -0.001  -0.001  -0.003  -0.024   0.003   0.000   0.001  -0.001   0.009  -0.001  -0.009   0.001  -0.001   0.019  -0.003  -0.000
  0.003   0.000   0.005   0.003  -0.015   0.001  -0.000   0.002  -0.001   0.013  -0.022   0.001  -0.021  -0.002   0.020   0.001
 -0.022  -0.005  -0.015   0.007  -0.014  -0.029   0.004  -0.043  -0.009  -0.022   1.655  -0.117   0.131  -0.016   0.168  -0.017
  0.014  -0.001   0.010   0.001   0.007   0.000  -0.001   0.005   0.001   0.001  -0.117   0.014  -0.018   0.003  -0.025   0.002
  0.035  -0.006  -0.011   0.003  -0.011   0.020  -0.002  -0.007  -0.001  -0.021   0.131  -0.018   0.194   0.003  -0.042  -0.012
 -0.004   0.041  -0.000   0.053   0.008   0.001   0.013  -0.002   0.019  -0.002  -0.016   0.003   0.003   0.087  -0.008  -0.000
  0.037  -0.005  -0.017  -0.003   0.029   0.010   0.002  -0.007  -0.003   0.020   0.168  -0.025  -0.042  -0.008   0.142   0.001
 -0.018   0.001   0.006  -0.000   0.012  -0.001   0.000   0.001  -0.000   0.001  -0.017   0.002  -0.012  -0.000   0.001   0.001
 -0.000  -0.014   0.002  -0.020   0.000  -0.000  -0.001   0.000  -0.001   0.000   0.002  -0.000  -0.001  -0.006   0.001   0.000
 -0.013  -0.000   0.009   0.001  -0.018  -0.000  -0.000   0.001   0.000  -0.001  -0.024   0.002   0.001   0.001  -0.010   0.000
 total augmentation occupancy for first ion, spin component:           2
  0.020  -0.003   0.003  -0.006   0.009  -0.004   0.000  -0.002   0.001  -0.002   0.038   0.007  -0.013   0.006  -0.019  -0.001
 -0.003   0.001  -0.001   0.002  -0.001   0.000   0.001   0.000   0.001   0.001  -0.005  -0.001   0.002  -0.003   0.003   0.000
  0.003  -0.001   0.002  -0.001   0.001  -0.002   0.000   0.001   0.000  -0.001   0.007   0.001  -0.001   0.003  -0.001   0.000
 -0.006   0.002  -0.001   0.003  -0.002   0.001   0.001   0.000   0.002   0.000  -0.011  -0.002   0.003  -0.005   0.006   0.000
  0.009  -0.001   0.001  -0.002   0.003  -0.002   0.001  -0.001   0.000   0.001   0.015   0.003  -0.003   0.002  -0.010  -0.000
 -0.004   0.000  -0.002   0.001  -0.002   0.001  -0.000   0.000  -0.000   0.001  -0.008  -0.001   0.002  -0.002   0.004   0.000
  0.000   0.001   0.000   0.001   0.001  -0.000  -0.000  -0.000  -0.000  -0.000   0.001   0.000  -0.000   0.000  -0.001  -0.000
 -0.002   0.000   0.001   0.000  -0.001   0.000  -0.000   0.000  -0.000   0.000  -0.002  -0.000   0.001  -0.000   0.001   0.000
  0.001   0.001   0.000   0.002   0.000  -0.000  -0.000  -0.000  -0.000  -0.000   0.002   0.000  -0.001   0.000  -0.001  -0.000
 -0.002   0.001  -0.001   0.000   0.001   0.001  -0.000   0.000  -0.000  -0.000  -0.003  -0.000   0.002  -0.001   0.001  -0.000
  0.038  -0.005   0.007  -0.011   0.015  -0.008   0.001  -0.002   0.002  -0.003   0.084   0.005  -0.024   0.014  -0.037  -0.000
  0.007  -0.001   0.001  -0.002   0.003  -0.001   0.000  -0.000   0.000  -0.000   0.005   0.001  -0.001   0.001  -0.002  -0.000
 -0.013   0.002  -0.001   0.003  -0.003   0.002  -0.000   0.001  -0.001   0.002  -0.024  -0.001   0.006  -0.003   0.007   0.000
  0.006  -0.003   0.003  -0.005   0.002  -0.002   0.000  -0.000   0.000  -0.001   0.014   0.001  -0.003   0.002  -0.004  -0.000
 -0.019   0.003  -0.001   0.006  -0.010   0.004  -0.001   0.001  -0.001   0.001  -0.037  -0.002   0.007  -0.004   0.013   0.000
 -0.001   0.000   0.000   0.000  -0.000   0.000  -0.000   0.000  -0.000  -0.000  -0.000  -0.000   0.000  -0.000   0.000   0.000
  0.000  -0.001   0.000  -0.001   0.000   0.000  -0.000  -0.000   0.000  -0.000  -0.000   0.000   0.000   0.000  -0.000  -0.000
 -0.001   0.000   0.000   0.001  -0.001   0.000   0.000   0.000  -0.000   0.000  -0.000  -0.000   0.000  -0.000   0.000   0.000


------------------------ aborting loop because EDIFF is reached ----------------------------------------


    CHARGE:  cpu time    0.6536: real time    0.6537
    FORLOC:  cpu time    0.0651: real time    0.0652
    FORNL :  cpu time    1.5343: real time    1.5348
    STRESS:  cpu time    6.2927: real time    6.2968
    FORCOR:  cpu time    1.1426: real time    1.1432
    FORHAR:  cpu time    0.1869: real time    0.1871
    MIXING:  cpu time    0.1190: real time    0.1192
    OFIELD:  cpu time    0.0001: real time    0.0001

  FORCE on cell =-STRESS in cart. coord.  units (eV):
  Direction    XX          YY          ZZ          XY          YZ          ZX
  --------------------------------------------------------------------------------------
  Alpha Z    41.16233    41.16233    41.16233
  Ewald   10223.88963  7308.28152 -1208.73823  -656.60138   500.93451   122.19361
  Hartree 15385.73305 12780.53299  5135.94425  -616.44675   441.40578    29.69183
  E(xc)    -876.51903  -877.74654  -879.26495     0.08769     0.12585     0.54770
  Local  -27011.24146-21518.87493 -5360.43619  1278.77443  -939.52101  -138.87876
  n-local  -327.66653  -320.89148  -327.95676    -3.18394    -0.60536    -2.02882
  augment  1223.29536  1226.10870  1232.09371     0.03288    -0.43619    -1.63286
  Kinetic  1340.46598  1363.03571  1365.88024    -4.11968    -2.35556    -9.79386
  Fock        0.00000     0.00000     0.00000     0.00000     0.00000     0.00000
  -------------------------------------------------------------------------------------
  Total      -0.88068     1.60830    -1.31560    -1.45675    -0.45199     0.09884
  in kB      -0.41807     0.76349    -0.62454    -0.69155    -0.21457     0.04692
  external pressure =       -0.09 kB  Pullay stress =        0.00 kB


 VOLUME and BASIS-vectors are now :
 -----------------------------------------------------------------------------
  energy-cutoff  :      600.00
  volume of cell :     3375.00
      direct lattice vectors                 reciprocal lattice vectors
    15.000000000  0.000000000  0.000000000     0.066666667  0.000000000  0.000000000
     0.000000000 15.000000000  0.000000000     0.000000000  0.066666667  0.000000000
     0.000000000  0.000000000 15.000000000     0.000000000  0.000000000  0.066666667

  length of vectors
    15.000000000 15.000000000 15.000000000     0.066666667  0.066666667  0.066666667


 FORCES acting on ions
    electron-ion (+dipol)            ewald-force                    non-local-force                 convergence-correction
 -----------------------------------------------------------------------------------------------
   0.108E+04 0.703E+03 -.848E+02   -.107E+04 -.700E+03 0.846E+02   -.428E+01 -.334E+01 0.280E+00   0.301E-04 0.344E-04 -.251E-05
   0.488E+03 -.333E+03 0.874E+03   -.487E+03 0.330E+03 -.874E+03   -.161E+01 0.284E+01 0.696E+00   0.833E-05 -.305E-04 0.190E-04
   0.295E+03 0.128E+04 -.161E+03   -.293E+03 -.127E+04 0.159E+03   -.185E+01 -.903E+01 0.176E+01   0.672E-05 0.204E-04 -.807E-05
   -.823E+03 -.157E+03 0.906E+03   0.822E+03 0.157E+03 -.902E+03   0.119E+01 0.933E+00 -.417E+01   -.394E-04 -.376E-06 0.172E-04
   -.840E+03 0.103E+04 0.134E+03   0.837E+03 -.102E+04 -.134E+03   0.410E+01 -.627E+01 -.839E+00   -.167E-04 0.129E-04 -.871E-05
   -.177E+03 0.505E+03 -.976E+03   0.176E+03 -.502E+03 0.976E+03   0.134E+01 -.287E+01 0.813E+00   -.264E-04 0.285E-04 -.184E-04
   0.194E+03 0.640E+03 0.123E+04   -.193E+03 -.636E+03 -.122E+04   -.119E+01 -.482E+01 -.615E+01   0.328E-05 0.306E-04 0.340E-04
   0.126E+04 -.345E+03 0.132E+03   -.125E+04 0.342E+03 -.129E+03   -.896E+01 0.335E+01 -.276E+01   0.177E-04 -.889E-05 -.732E-05
   0.549E+03 -.199E+03 -.124E+04   -.545E+03 0.199E+03 0.124E+04   -.357E+01 0.127E+00 0.716E+01   0.182E-04 -.164E-04 -.402E-04
   0.463E+03 -.126E+04 -.147E+03   -.460E+03 0.125E+04 0.146E+03   -.325E+01 0.699E+01 0.135E+01   0.921E-06 -.192E-04 -.310E-05
   -.447E+03 -.105E+04 0.737E+03   0.443E+03 0.105E+04 -.730E+03   0.391E+01 0.622E+01 -.687E+01   -.856E-05 -.214E-04 0.111E-04
   -.880E+03 -.206E+02 -.251E+03   0.878E+03 0.196E+02 0.249E+03   0.164E+01 0.787E+00 0.215E+01   0.245E-04 0.473E-05 0.202E-04
   -.603E+03 -.751E+03 -.836E+03   0.599E+03 0.747E+03 0.833E+03   0.376E+01 0.354E+01 0.292E+01   -.203E-04 -.269E-04 -.192E-04
   -.118E+03 0.281E+02 -.855E+02   0.992E+02 -.320E+02 0.785E+02   0.184E+02 0.412E+01 0.706E+01   0.720E-05 0.178E-06 0.243E-05
   -.391E+03 -.606E+02 -.208E+03   0.446E+03 0.724E+02 0.230E+03   -.543E+02 -.119E+02 -.223E+02   -.549E-06 -.350E-05 -.457E-05
 -----------------------------------------------------------------------------------------------
   0.447E+02 0.935E+01 0.189E+02   0.625E-12 0.853E-13 -.171E-12   -.447E+02 -.935E+01 -.189E+02   0.503E-05 0.460E-05 -.814E-05
 
 
 POSITION                                       TOTAL-FORCE (eV/Angst)
 -----------------------------------------------------------------------------------
      4.37079      6.27774      8.39822         0.197342     -0.164261      0.043318
      5.60486      8.12052      7.41517        -0.218187      0.620546      0.119706
      5.88615      4.39831      8.35430         0.204682     -0.082135      0.149454
      7.94782      7.55743      7.17622         0.292582      0.398351      0.159886
      8.21678      5.28346      7.98617         0.405866     -0.272026     -0.350335
      6.75163      6.55094      9.20776        -0.272416      0.100173      0.023548
      6.25918      6.00341      6.62630        -0.183974     -0.435646      0.225935
      3.36337      8.42925      8.29705        -0.117840      0.424997     -0.061751
      5.03032      8.19581      9.94203         0.208878     -0.154613     -0.273341
      5.27915     10.22830      8.56852        -0.197156     -0.092183     -0.061419
      7.24239      9.94211      7.09714        -0.068227     -0.066600      0.088310
      9.56757      7.33155      8.88396        -0.583850     -0.284397      0.085797
      7.24168      8.90126      9.23376         0.360665     -0.118250     -0.145201
     11.14170      7.45705      9.78942         0.081618      0.248564      0.052483
     12.19090      7.68341     10.21990        -0.109983     -0.122519     -0.056390
 -----------------------------------------------------------------------------------
    total drift:                               -0.001564     -0.001485     -0.000060


--------------------------------------------------------------------------------------------------------



  FREE ENERGIE OF THE ION-ELECTRON SYSTEM (eV)
  ---------------------------------------------------
  free  energy   TOTEN  =       -48.79427101 eV

  energy  without entropy=      -48.80183926  energy(sigma->0) =      -48.79679376
 


--------------------------------------------------------------------------------------------------------


    POTLOK:  cpu time    1.1506: real time    1.1516


--------------------------------------------------------------------------------------------------------


     LOOP+:  cpu time  356.5297: real time  356.8938
    4ORBIT:  cpu time    0.0000: real time    0.0000

 total amount of memory used by VASP MPI-rank0   158680. kBytes
=======================================================================

   base      :      30000. kBytes
   nonl-proj :      12601. kBytes
   fftplans  :      27994. kBytes
   grid      :      74150. kBytes
   one-center:         93. kBytes
   wavefun   :      13842. kBytes
 
  
  
 General timing and accounting informations for this job:
 ========================================================
  
                  Total CPU time used (sec):      360.543
                            User time (sec):      348.572
                          System time (sec):       11.971
                         Elapsed time (sec):      360.949
  
                   Maximum memory used (kb):      285612.
                   Average memory used (kb):           0.
  
                          Minor page faults:       286908
                          Major page faults:            0
                 Voluntary context switches:          792
