 vasp.5.4.4.18Apr17-6-g9f103f2a35 (build May 08 2019 13:49:07) complex          
  
 executed on             LinuxIFC date 2019.11.13  12:05:17
 running on   24 total cores
 distrk:  each k-point on   24 cores,    1 groups
 distr:  one band on NCORES_PER_BAND=   6 cores,    4 groups


--------------------------------------------------------------------------------------------------------


 INCAR:
 POTCAR:    PAW_PBE Cu 22Jun2005                  
 POTCAR:    PAW_PBE C 08Apr2002                   
 POTCAR:    PAW_PBE O 08Apr2002                   
 POTCAR:    PAW_PBE Cu 22Jun2005                  
   VRHFIN =Cu: d10 p1                                                           
   LEXCH  = PE                                                                  
   EATOM  =  1390.9808 eV,  102.2342 Ry                                         
                                                                                
   TITEL  = PAW_PBE Cu 22Jun2005                                                
   LULTRA =        F    use ultrasoft PP ?                                      
   IUNSCR =        1    unscreen: 0-lin 1-nonlin 2-no                           
   RPACOR =    2.000    partial core radius                                     
   POMASS =   63.546; ZVAL   =   11.000    mass and valenz                      
   RCORE  =    2.300    outmost cutoff radius                                   
   RWIGS  =    2.200; RWIGS  =    1.164    wigner-seitz radius (au A)           
   ENMAX  =  295.446; ENMIN  =  221.585 eV                                      
   ICORE  =        3    local potential                                         
   LCOR   =        T    correct aug charges                                     
   LPAW   =        T    paw PP                                                  
   EAUG   =  586.980                                                            
   DEXC   =    0.000                                                            
   RMAX   =    2.344    core radius for proj-oper                               
   RAUG   =    1.300    factor for augmentation sphere                          
   RDEP   =    2.302    radius for radial grids                                 
   RDEPT  =    1.771    core radius for aug-charge                              
                                                                                
   Atomic configuration                                                         
    9 entries                                                                   
     n  l   j            E        occ.                                          
     1  0  0.50     -8850.2468   2.0000                                         
     2  0  0.50     -1062.3498   2.0000                                         
     2  1  1.50      -916.8226   6.0000                                         
     3  0  0.50      -114.6929   2.0000                                         
     3  1  1.50       -72.1325   6.0000                                         
     3  2  2.50        -5.0394  10.0000                                         
     4  0  0.50        -4.6097   1.0000                                         
     4  1  0.50        -4.0817   0.0000                                         
     4  3  2.50        -1.3606   0.0000                                         
   Description                                                                  
     l       E           TYP  RCUT    TYP  RCUT                                 
     2     -5.0393973     23  2.200                                             
     2     10.8846608     23  2.200                                             
     0     -4.6097109     23  2.200                                             
     0      8.2520465     23  2.200                                             
     1     -2.7211652     23  2.200                                             
     1     21.7055443     23  2.200                                             
     3      2.7211652     23  2.300                                             
  local pseudopotential read in
  partial core-charges read in
  partial kinetic energy density read in
  atomic valenz-charges read in
  non local Contribution for L=           2  read in
    real space projection operators read in
  non local Contribution for L=           2  read in
    real space projection operators read in
  non local Contribution for L=           0  read in
    real space projection operators read in
  non local Contribution for L=           0  read in
    real space projection operators read in
  non local Contribution for L=           1  read in
    real space projection operators read in
  non local Contribution for L=           1  read in
    real space projection operators read in
    PAW grid and wavefunctions read in
 
   number of l-projection  operators is LMAX  =           6
   number of lm-projection operators is LMMAX =          18
 
 POTCAR:    PAW_PBE C 08Apr2002                   
   VRHFIN =C: s2p2                                                              
   LEXCH  = PE                                                                  
   EATOM  =   147.1560 eV,   10.8157 Ry                                         
                                                                                
   TITEL  = PAW_PBE C 08Apr2002                                                 
   LULTRA =        F    use ultrasoft PP ?                                      
   IUNSCR =        1    unscreen: 0-lin 1-nonlin 2-no                           
   RPACOR =    1.200    partial core radius                                     
   POMASS =   12.011; ZVAL   =    4.000    mass and valenz                      
   RCORE  =    1.500    outmost cutoff radius                                   
   RWIGS  =    1.630; RWIGS  =    0.863    wigner-seitz radius (au A)           
   ENMAX  =  400.000; ENMIN  =  300.000 eV                                      
   ICORE  =        2    local potential                                         
   LCOR   =        T    correct aug charges                                     
   LPAW   =        T    paw PP                                                  
   EAUG   =  644.873                                                            
   DEXC   =    0.000                                                            
   RMAX   =    1.529    core radius for proj-oper                               
   RAUG   =    1.300    factor for augmentation sphere                          
   RDEP   =    1.501    radius for radial grids                                 
   RDEPT  =    1.300    core radius for aug-charge                              
                                                                                
   Atomic configuration                                                         
    4 entries                                                                   
     n  l   j            E        occ.                                          
     1  0  0.50      -273.3789   2.0000                                         
     2  0  0.50       -13.7508   2.0000                                         
     2  1  0.50        -5.2854   2.0000                                         
     3  2  1.50        -5.4423   0.0000                                         
   Description                                                                  
     l       E           TYP  RCUT    TYP  RCUT                                 
     0    -13.7508458     23  1.200                                             
     0     -8.2022199     23  1.200                                             
     1     -5.2854383     23  1.500                                             
     1     34.0145650     23  1.500                                             
     2     -5.4423304      7  1.500                                             
  local pseudopotential read in
  partial core-charges read in
  partial kinetic energy density read in
  atomic valenz-charges read in
  non local Contribution for L=           0  read in
    real space projection operators read in
  non local Contribution for L=           0  read in
    real space projection operators read in
  non local Contribution for L=           1  read in
    real space projection operators read in
  non local Contribution for L=           1  read in
    real space projection operators read in
    PAW grid and wavefunctions read in
 
   number of l-projection  operators is LMAX  =           4
   number of lm-projection operators is LMMAX =           8
 
 POTCAR:    PAW_PBE O 08Apr2002                   
   VRHFIN =O: s2p4                                                              
   LEXCH  = PE                                                                  
   EATOM  =   432.3788 eV,   31.7789 Ry                                         
                                                                                
   TITEL  = PAW_PBE O 08Apr2002                                                 
   LULTRA =        F    use ultrasoft PP ?                                      
   IUNSCR =        1    unscreen: 0-lin 1-nonlin 2-no                           
   RPACOR =    1.200    partial core radius                                     
   POMASS =   16.000; ZVAL   =    6.000    mass and valenz                      
   RCORE  =    1.520    outmost cutoff radius                                   
   RWIGS  =    1.550; RWIGS  =    0.820    wigner-seitz radius (au A)           
   ENMAX  =  400.000; ENMIN  =  300.000 eV                                      
   ICORE  =        2    local potential                                         
   LCOR   =        T    correct aug charges                                     
   LPAW   =        T    paw PP                                                  
   EAUG   =  605.392                                                            
   DEXC   =    0.000                                                            
   RMAX   =    1.553    core radius for proj-oper                               
   RAUG   =    1.300    factor for augmentation sphere                          
   RDEP   =    1.550    radius for radial grids                                 
   RDEPT  =    1.329    core radius for aug-charge                              
                                                                                
   Atomic configuration                                                         
    4 entries                                                                   
     n  l   j            E        occ.                                          
     1  0  0.50      -514.6923   2.0000                                         
     2  0  0.50       -23.9615   2.0000                                         
     2  1  0.50        -9.0305   4.0000                                         
     3  2  1.50        -9.5241   0.0000                                         
   Description                                                                  
     l       E           TYP  RCUT    TYP  RCUT                                 
     0    -23.9615318     23  1.200                                             
     0     -9.5240782     23  1.200                                             
     1     -9.0304911     23  1.520                                             
     1      8.1634956     23  1.520                                             
     2     -9.5240782      7  1.500                                             
  local pseudopotential read in
  partial core-charges read in
  partial kinetic energy density read in
  kinetic energy density of atom read in
  atomic valenz-charges read in
  non local Contribution for L=           0  read in
    real space projection operators read in
  non local Contribution for L=           0  read in
    real space projection operators read in
  non local Contribution for L=           1  read in
    real space projection operators read in
  non local Contribution for L=           1  read in
    real space projection operators read in
    PAW grid and wavefunctions read in
 
   number of l-projection  operators is LMAX  =           4
   number of lm-projection operators is LMMAX =           8
 
  PAW_PBE Cu 22Jun2005                  :
 energy of atom  1       EATOM=-1390.9808
 kinetic energy error for atom=    0.0033 (will be added to EATOM!!)
  PAW_PBE C 08Apr2002                   :
 energy of atom  2       EATOM= -147.1560
 kinetic energy error for atom=    0.0057 (will be added to EATOM!!)
  PAW_PBE O 08Apr2002                   :
 energy of atom  3       EATOM= -432.3788
 kinetic energy error for atom=    0.0168 (will be added to EATOM!!)
 
 
 POSCAR: Cu13 C1 O1                              
  positions in cartesian coordinates
  No initial velocities read in
 exchange correlation table for  LEXCH =        8
   RHO(1)=    0.500       N(1)  =     2000
   RHO(2)=  100.500       N(2)  =     4000
 


--------------------------------------------------------------------------------------------------------


 ion  position               nearest neighbor table
   1  0.294  0.418  0.555-   3 2.39   8 2.42   9 2.46   6 2.51   7 2.53   2 2.55
   2  0.379  0.552  0.496-  10 2.28   4 2.42  11 2.43  13 2.46   8 2.53   9 2.54   1 2.55   7 2.59
                             6 2.71
   3  0.398  0.298  0.567-   6 2.31   1 2.39   7 2.40   5 2.45
   4  0.533  0.509  0.474-   2 2.42  11 2.47   5 2.52  12 2.53   7 2.54  13 2.61   6 2.70
   5  0.546  0.350  0.524-   6 2.36   7 2.44   3 2.45   4 2.52  12 2.68
   6  0.449  0.435  0.615-   3 2.31   5 2.36   9 2.45  13 2.48   1 2.51   4 2.70   2 2.71   7 2.74
                            12 2.78
   7  0.415  0.393  0.440-   3 2.40   5 2.44   1 2.53   4 2.54   2 2.59   6 2.74
   8  0.218  0.560  0.548-   9 2.38   1 2.42   2 2.53  10 2.74
   9  0.331  0.539  0.658-   8 2.38   6 2.45   1 2.46  13 2.51   2 2.54  10 2.55
  10  0.352  0.683  0.570-   2 2.28  13 2.44  11 2.49   9 2.55   8 2.74
  11  0.491  0.668  0.480-  13 2.31   2 2.43   4 2.47  10 2.49
  12  0.628  0.482  0.611-  14 1.82   4 2.53   5 2.68  13 2.78   6 2.78
  13  0.482  0.596  0.616-  11 2.31  10 2.44   2 2.46   6 2.48   9 2.51   4 2.61  12 2.78
  14  0.744  0.490  0.648-  15 1.13  12 1.82
  15  0.817  0.507  0.651-  14 1.13
 

IMPORTANT INFORMATION: All symmetrisations will be switched off!
NOSYMM: (Re-)initialisation of all symmetry stuff for point group C_1.

 
 

Automatic generation of k-mesh.
 generate k-points for:    1    1    1
Space group operators:
 irot       det(A)        alpha          n_x          n_y          n_z        tau_x        tau_y        tau_z
    1     1.000000     0.000000     1.000000     0.000000     0.000000     0.000000     0.000000     0.000000
 
 Subroutine IBZKPT returns following result:
 ===========================================
 
 Found      1 irreducible k-points:
 
 Following reciprocal coordinates:
            Coordinates               Weight
  0.000000  0.000000  0.000000      1.000000
 
 Following cartesian coordinates:
            Coordinates               Weight
  0.000000  0.000000  0.000000      1.000000
 


--------------------------------------------------------------------------------------------------------




 Dimension of arrays:
   k-points           NKPTS =      1   k-points in BZ     NKDIM =      1   number of bands    NBANDS=     92
   number of dos      NEDOS =    301   number of ions     NIONS =     15
   non local maximal  LDIM  =      6   non local SUM 2l+1 LMDIM =     18
   total plane-waves  NPLWV = ******
   max r-space proj   IRMAX =      1   max aug-charges    IRDMAX=  15028
   dimension x,y,z NGX =   120 NGY =  120 NGZ =  120
   dimension x,y,z NGXF=   240 NGYF=  240 NGZF=  240
   support grid    NGXF=   240 NGYF=  240 NGZF=  240
   ions per type =              13   1   1
   NGX,Y,Z   is equivalent  to a cutoff of  13.30, 13.30, 13.30 a.u.
   NGXF,Y,Z  is equivalent  to a cutoff of  26.60, 26.60, 26.60 a.u.

 SYSTEM =  CuCO                                    
 POSCAR =  Cu13 C1 O1                              

 Startparameter for this run:
   NWRITE =      2    write-flag & timer
   PREC   = accura    normal or accurate (medium, high low for compatibility)
   ISTART =      0    job   : 0-new  1-cont  2-samecut
   ICHARG =      2    charge: 1-file 2-atom 10-const
   ISPIN  =      2    spin polarized calculation?
   LNONCOLLINEAR =      F non collinear calculations
   LSORBIT =      F    spin-orbit coupling
   INIWAV =      1    electr: 0-lowe 1-rand  2-diag
   LASPH  =      F    aspherical Exc in radial PAW
   METAGGA=      F    non-selfconsistent MetaGGA calc.

 Electronic Relaxation 1
   ENCUT  =  600.0 eV  44.10 Ry    6.64 a.u.  29.96 29.96 29.96*2*pi/ulx,y,z
   ENINI  =  600.0     initial cutoff
   ENAUG  =  644.9 eV  augmentation charge cutoff
   NELM   =    300;   NELMIN=  3; NELMDL= -5     # of ELM steps 
   EDIFF  = 0.1E-06   stopping-criterion for ELM
   LREAL  =      F    real-space projection
   NLSPLINE    = F    spline interpolate recip. space projectors
   LCOMPAT=      F    compatible to vasp.4.4
   GGA_COMPAT  = T    GGA compatible to vasp.4.4-vasp.4.6
   LMAXPAW     = -100 max onsite density
   LMAXMIX     =    2 max onsite mixed and CHGCAR
   VOSKOWN=      0    Vosko Wilk Nusair interpolation
   ROPT   =    0.00000   0.00000   0.00000
 Ionic relaxation
   EDIFFG = -.1E-02   stopping-criterion for IOM
   NSW    =      0    number of steps for IOM
   NBLOCK =      1;   KBLOCK =      1    inner block; outer block 
   IBRION =     -1    ionic relax: 0-MD 1-quasi-New 2-CG
   NFREE  =      0    steps in history (QN), initial steepest desc. (CG)
   ISIF   =      2    stress and relaxation
   IWAVPR =     10    prediction:  0-non 1-charg 2-wave 3-comb
   ISYM   =      0    0-nonsym 1-usesym 2-fastsym
   LCORR  =      T    Harris-Foulkes like correction to forces

   POTIM  = 0.5000    time-step for ionic-motion
   TEIN   =    0.0    initial temperature
   TEBEG  =    0.0;   TEEND  =   0.0 temperature during run
   SMASS  =  -3.00    Nose mass-parameter (am)
   estimated Nose-frequenzy (Omega)   =  0.10E-29 period in steps =****** mass=  -0.514E-26a.u.
   SCALEE = 1.0000    scale energy and forces
   NPACO  =    256;   APACO  = 16.0  distance and # of slots for P.C.
   PSTRESS=    0.0 pullay stress

  Mass of Ions in am
   POMASS =  63.55 12.01 16.00
  Ionic Valenz
   ZVAL   =  11.00  4.00  6.00
  Atomic Wigner-Seitz radii
   RWIGS  =  -1.00 -1.00 -1.00
  virtual crystal weights 
   VCA    =   1.00  1.00  1.00
   NELECT =     153.0000    total number of electrons
   NUPDOWN=       1.0000    fix difference up-down

 DOS related values:
   EMIN   =  10.00;   EMAX   =-10.00  energy-range for DOS
   EFERMI =   0.00
   ISMEAR =     1;   SIGMA  =   0.10  broadening in eV -4-tet -1-fermi 0-gaus

 Electronic relaxation 2 (details)
   IALGO  =     68    algorithm
   LDIAG  =      T    sub-space diagonalisation (order eigenvalues)
   LSUBROT=      F    optimize rotation matrix (better conditioning)
   TURBO    =      0    0=normal 1=particle mesh
   IRESTART =      0    0=no restart 2=restart with 2 vectors
   NREBOOT  =      0    no. of reboots
   NMIN     =      0    reboot dimension
   EREF     =   0.00    reference energy to select bands
   IMIX   =      4    mixing-type and parameters
     AMIX     =   0.40;   BMIX     =  1.00
     AMIX_MAG =   1.60;   BMIX_MAG =  1.00
     AMIN     =   0.10
     WC   =   100.;   INIMIX=   1;  MIXPRE=   1;  MAXMIX= -45

 Intra band minimization:
   WEIMIN = 0.0000     energy-eigenvalue tresh-hold
   EBREAK =  0.27E-09  absolut break condition
   DEPER  =   0.30     relativ break condition  

   TIME   =   0.40     timestep for ELM

  volume/ion in A,a.u.               =     225.00      1518.37
  Fermi-wavevector in a.u.,A,eV,Ry     =   0.583733  1.103095  4.636102  0.340744
  Thomas-Fermi vector in A             =   1.629149
 
 Write flags
   LWAVE        =      F    write WAVECAR
   LDOWNSAMPLE  =      F    k-point downsampling of WAVECAR
   LCHARG       =      F    write CHGCAR
   LVTOT        =      F    write LOCPOT, total local potential
   LVHAR        =      F    write LOCPOT, Hartree potential only
   LELF         =      F    write electronic localiz. function (ELF)
   LORBIT       =      0    0 simple, 1 ext, 2 COOP (PROOUT), +10 PAW based schemes


 Dipole corrections
   LMONO  =      F    monopole corrections only (constant potential shift)
   LDIPOL =      F    correct potential (dipole corrections)
   IDIPOL =      0    1-x, 2-y, 3-z, 4-all directions 
   EPSILON=  1.0000000 bulk dielectric constant

 Exchange correlation treatment:
   GGA     =    PE    GGA type
   LEXCH   =     8    internal setting for exchange type
   VOSKOWN=      0    Vosko Wilk Nusair interpolation
   LHFCALC =     F    Hartree Fock is set to
   LHFONE  =     F    Hartree Fock one center treatment
   AEXX    =    0.0000 exact exchange contribution

 Linear response parameters
   LEPSILON=     F    determine dielectric tensor
   LRPA    =     F    only Hartree local field effects (RPA)
   LNABLA  =     F    use nabla operator in PAW spheres
   LVEL    =     F    velocity operator in full k-point grid
   LINTERFAST=   F  fast interpolation
   KINTER  =     0    interpolate to denser k-point grid
   CSHIFT  =0.1000    complex shift for real part using Kramers Kronig
   OMEGAMAX=  -1.0    maximum frequency
   DEG_THRESHOLD= 0.2000000E-02 threshold for treating states as degnerate
   RTIME   =   -0.100 relaxation time in fs
  (WPLASMAI=    0.000 imaginary part of plasma frequency in eV, 0.658/RTIME)
   DFIELD  = 0.0000000 0.0000000 0.0000000 field for delta impulse in time
 
 Orbital magnetization related:
   ORBITALMAG=     F  switch on orbital magnetization
   LCHIMAG   =     F  perturbation theory with respect to B field
   DQ        =  0.001000  dq finite difference perturbation B field
   LLRAUG    =     F  two centre corrections for induced B field



--------------------------------------------------------------------------------------------------------


 Static calculation
 charge density and potential will be updated during run
 spin polarized calculation
 RMM-DIIS sequential band-by-band and
  variant of blocked Davidson during initial phase
 perform sub-space diagonalisation
    before iterative eigenvector-optimisation
 modified Broyden-mixing scheme, WC =      100.0
 initial mixing is a Kerker type mixing with AMIX =  0.4000 and BMIX =      1.0000
 Hartree-type preconditioning will be used
 using additional bands           15
 reciprocal scheme for non local part
 use partial core corrections
 calculate Harris-corrections to forces 
   (improved forces if not selfconsistent)
 use gradient corrections 
 use of overlap-Matrix (Vanderbilt PP)
 Methfessel and Paxton  Order N= 1 SIGMA  =   0.10


--------------------------------------------------------------------------------------------------------


  energy-cutoff  :      600.00
  volume of cell :     3375.00
      direct lattice vectors                 reciprocal lattice vectors
    15.000000000  0.000000000  0.000000000     0.066666667  0.000000000  0.000000000
     0.000000000 15.000000000  0.000000000     0.000000000  0.066666667  0.000000000
     0.000000000  0.000000000 15.000000000     0.000000000  0.000000000  0.066666667

  length of vectors
    15.000000000 15.000000000 15.000000000     0.066666667  0.066666667  0.066666667


 
 k-points in units of 2pi/SCALE and weight: read from INCAR                         
   0.00000000  0.00000000  0.00000000       1.000
 
 k-points in reciprocal lattice and weights: read from INCAR                         
   0.00000000  0.00000000  0.00000000       1.000
 
 position of ions in fractional coordinates (direct lattice) 
   0.29355600  0.41760667  0.55461267
   0.37894133  0.55229867  0.49626933
   0.39791267  0.29751133  0.56689867
   0.53321133  0.50940800  0.47438667
   0.54639600  0.34989667  0.52441600
   0.44886200  0.43460200  0.61459867
   0.41477600  0.39301467  0.43971533
   0.21829000  0.56045400  0.54785000
   0.33082800  0.53911200  0.65795200
   0.35214200  0.68278000  0.57010467
   0.49100467  0.66848667  0.48031067
   0.62822200  0.48242733  0.61139000
   0.48199067  0.59631667  0.61578733
   0.74388000  0.49000267  0.64827133
   0.81711333  0.50735067  0.65076867
 
 position of ions in cartesian coordinates  (Angst):
   4.40334000  6.26410000  8.31919000
   5.68412000  8.28448000  7.44404000
   5.96869000  4.46267000  8.50348000
   7.99817000  7.64112000  7.11580000
   8.19594000  5.24845000  7.86624000
   6.73293000  6.51903000  9.21898000
   6.22164000  5.89522000  6.59573000
   3.27435000  8.40681000  8.21775000
   4.96242000  8.08668000  9.86928000
   5.28213000 10.24170000  8.55157000
   7.36507000 10.02730000  7.20466000
   9.42333000  7.23641000  9.17085000
   7.22986000  8.94475000  9.23681000
  11.15820000  7.35004000  9.72407000
  12.25670000  7.61026000  9.76153000
 


--------------------------------------------------------------------------------------------------------


 k-point  1 :   0.0000 0.0000 0.0000  plane waves:  112451

 maximum and minimum number of plane-waves per node :     18753    18726

 maximum number of plane-waves:    112451
 maximum index in each direction: 
   IXMAX=   29   IYMAX=   29   IZMAX=   29
   IXMIN=  -29   IYMIN=  -29   IZMIN=  -29


 parallel 3D FFT for wavefunctions:
    minimum data exchange during FFTs selected (reduces bandwidth)
 parallel 3D FFT for charge:
    minimum data exchange during FFTs selected (reduces bandwidth)


 total amount of memory used by VASP MPI-rank0   158680. kBytes
=======================================================================

   base      :      30000. kBytes
   nonl-proj :      12601. kBytes
   fftplans  :      27994. kBytes
   grid      :      74150. kBytes
   one-center:         93. kBytes
   wavefun   :      13842. kBytes
 
     INWAV:  cpu time    0.0000: real time    0.0001
 Broyden mixing: mesh for mixing (old mesh)
   NGX = 59   NGY = 59   NGZ = 59
  (NGX  =240   NGY  =240   NGZ  =240)
  gives a total of 205379 points

 initial charge density was supplied:
 charge density of overlapping atoms calculated
 number of electron     153.0000000 magnetization       1.0000000
 keeping initial charge density in first step


--------------------------------------------------------------------------------------------------------


 Maximum index for augmentation-charges          712 (set IRDMAX)


--------------------------------------------------------------------------------------------------------


 First call to EWALD:  gamma=   0.118
 Maximum number of real-space cells 3x 3x 3
 Maximum number of reciprocal cells 3x 3x 3

    FEWALD:  cpu time    0.0015: real time    0.0023


--------------------------------------- Iteration      1(   1)  ---------------------------------------


    POTLOK:  cpu time    1.1734: real time    1.1771
    SETDIJ:  cpu time    0.0181: real time    0.0181
     EDDAV:  cpu time    7.5186: real time    7.5245
       DOS:  cpu time    0.0009: real time    0.0009
    --------------------------------------------
      LOOP:  cpu time    8.7110: real time    8.7207

 eigenvalue-minimisations  :   376
 total energy-change (2. order) : 0.1119664E+04  (-0.4458471E+04)
 number of electron     153.0000000 magnetization       1.0000000
 augmentation part      153.0000000 magnetization       1.0000000

 Free energy of the ion-electron system (eV)
  ---------------------------------------------------
  alpha Z        PSCENC =        41.16232785
  Ewald energy   TEWEN  =     16080.87049866
  -Hartree energ DENC   =    -33104.31728407
  -exchange      EXHF   =         0.00000000
  -V(xc)+E(xc)   XCENC  =       623.24306157
  PAW double counting   =     16421.75059358   -17800.06104309
  entropy T*S    EENTRO =         0.01244398
  eigenvalues    EBANDS =       194.78397262
  atomic energy  EATOM  =     18662.21924712
  Solvation  Ediel_sol  =         0.00000000
  ---------------------------------------------------
  free energy    TOTEN  =      1119.66381821 eV

  energy without entropy =     1119.65137424  energy(sigma->0) =     1119.65967022


--------------------------------------------------------------------------------------------------------




--------------------------------------- Iteration      1(   2)  ---------------------------------------


     EDDAV:  cpu time    7.4072: real time    7.4143
       DOS:  cpu time    0.0006: real time    0.0006
    --------------------------------------------
      LOOP:  cpu time    7.4078: real time    7.4149

 eigenvalue-minimisations  :   368
 total energy-change (2. order) :-0.1028663E+04  (-0.9768720E+03)
 number of electron     153.0000000 magnetization       1.0000000
 augmentation part      153.0000000 magnetization       1.0000000

 Free energy of the ion-electron system (eV)
  ---------------------------------------------------
  alpha Z        PSCENC =        41.16232785
  Ewald energy   TEWEN  =     16080.87049866
  -Hartree energ DENC   =    -33104.31728407
  -exchange      EXHF   =         0.00000000
  -V(xc)+E(xc)   XCENC  =       623.24306157
  PAW double counting   =     16421.75059358   -17800.06104309
  entropy T*S    EENTRO =         0.01449629
  eigenvalues    EBANDS =      -833.88085307
  atomic energy  EATOM  =     18662.21924712
  Solvation  Ediel_sol  =         0.00000000
  ---------------------------------------------------
  free energy    TOTEN  =        91.00104483 eV

  energy without entropy =       90.98654855  energy(sigma->0) =       90.99621274


--------------------------------------------------------------------------------------------------------




--------------------------------------- Iteration      1(   3)  ---------------------------------------


     EDDAV:  cpu time   11.8891: real time   11.8976
       DOS:  cpu time    0.0008: real time    0.0008
    --------------------------------------------
      LOOP:  cpu time   11.8899: real time   11.8984

 eigenvalue-minimisations  :   672
 total energy-change (2. order) :-0.1244831E+03  (-0.1167295E+03)
 number of electron     153.0000000 magnetization       1.0000000
 augmentation part      153.0000000 magnetization       1.0000000

 Free energy of the ion-electron system (eV)
  ---------------------------------------------------
  alpha Z        PSCENC =        41.16232785
  Ewald energy   TEWEN  =     16080.87049866
  -Hartree energ DENC   =    -33104.31728407
  -exchange      EXHF   =         0.00000000
  -V(xc)+E(xc)   XCENC  =       623.24306157
  PAW double counting   =     16421.75059358   -17800.06104309
  entropy T*S    EENTRO =         0.01116495
  eigenvalues    EBANDS =      -958.36059205
  atomic energy  EATOM  =     18662.21924712
  Solvation  Ediel_sol  =         0.00000000
  ---------------------------------------------------
  free energy    TOTEN  =       -33.48202549 eV

  energy without entropy =      -33.49319044  energy(sigma->0) =      -33.48574714


--------------------------------------------------------------------------------------------------------




--------------------------------------- Iteration      1(   4)  ---------------------------------------


     EDDAV:  cpu time   10.2638: real time   10.2727
       DOS:  cpu time    0.0008: real time    0.0007
    --------------------------------------------
      LOOP:  cpu time   10.2646: real time   10.2734

 eigenvalue-minimisations  :   560
 total energy-change (2. order) :-0.2211715E+02  (-0.2183674E+02)
 number of electron     153.0000000 magnetization       1.0000000
 augmentation part      153.0000000 magnetization       1.0000000

 Free energy of the ion-electron system (eV)
  ---------------------------------------------------
  alpha Z        PSCENC =        41.16232785
  Ewald energy   TEWEN  =     16080.87049866
  -Hartree energ DENC   =    -33104.31728407
  -exchange      EXHF   =         0.00000000
  -V(xc)+E(xc)   XCENC  =       623.24306157
  PAW double counting   =     16421.75059358   -17800.06104309
  entropy T*S    EENTRO =         0.00854643
  eigenvalues    EBANDS =      -980.47512483
  atomic energy  EATOM  =     18662.21924712
  Solvation  Ediel_sol  =         0.00000000
  ---------------------------------------------------
  free energy    TOTEN  =       -55.59917678 eV

  energy without entropy =      -55.60772321  energy(sigma->0) =      -55.60202559


--------------------------------------------------------------------------------------------------------




--------------------------------------- Iteration      1(   5)  ---------------------------------------


     EDDAV:  cpu time   12.1659: real time   12.1903
       DOS:  cpu time    0.0008: real time    0.0008
    CHARGE:  cpu time    0.6862: real time    0.6867
    MIXING:  cpu time    0.0227: real time    0.0228
    --------------------------------------------
      LOOP:  cpu time   12.8756: real time   12.9005

 eigenvalue-minimisations  :   688
 total energy-change (2. order) :-0.1452483E+01  (-0.1348099E+01)
 number of electron     152.9999995 magnetization       1.0000000
 augmentation part       87.5743105 magnetization       0.3686599

 Broyden mixing:
  rms(total) = 0.23524E+01    rms(broyden)= 0.23523E+01
  rms(prec ) = 0.26992E+01
  weight for this iteration     100.00

 Free energy of the ion-electron system (eV)
  ---------------------------------------------------
  alpha Z        PSCENC =        41.16232785
  Ewald energy   TEWEN  =     16080.87049866
  -Hartree energ DENC   =    -33104.31728407
  -exchange      EXHF   =         0.00000000
  -V(xc)+E(xc)   XCENC  =       623.24306157
  PAW double counting   =     16421.75059358   -17800.06104309
  entropy T*S    EENTRO =         0.00917553
  eigenvalues    EBANDS =      -981.92823678
  atomic energy  EATOM  =     18662.21924712
  Solvation  Ediel_sol  =         0.00000000
  ---------------------------------------------------
  free energy    TOTEN  =       -57.05165964 eV

  energy without entropy =      -57.06083517  energy(sigma->0) =      -57.05471815


--------------------------------------------------------------------------------------------------------




--------------------------------------- Iteration      1(   6)  ---------------------------------------


    POTLOK:  cpu time    1.1621: real time    1.1628
    SETDIJ:  cpu time    0.0190: real time    0.0190
    EDDIAG:  cpu time    1.0852: real time    1.0857
  RMM-DIIS:  cpu time    6.7403: real time    6.7436
    ORTHCH:  cpu time    0.0582: real time    0.0582
       DOS:  cpu time    0.0004: real time    0.0004
    CHARGE:  cpu time    0.6609: real time    0.6615
    MIXING:  cpu time    0.0237: real time    0.0237
    --------------------------------------------
      LOOP:  cpu time    9.7499: real time    9.7551

 eigenvalue-minimisations  :   424
 total energy-change (2. order) : 0.9580479E+00  (-0.1195762E+02)
 number of electron     152.9999995 magnetization       1.0000000
 augmentation part       95.7231402 magnetization       0.0810421

 Broyden mixing:
  rms(total) = 0.15529E+01    rms(broyden)= 0.15527E+01
  rms(prec ) = 0.17883E+01
  weight for this iteration     100.00

 eigenvalues of (default mixing * dielectric matrix)
  average eigenvalue GAMMA=   0.6140
  0.6140

 Free energy of the ion-electron system (eV)
  ---------------------------------------------------
  alpha Z        PSCENC =        41.16232785
  Ewald energy   TEWEN  =     16080.87049866
  -Hartree energ DENC   =    -32857.50799957
  -exchange      EXHF   =         0.00000000
  -V(xc)+E(xc)   XCENC  =       611.17649687
  PAW double counting   =     16699.12840526   -18023.41160134
  entropy T*S    EENTRO =         0.00600524
  eigenvalues    EBANDS =     -1269.73699184
  atomic energy  EATOM  =     18662.21924712
  Solvation  Ediel_sol  =         0.00000000
  ---------------------------------------------------
  free energy    TOTEN  =       -56.09361175 eV

  energy without entropy =      -56.09961700  energy(sigma->0) =      -56.09561350


--------------------------------------------------------------------------------------------------------




--------------------------------------- Iteration      1(   7)  ---------------------------------------


    POTLOK:  cpu time    1.1615: real time    1.1645
    SETDIJ:  cpu time    0.0179: real time    0.0179
    EDDIAG:  cpu time    1.0852: real time    1.0856
  RMM-DIIS:  cpu time    6.0544: real time    6.0575
    ORTHCH:  cpu time    0.0590: real time    0.0591
       DOS:  cpu time    0.0005: real time    0.0005
    CHARGE:  cpu time    0.6465: real time    0.6469
    MIXING:  cpu time    0.0239: real time    0.0239
    --------------------------------------------
      LOOP:  cpu time    9.0488: real time    9.0557

 eigenvalue-minimisations  :   382
 total energy-change (2. order) : 0.7078018E+01  (-0.2488154E+01)
 number of electron     152.9999996 magnetization       1.0000000
 augmentation part       92.9130563 magnetization       0.1090638

 Broyden mixing:
  rms(total) = 0.39692E+00    rms(broyden)= 0.39690E+00
  rms(prec ) = 0.48660E+00
  weight for this iteration     100.00

 eigenvalues of (default mixing * dielectric matrix)
  average eigenvalue GAMMA=   0.9542
  1.2412  0.6671

 Free energy of the ion-electron system (eV)
  ---------------------------------------------------
  alpha Z        PSCENC =        41.16232785
  Ewald energy   TEWEN  =     16080.87049866
  -Hartree energ DENC   =    -32991.62668770
  -exchange      EXHF   =         0.00000000
  -V(xc)+E(xc)   XCENC  =       615.61019101
  PAW double counting   =     17041.65029777   -18415.09849619
  entropy T*S    EENTRO =         0.00641967
  eigenvalues    EBANDS =     -1083.80939226
  atomic energy  EATOM  =     18662.21924712
  Solvation  Ediel_sol  =         0.00000000
  ---------------------------------------------------
  free energy    TOTEN  =       -49.01559408 eV

  energy without entropy =      -49.02201375  energy(sigma->0) =      -49.01773397


--------------------------------------------------------------------------------------------------------




--------------------------------------- Iteration      1(   8)  ---------------------------------------


    POTLOK:  cpu time    1.1600: real time    1.1608
    SETDIJ:  cpu time    0.0184: real time    0.0184
    EDDIAG:  cpu time    1.0858: real time    1.0863
  RMM-DIIS:  cpu time    7.2974: real time    7.3008
    ORTHCH:  cpu time    0.0587: real time    0.0592
       DOS:  cpu time    0.0005: real time    0.0005
    CHARGE:  cpu time    0.6931: real time    0.6936
    MIXING:  cpu time    0.0242: real time    0.0242
    --------------------------------------------
      LOOP:  cpu time   10.3380: real time   10.3439

 eigenvalue-minimisations  :   423
 total energy-change (2. order) : 0.2172198E+00  (-0.4452493E+00)
 number of electron     152.9999996 magnetization       1.0000000
 augmentation part       92.1226878 magnetization       0.1130917

 Broyden mixing:
  rms(total) = 0.32944E+00    rms(broyden)= 0.32942E+00
  rms(prec ) = 0.37267E+00
  weight for this iteration     100.00

 eigenvalues of (default mixing * dielectric matrix)
  average eigenvalue GAMMA=   0.9121
  1.3561  0.6901  0.6901

 Free energy of the ion-electron system (eV)
  ---------------------------------------------------
  alpha Z        PSCENC =        41.16232785
  Ewald energy   TEWEN  =     16080.87049866
  -Hartree energ DENC   =    -33041.13892918
  -exchange      EXHF   =         0.00000000
  -V(xc)+E(xc)   XCENC  =       616.03697316
  PAW double counting   =     17412.94568520   -18806.25996831
  entropy T*S    EENTRO =         0.00700407
  eigenvalues    EBANDS =     -1014.64121279
  atomic energy  EATOM  =     18662.21924712
  Solvation  Ediel_sol  =         0.00000000
  ---------------------------------------------------
  free energy    TOTEN  =       -48.79837423 eV

  energy without entropy =      -48.80537830  energy(sigma->0) =      -48.80070892


--------------------------------------------------------------------------------------------------------




--------------------------------------- Iteration      1(   9)  ---------------------------------------


    POTLOK:  cpu time    1.1593: real time    1.1606
    SETDIJ:  cpu time    0.0173: real time    0.0173
    EDDIAG:  cpu time    1.0874: real time    1.0892
  RMM-DIIS:  cpu time    6.6645: real time    6.6676
    ORTHCH:  cpu time    0.0589: real time    0.0589
       DOS:  cpu time    0.0004: real time    0.0004
    CHARGE:  cpu time    0.6641: real time    0.6645
    MIXING:  cpu time    0.0249: real time    0.0249
    --------------------------------------------
      LOOP:  cpu time    9.6768: real time    9.6835

 eigenvalue-minimisations  :   412
 total energy-change (2. order) : 0.7075481E-01  (-0.1075527E+00)
 number of electron     152.9999996 magnetization       1.0000000
 augmentation part       92.3004469 magnetization       0.0991463

 Broyden mixing:
  rms(total) = 0.18634E+00    rms(broyden)= 0.18633E+00
  rms(prec ) = 0.22082E+00
  weight for this iteration     100.00

 eigenvalues of (default mixing * dielectric matrix)
  average eigenvalue GAMMA=   1.0413
  2.0994  0.7895  0.7895  0.4869

 Free energy of the ion-electron system (eV)
  ---------------------------------------------------
  alpha Z        PSCENC =        41.16232785
  Ewald energy   TEWEN  =     16080.87049866
  -Hartree energ DENC   =    -33038.96201496
  -exchange      EXHF   =         0.00000000
  -V(xc)+E(xc)   XCENC  =       615.63709229
  PAW double counting   =     17503.09955100   -18897.67872860
  entropy T*S    EENTRO =         0.00708378
  eigenvalues    EBANDS =     -1015.08267657
  atomic energy  EATOM  =     18662.21924712
  Solvation  Ediel_sol  =         0.00000000
  ---------------------------------------------------
  free energy    TOTEN  =       -48.72761942 eV

  energy without entropy =      -48.73470320  energy(sigma->0) =      -48.72998068


--------------------------------------------------------------------------------------------------------




--------------------------------------- Iteration      1(  10)  ---------------------------------------


    POTLOK:  cpu time    1.1608: real time    1.1622
    SETDIJ:  cpu time    0.0173: real time    0.0173
    EDDIAG:  cpu time    1.0860: real time    1.0866
  RMM-DIIS:  cpu time    6.7740: real time    6.7772
    ORTHCH:  cpu time    0.0584: real time    0.0584
       DOS:  cpu time    0.0005: real time    0.0005
    CHARGE:  cpu time    0.6617: real time    0.6621
    MIXING:  cpu time    0.0251: real time    0.0251
    --------------------------------------------
      LOOP:  cpu time    9.7838: real time    9.7892

 eigenvalue-minimisations  :   419
 total energy-change (2. order) : 0.6231333E-01  (-0.2136067E-01)
 number of electron     152.9999996 magnetization       1.0000000
 augmentation part       92.5275109 magnetization       0.0858132

 Broyden mixing:
  rms(total) = 0.71245E-01    rms(broyden)= 0.71242E-01
  rms(prec ) = 0.91879E-01
  weight for this iteration     100.00

 eigenvalues of (default mixing * dielectric matrix)
  average eigenvalue GAMMA=   1.0549
  2.1462  1.1048  0.7729  0.7729  0.4780

 Free energy of the ion-electron system (eV)
  ---------------------------------------------------
  alpha Z        PSCENC =        41.16232785
  Ewald energy   TEWEN  =     16080.87049866
  -Hartree energ DENC   =    -33035.84328466
  -exchange      EXHF   =         0.00000000
  -V(xc)+E(xc)   XCENC  =       615.14259499
  PAW double counting   =     17615.40362666   -19011.29251691
  entropy T*S    EENTRO =         0.00682765
  eigenvalues    EBANDS =     -1016.33462746
  atomic energy  EATOM  =     18662.21924712
  Solvation  Ediel_sol  =         0.00000000
  ---------------------------------------------------
  free energy    TOTEN  =       -48.66530609 eV

  energy without entropy =      -48.67213374  energy(sigma->0) =      -48.66758197


--------------------------------------------------------------------------------------------------------




--------------------------------------- Iteration      1(  11)  ---------------------------------------


    POTLOK:  cpu time    1.1606: real time    1.1634
    SETDIJ:  cpu time    0.0176: real time    0.0176
    EDDIAG:  cpu time    1.0855: real time    1.0861
  RMM-DIIS:  cpu time    6.6604: real time    6.6637
    ORTHCH:  cpu time    0.0557: real time    0.0557
       DOS:  cpu time    0.0004: real time    0.0004
    CHARGE:  cpu time    0.6555: real time    0.6557
    MIXING:  cpu time    0.0254: real time    0.0257
    --------------------------------------------
      LOOP:  cpu time    9.6611: real time    9.6684

 eigenvalue-minimisations  :   421
 total energy-change (2. order) : 0.1467354E-01  (-0.8564844E-02)
 number of electron     152.9999996 magnetization       1.0000000
 augmentation part       92.4402793 magnetization       0.0894936

 Broyden mixing:
  rms(total) = 0.42395E-01    rms(broyden)= 0.42390E-01
  rms(prec ) = 0.54704E-01
  weight for this iteration     100.00

 eigenvalues of (default mixing * dielectric matrix)
  average eigenvalue GAMMA=   1.0362
  2.1752  1.4196  0.7813  0.7813  0.5740  0.4857

 Free energy of the ion-electron system (eV)
  ---------------------------------------------------
  alpha Z        PSCENC =        41.16232785
  Ewald energy   TEWEN  =     16080.87049866
  -Hartree energ DENC   =    -33044.64951339
  -exchange      EXHF   =         0.00000000
  -V(xc)+E(xc)   XCENC  =       615.28521904
  PAW double counting   =     17664.57394357   -19062.67048022
  entropy T*S    EENTRO =         0.00708572
  eigenvalues    EBANDS =     -1005.44896089
  atomic energy  EATOM  =     18662.21924712
  Solvation  Ediel_sol  =         0.00000000
  ---------------------------------------------------
  free energy    TOTEN  =       -48.65063255 eV

  energy without entropy =      -48.65771826  energy(sigma->0) =      -48.65299445


--------------------------------------------------------------------------------------------------------




--------------------------------------- Iteration      1(  12)  ---------------------------------------


    POTLOK:  cpu time    1.1615: real time    1.1619
    SETDIJ:  cpu time    0.0173: real time    0.0173
    EDDIAG:  cpu time    1.0864: real time    1.0873
  RMM-DIIS:  cpu time    7.1042: real time    7.1075
    ORTHCH:  cpu time    0.0550: real time    0.0549
       DOS:  cpu time    0.0004: real time    0.0004
    CHARGE:  cpu time    0.6602: real time    0.6605
    MIXING:  cpu time    0.0268: real time    0.0268
    --------------------------------------------
      LOOP:  cpu time   10.1117: real time   10.1166

 eigenvalue-minimisations  :   418
 total energy-change (2. order) : 0.2641772E-02  (-0.2059247E-02)
 number of electron     152.9999996 magnetization       1.0000000
 augmentation part       92.4383003 magnetization       0.0889553

 Broyden mixing:
  rms(total) = 0.20731E-01    rms(broyden)= 0.20731E-01
  rms(prec ) = 0.32595E-01
  weight for this iteration     100.00

 eigenvalues of (default mixing * dielectric matrix)
  average eigenvalue GAMMA=   1.0910
  2.3688  1.7450  1.0895  0.7099  0.7099  0.5521  0.4620

 Free energy of the ion-electron system (eV)
  ---------------------------------------------------
  alpha Z        PSCENC =        41.16232785
  Ewald energy   TEWEN  =     16080.87049866
  -Hartree energ DENC   =    -33047.64018579
  -exchange      EXHF   =         0.00000000
  -V(xc)+E(xc)   XCENC  =       615.32927824
  PAW double counting   =     17671.74822221   -19070.14426013
  entropy T*S    EENTRO =         0.00695546
  eigenvalues    EBANDS =     -1002.20007439
  atomic energy  EATOM  =     18662.21924712
  Solvation  Ediel_sol  =         0.00000000
  ---------------------------------------------------
  free energy    TOTEN  =       -48.64799077 eV

  energy without entropy =      -48.65494624  energy(sigma->0) =      -48.65030926


--------------------------------------------------------------------------------------------------------




--------------------------------------- Iteration      1(  13)  ---------------------------------------


    POTLOK:  cpu time    1.1605: real time    1.1613
    SETDIJ:  cpu time    0.0174: real time    0.0174
    EDDIAG:  cpu time    1.0862: real time    1.0869
  RMM-DIIS:  cpu time    7.1353: real time    7.1390
    ORTHCH:  cpu time    0.0549: real time    0.0549
       DOS:  cpu time    0.0004: real time    0.0004
    CHARGE:  cpu time    0.6578: real time    0.6581
    MIXING:  cpu time    0.0274: real time    0.0274
    --------------------------------------------
      LOOP:  cpu time   10.1400: real time   10.1454

 eigenvalue-minimisations  :   424
 total energy-change (2. order) : 0.1277829E-02  (-0.6587700E-03)
 number of electron     152.9999996 magnetization       1.0000000
 augmentation part       92.4549925 magnetization       0.0890552

 Broyden mixing:
  rms(total) = 0.91995E-02    rms(broyden)= 0.91990E-02
  rms(prec ) = 0.19649E-01
  weight for this iteration     100.00

 eigenvalues of (default mixing * dielectric matrix)
  average eigenvalue GAMMA=   1.1225
  2.4511  1.9501  1.3194  0.7525  0.7525  0.7744  0.5290  0.4508

 Free energy of the ion-electron system (eV)
  ---------------------------------------------------
  alpha Z        PSCENC =        41.16232785
  Ewald energy   TEWEN  =     16080.87049866
  -Hartree energ DENC   =    -33051.92514890
  -exchange      EXHF   =         0.00000000
  -V(xc)+E(xc)   XCENC  =       615.34906617
  PAW double counting   =     17674.53264947   -19072.87303009
  entropy T*S    EENTRO =         0.00699509
  eigenvalues    EBANDS =      -997.98931830
  atomic energy  EATOM  =     18662.21924712
  Solvation  Ediel_sol  =         0.00000000
  ---------------------------------------------------
  free energy    TOTEN  =       -48.64671295 eV

  energy without entropy =      -48.65370803  energy(sigma->0) =      -48.64904464


--------------------------------------------------------------------------------------------------------




--------------------------------------- Iteration      1(  14)  ---------------------------------------


    POTLOK:  cpu time    1.1606: real time    1.1622
    SETDIJ:  cpu time    0.0173: real time    0.0173
    EDDIAG:  cpu time    1.0862: real time    1.0878
  RMM-DIIS:  cpu time    6.6093: real time    6.6121
    ORTHCH:  cpu time    0.0550: real time    0.0555
       DOS:  cpu time    0.0004: real time    0.0004
    CHARGE:  cpu time    0.6567: real time    0.6571
    MIXING:  cpu time    0.0289: real time    0.0289
    --------------------------------------------
      LOOP:  cpu time    9.6143: real time    9.6212

 eigenvalue-minimisations  :   408
 total energy-change (2. order) :-0.1164493E-02  (-0.3400602E-03)
 number of electron     152.9999996 magnetization       1.0000000
 augmentation part       92.4644597 magnetization       0.0892505

 Broyden mixing:
  rms(total) = 0.10896E-01    rms(broyden)= 0.10896E-01
  rms(prec ) = 0.16960E-01
  weight for this iteration     100.00

 eigenvalues of (default mixing * dielectric matrix)
  average eigenvalue GAMMA=   1.1474
  2.4080  2.4080  1.2928  1.0893  0.7370  0.7370  0.6940  0.5064  0.4541

 Free energy of the ion-electron system (eV)
  ---------------------------------------------------
  alpha Z        PSCENC =        41.16232785
  Ewald energy   TEWEN  =     16080.87049866
  -Hartree energ DENC   =    -33056.76101888
  -exchange      EXHF   =         0.00000000
  -V(xc)+E(xc)   XCENC  =       615.38002920
  PAW double counting   =     17668.16328583   -19066.22118335
  entropy T*S    EENTRO =         0.00699014
  eigenvalues    EBANDS =      -993.46805400
  atomic energy  EATOM  =     18662.21924712
  Solvation  Ediel_sol  =         0.00000000
  ---------------------------------------------------
  free energy    TOTEN  =       -48.64787744 eV

  energy without entropy =      -48.65486758  energy(sigma->0) =      -48.65020748


--------------------------------------------------------------------------------------------------------




--------------------------------------- Iteration      1(  15)  ---------------------------------------


    POTLOK:  cpu time    1.1610: real time    1.1659
    SETDIJ:  cpu time    0.0173: real time    0.0173
    EDDIAG:  cpu time    1.0851: real time    1.0862
  RMM-DIIS:  cpu time    6.8048: real time    6.8090
    ORTHCH:  cpu time    0.0573: real time    0.0573
       DOS:  cpu time    0.0004: real time    0.0004
    CHARGE:  cpu time    0.6577: real time    0.6581
    MIXING:  cpu time    0.0289: real time    0.0289
    --------------------------------------------
      LOOP:  cpu time    9.8126: real time    9.8232

 eigenvalue-minimisations  :   413
 total energy-change (2. order) :-0.1361761E-02  (-0.1565631E-03)
 number of electron     152.9999996 magnetization       1.0000000
 augmentation part       92.4611635 magnetization       0.0895954

 Broyden mixing:
  rms(total) = 0.69718E-02    rms(broyden)= 0.69717E-02
  rms(prec ) = 0.11233E-01
  weight for this iteration     100.00

 eigenvalues of (default mixing * dielectric matrix)
  average eigenvalue GAMMA=   1.2114
  2.7402  2.7402  1.4026  1.4026  0.8211  0.7366  0.7366  0.5847  0.4544  0.4947

 Free energy of the ion-electron system (eV)
  ---------------------------------------------------
  alpha Z        PSCENC =        41.16232785
  Ewald energy   TEWEN  =     16080.87049866
  -Hartree energ DENC   =    -33060.35649883
  -exchange      EXHF   =         0.00000000
  -V(xc)+E(xc)   XCENC  =       615.41461845
  PAW double counting   =     17662.06898216   -19059.98825980
  entropy T*S    EENTRO =         0.00700369
  eigenvalues    EBANDS =      -990.04715850
  atomic energy  EATOM  =     18662.21924712
  Solvation  Ediel_sol  =         0.00000000
  ---------------------------------------------------
  free energy    TOTEN  =       -48.64923920 eV

  energy without entropy =      -48.65624289  energy(sigma->0) =      -48.65157376


--------------------------------------------------------------------------------------------------------




--------------------------------------- Iteration      1(  16)  ---------------------------------------


    POTLOK:  cpu time    1.1603: real time    1.1630
    SETDIJ:  cpu time    0.0173: real time    0.0173
    EDDIAG:  cpu time    1.0847: real time    1.0853
  RMM-DIIS:  cpu time    6.7987: real time    6.8029
    ORTHCH:  cpu time    0.0572: real time    0.0573
       DOS:  cpu time    0.0004: real time    0.0004
    CHARGE:  cpu time    0.6618: real time    0.6617
    MIXING:  cpu time    0.0300: real time    0.0303
    --------------------------------------------
      LOOP:  cpu time    9.8104: real time    9.8182

 eigenvalue-minimisations  :   397
 total energy-change (2. order) :-0.1674694E-02  (-0.1316355E-03)
 number of electron     152.9999996 magnetization       1.0000000
 augmentation part       92.4511654 magnetization       0.0898926

 Broyden mixing:
  rms(total) = 0.55012E-02    rms(broyden)= 0.55006E-02
  rms(prec ) = 0.78592E-02
  weight for this iteration     100.00

 eigenvalues of (default mixing * dielectric matrix)
  average eigenvalue GAMMA=   1.2477
  3.3570  2.6254  1.5207  1.5207  0.9791  0.7543  0.7543  0.7283  0.4519  0.5252
  0.5080

 Free energy of the ion-electron system (eV)
  ---------------------------------------------------
  alpha Z        PSCENC =        41.16232785
  Ewald energy   TEWEN  =     16080.87049866
  -Hartree energ DENC   =    -33063.43972127
  -exchange      EXHF   =         0.00000000
  -V(xc)+E(xc)   XCENC  =       615.44700038
  PAW double counting   =     17658.22103575   -19056.13074618
  entropy T*S    EENTRO =         0.00702447
  eigenvalues    EBANDS =      -987.00758068
  atomic energy  EATOM  =     18662.21924712
  Solvation  Ediel_sol  =         0.00000000
  ---------------------------------------------------
  free energy    TOTEN  =       -48.65091389 eV

  energy without entropy =      -48.65793837  energy(sigma->0) =      -48.65325538


--------------------------------------------------------------------------------------------------------




--------------------------------------- Iteration      1(  17)  ---------------------------------------


    POTLOK:  cpu time    1.1615: real time    1.1622
    SETDIJ:  cpu time    0.0174: real time    0.0173
    EDDIAG:  cpu time    1.0980: real time    1.0987
  RMM-DIIS:  cpu time    6.4718: real time    6.4756
    ORTHCH:  cpu time    0.0572: real time    0.0572
       DOS:  cpu time    0.0004: real time    0.0004
    CHARGE:  cpu time    0.6611: real time    0.6618
    MIXING:  cpu time    0.0307: real time    0.0307
    --------------------------------------------
      LOOP:  cpu time    9.4981: real time    9.5041

 eigenvalue-minimisations  :   401
 total energy-change (2. order) :-0.1702995E-02  (-0.4816737E-04)
 number of electron     152.9999996 magnetization       1.0000000
 augmentation part       92.4534268 magnetization       0.0897399

 Broyden mixing:
  rms(total) = 0.23803E-02    rms(broyden)= 0.23802E-02
  rms(prec ) = 0.39874E-02
  weight for this iteration     100.00

 eigenvalues of (default mixing * dielectric matrix)
  average eigenvalue GAMMA=   1.3548
  4.5246  2.5792  2.0826  1.3174  1.3174  0.7630  0.7630  0.7895  0.6509  0.4527
  0.5263  0.4905

 Free energy of the ion-electron system (eV)
  ---------------------------------------------------
  alpha Z        PSCENC =        41.16232785
  Ewald energy   TEWEN  =     16080.87049866
  -Hartree energ DENC   =    -33065.10019963
  -exchange      EXHF   =         0.00000000
  -V(xc)+E(xc)   XCENC  =       615.45369190
  PAW double counting   =     17656.37816452   -19054.25831646
  entropy T*S    EENTRO =         0.00702796
  eigenvalues    EBANDS =      -985.38505880
  atomic energy  EATOM  =     18662.21924712
  Solvation  Ediel_sol  =         0.00000000
  ---------------------------------------------------
  free energy    TOTEN  =       -48.65261689 eV

  energy without entropy =      -48.65964484  energy(sigma->0) =      -48.65495954


--------------------------------------------------------------------------------------------------------




--------------------------------------- Iteration      1(  18)  ---------------------------------------


    POTLOK:  cpu time    1.1649: real time    1.1654
    SETDIJ:  cpu time    0.0169: real time    0.0169
    EDDIAG:  cpu time    1.0841: real time    1.0853
  RMM-DIIS:  cpu time    6.5332: real time    6.5371
    ORTHCH:  cpu time    0.0570: real time    0.0571
       DOS:  cpu time    0.0004: real time    0.0004
    CHARGE:  cpu time    0.6576: real time    0.6581
    MIXING:  cpu time    0.0319: real time    0.0319
    --------------------------------------------
      LOOP:  cpu time    9.5460: real time    9.5521

 eigenvalue-minimisations  :   400
 total energy-change (2. order) :-0.9242577E-03  (-0.1978165E-04)
 number of electron     152.9999996 magnetization       1.0000000
 augmentation part       92.4535511 magnetization       0.0898050

 Broyden mixing:
  rms(total) = 0.13535E-02    rms(broyden)= 0.13535E-02
  rms(prec ) = 0.25569E-02
  weight for this iteration     100.00

 eigenvalues of (default mixing * dielectric matrix)
  average eigenvalue GAMMA=   1.3843
  5.1692  2.6529  2.2412  1.3363  1.3363  0.8567  0.8567  0.7496  0.7496  0.5897
  0.4530  0.5156  0.4888

 Free energy of the ion-electron system (eV)
  ---------------------------------------------------
  alpha Z        PSCENC =        41.16232785
  Ewald energy   TEWEN  =     16080.87049866
  -Hartree energ DENC   =    -33065.98284174
  -exchange      EXHF   =         0.00000000
  -V(xc)+E(xc)   XCENC  =       615.45536640
  PAW double counting   =     17656.18365401   -19054.07426813
  entropy T*S    EENTRO =         0.00702790
  eigenvalues    EBANDS =      -984.49455321
  atomic energy  EATOM  =     18662.21924712
  Solvation  Ediel_sol  =         0.00000000
  ---------------------------------------------------
  free energy    TOTEN  =       -48.65354115 eV

  energy without entropy =      -48.66056904  energy(sigma->0) =      -48.65588378


--------------------------------------------------------------------------------------------------------




--------------------------------------- Iteration      1(  19)  ---------------------------------------


    POTLOK:  cpu time    1.1631: real time    1.1667
    SETDIJ:  cpu time    0.0172: real time    0.0172
    EDDIAG:  cpu time    1.0839: real time    1.0846
  RMM-DIIS:  cpu time    7.0233: real time    7.0265
    ORTHCH:  cpu time    0.0577: real time    0.0577
       DOS:  cpu time    0.0004: real time    0.0004
    CHARGE:  cpu time    0.6615: real time    0.6619
    MIXING:  cpu time    0.0337: real time    0.0337
    --------------------------------------------
      LOOP:  cpu time   10.0408: real time   10.0487

 eigenvalue-minimisations  :   440
 total energy-change (2. order) :-0.8279349E-03  (-0.1110994E-04)
 number of electron     152.9999996 magnetization       1.0000000
 augmentation part       92.4537685 magnetization       0.0899029

 Broyden mixing:
  rms(total) = 0.10217E-02    rms(broyden)= 0.10217E-02
  rms(prec ) = 0.17780E-02
  weight for this iteration     100.00

 eigenvalues of (default mixing * dielectric matrix)
  average eigenvalue GAMMA=   1.4609
  5.9634  2.8243  2.2716  1.5978  1.5978  1.1702  0.8380  0.7547  0.7547  0.6725
  0.5620  0.4525  0.5078  0.4853

 Free energy of the ion-electron system (eV)
  ---------------------------------------------------
  alpha Z        PSCENC =        41.16232785
  Ewald energy   TEWEN  =     16080.87049866
  -Hartree energ DENC   =    -33066.45504216
  -exchange      EXHF   =         0.00000000
  -V(xc)+E(xc)   XCENC  =       615.45354134
  PAW double counting   =     17656.49690313   -19054.39879978
  entropy T*S    EENTRO =         0.00702597
  eigenvalues    EBANDS =      -984.01007120
  atomic energy  EATOM  =     18662.21924712
  Solvation  Ediel_sol  =         0.00000000
  ---------------------------------------------------
  free energy    TOTEN  =       -48.65436908 eV

  energy without entropy =      -48.66139505  energy(sigma->0) =      -48.65671107


--------------------------------------------------------------------------------------------------------




--------------------------------------- Iteration      1(  20)  ---------------------------------------


    POTLOK:  cpu time    1.1627: real time    1.1632
    SETDIJ:  cpu time    0.0174: real time    0.0174
    EDDIAG:  cpu time    1.0848: real time    1.0853
  RMM-DIIS:  cpu time    6.6208: real time    6.6241
    ORTHCH:  cpu time    0.0570: real time    0.0571
       DOS:  cpu time    0.0004: real time    0.0004
    CHARGE:  cpu time    0.6596: real time    0.6598
    MIXING:  cpu time    0.0352: real time    0.0352
    --------------------------------------------
      LOOP:  cpu time    9.6380: real time    9.6426

 eigenvalue-minimisations  :   409
 total energy-change (2. order) :-0.5479969E-03  (-0.4757439E-05)
 number of electron     152.9999996 magnetization       1.0000000
 augmentation part       92.4541067 magnetization       0.0898645

 Broyden mixing:
  rms(total) = 0.66635E-03    rms(broyden)= 0.66634E-03
  rms(prec ) = 0.11760E-02
  weight for this iteration     100.00

 eigenvalues of (default mixing * dielectric matrix)
  average eigenvalue GAMMA=   1.4823
  6.3943  2.9149  2.3488  2.0476  1.3219  1.3219  0.8776  0.8776  0.7488  0.7488
  0.6397  0.4526  0.5368  0.5185  0.4849

 Free energy of the ion-electron system (eV)
  ---------------------------------------------------
  alpha Z        PSCENC =        41.16232785
  Ewald energy   TEWEN  =     16080.87049866
  -Hartree energ DENC   =    -33066.61300333
  -exchange      EXHF   =         0.00000000
  -V(xc)+E(xc)   XCENC  =       615.45205291
  PAW double counting   =     17656.80256335   -19054.70935884
  entropy T*S    EENTRO =         0.00702403
  eigenvalues    EBANDS =      -983.84626882
  atomic energy  EATOM  =     18662.21924712
  Solvation  Ediel_sol  =         0.00000000
  ---------------------------------------------------
  free energy    TOTEN  =       -48.65491708 eV

  energy without entropy =      -48.66194110  energy(sigma->0) =      -48.65725842


--------------------------------------------------------------------------------------------------------




--------------------------------------- Iteration      1(  21)  ---------------------------------------


    POTLOK:  cpu time    1.1618: real time    1.1625
    SETDIJ:  cpu time    0.0173: real time    0.0173
    EDDIAG:  cpu time    1.0845: real time    1.0851
  RMM-DIIS:  cpu time    6.5655: real time    6.5685
    ORTHCH:  cpu time    0.0562: real time    0.0562
       DOS:  cpu time    0.0004: real time    0.0004
    CHARGE:  cpu time    0.6565: real time    0.6570
    MIXING:  cpu time    0.0369: real time    0.0369
    --------------------------------------------
      LOOP:  cpu time    9.5791: real time    9.5839

 eigenvalue-minimisations  :   399
 total energy-change (2. order) :-0.4091507E-03  (-0.2867516E-05)
 number of electron     152.9999996 magnetization       1.0000000
 augmentation part       92.4545318 magnetization       0.0898211

 Broyden mixing:
  rms(total) = 0.50125E-03    rms(broyden)= 0.50124E-03
  rms(prec ) = 0.80637E-03
  weight for this iteration     100.00

 eigenvalues of (default mixing * dielectric matrix)
  average eigenvalue GAMMA=   1.5209
  6.7556  3.3101  2.4728  2.2444  1.4186  1.4186  0.9615  0.9615  0.7500  0.7500
  0.6822  0.6232  0.4527  0.5349  0.5139  0.4847

 Free energy of the ion-electron system (eV)
  ---------------------------------------------------
  alpha Z        PSCENC =        41.16232785
  Ewald energy   TEWEN  =     16080.87049866
  -Hartree energ DENC   =    -33066.61916265
  -exchange      EXHF   =         0.00000000
  -V(xc)+E(xc)   XCENC  =       615.45115371
  PAW double counting   =     17656.98281256   -19054.88879333
  entropy T*S    EENTRO =         0.00702133
  eigenvalues    EBANDS =      -983.84043147
  atomic energy  EATOM  =     18662.21924712
  Solvation  Ediel_sol  =         0.00000000
  ---------------------------------------------------
  free energy    TOTEN  =       -48.65532623 eV

  energy without entropy =      -48.66234756  energy(sigma->0) =      -48.65766667


--------------------------------------------------------------------------------------------------------




--------------------------------------- Iteration      1(  22)  ---------------------------------------


    POTLOK:  cpu time    1.1613: real time    1.1623
    SETDIJ:  cpu time    0.0168: real time    0.0167
    EDDIAG:  cpu time    1.0844: real time    1.0849
  RMM-DIIS:  cpu time    6.5752: real time    6.5785
    ORTHCH:  cpu time    0.0565: real time    0.0565
       DOS:  cpu time    0.0004: real time    0.0004
    CHARGE:  cpu time    0.6600: real time    0.6603
    MIXING:  cpu time    0.0388: real time    0.0388
    --------------------------------------------
      LOOP:  cpu time    9.5933: real time    9.5984

 eigenvalue-minimisations  :   399
 total energy-change (2. order) :-0.2372511E-03  (-0.1791191E-05)
 number of electron     152.9999996 magnetization       1.0000000
 augmentation part       92.4542382 magnetization       0.0898079

 Broyden mixing:
  rms(total) = 0.31917E-03    rms(broyden)= 0.31916E-03
  rms(prec ) = 0.54400E-03
  weight for this iteration     100.00

 eigenvalues of (default mixing * dielectric matrix)
  average eigenvalue GAMMA=   1.5728
  7.1755  4.0714  2.4788  2.2110  1.6709  1.3032  1.3032  0.8984  0.8984  0.7559
  0.7559  0.6630  0.4526  0.5645  0.5401  0.4848  0.5105

 Free energy of the ion-electron system (eV)
  ---------------------------------------------------
  alpha Z        PSCENC =        41.16232785
  Ewald energy   TEWEN  =     16080.87049866
  -Hartree energ DENC   =    -33066.68646086
  -exchange      EXHF   =         0.00000000
  -V(xc)+E(xc)   XCENC  =       615.45102026
  PAW double counting   =     17657.11041565   -19055.01919473
  entropy T*S    EENTRO =         0.00702336
  eigenvalues    EBANDS =      -983.77044078
  atomic energy  EATOM  =     18662.21924712
  Solvation  Ediel_sol  =         0.00000000
  ---------------------------------------------------
  free energy    TOTEN  =       -48.65556348 eV

  energy without entropy =      -48.66258684  energy(sigma->0) =      -48.65790460


--------------------------------------------------------------------------------------------------------




--------------------------------------- Iteration      1(  23)  ---------------------------------------


    POTLOK:  cpu time    1.1627: real time    1.1661
    SETDIJ:  cpu time    0.0175: real time    0.0175
    EDDIAG:  cpu time    1.0843: real time    1.0848
  RMM-DIIS:  cpu time    6.8362: real time    6.8401
    ORTHCH:  cpu time    0.0585: real time    0.0586
       DOS:  cpu time    0.0004: real time    0.0004
    CHARGE:  cpu time    0.6547: real time    0.6550
    MIXING:  cpu time    0.0413: real time    0.0413
    --------------------------------------------
      LOOP:  cpu time    9.8556: real time    9.8638

 eigenvalue-minimisations  :   414
 total energy-change (2. order) :-0.1102574E-03  (-0.6684006E-06)
 number of electron     152.9999996 magnetization       1.0000000
 augmentation part       92.4539624 magnetization       0.0898296

 Broyden mixing:
  rms(total) = 0.18410E-03    rms(broyden)= 0.18409E-03
  rms(prec ) = 0.31455E-03
  weight for this iteration     100.00

 eigenvalues of (default mixing * dielectric matrix)
  average eigenvalue GAMMA=   1.5762
  7.4308  4.3252  2.4926  2.2003  1.9402  1.3213  1.3213  0.9415  0.9415  0.7575
  0.7575  0.7333  0.6708  0.4526  0.5653  0.4844  0.5179  0.5179

 Free energy of the ion-electron system (eV)
  ---------------------------------------------------
  alpha Z        PSCENC =        41.16232785
  Ewald energy   TEWEN  =     16080.87049866
  -Hartree energ DENC   =    -33066.76203970
  -exchange      EXHF   =         0.00000000
  -V(xc)+E(xc)   XCENC  =       615.45091221
  PAW double counting   =     17657.10989791   -19055.01972965
  entropy T*S    EENTRO =         0.00702361
  eigenvalues    EBANDS =      -983.69381175
  atomic energy  EATOM  =     18662.21924712
  Solvation  Ediel_sol  =         0.00000000
  ---------------------------------------------------
  free energy    TOTEN  =       -48.65567374 eV

  energy without entropy =      -48.66269735  energy(sigma->0) =      -48.65801494


--------------------------------------------------------------------------------------------------------




--------------------------------------- Iteration      1(  24)  ---------------------------------------


    POTLOK:  cpu time    1.1630: real time    1.1642
    SETDIJ:  cpu time    0.0178: real time    0.0178
    EDDIAG:  cpu time    1.0860: real time    1.0872
  RMM-DIIS:  cpu time    6.2633: real time    6.2664
    ORTHCH:  cpu time    0.0575: real time    0.0575
       DOS:  cpu time    0.0004: real time    0.0004
    CHARGE:  cpu time    0.6558: real time    0.6561
    MIXING:  cpu time    0.0426: real time    0.0428
    --------------------------------------------
      LOOP:  cpu time    9.2863: real time    9.2923

 eigenvalue-minimisations  :   392
 total energy-change (2. order) :-0.9819858E-04  (-0.6746477E-06)
 number of electron     152.9999996 magnetization       1.0000000
 augmentation part       92.4539306 magnetization       0.0898248

 Broyden mixing:
  rms(total) = 0.13686E-03    rms(broyden)= 0.13686E-03
  rms(prec ) = 0.22253E-03
  weight for this iteration     100.00

 eigenvalues of (default mixing * dielectric matrix)
  average eigenvalue GAMMA=   1.6212
  7.7711  4.7354  2.5195  2.5195  1.9329  1.4929  1.4929  1.0658  1.0658  0.8292
  0.7634  0.7634  0.7033  0.6125  0.4526  0.4848  0.5574  0.5115  0.5297

 Free energy of the ion-electron system (eV)
  ---------------------------------------------------
  alpha Z        PSCENC =        41.16232785
  Ewald energy   TEWEN  =     16080.87049866
  -Hartree energ DENC   =    -33066.77567006
  -exchange      EXHF   =         0.00000000
  -V(xc)+E(xc)   XCENC  =       615.45091577
  PAW double counting   =     17657.03028207   -19054.93875854
  entropy T*S    EENTRO =         0.00702370
  eigenvalues    EBANDS =      -983.68163851
  atomic energy  EATOM  =     18662.21924712
  Solvation  Ediel_sol  =         0.00000000
  ---------------------------------------------------
  free energy    TOTEN  =       -48.65577193 eV

  energy without entropy =      -48.66279564  energy(sigma->0) =      -48.65811317


--------------------------------------------------------------------------------------------------------




--------------------------------------- Iteration      1(  25)  ---------------------------------------


    POTLOK:  cpu time    1.1608: real time    1.1614
    SETDIJ:  cpu time    0.0173: real time    0.0173
    EDDIAG:  cpu time    1.0837: real time    1.0845
  RMM-DIIS:  cpu time    6.3221: real time    6.3253
    ORTHCH:  cpu time    0.0579: real time    0.0579
       DOS:  cpu time    0.0004: real time    0.0004
    CHARGE:  cpu time    0.6562: real time    0.6564
    MIXING:  cpu time    0.0452: real time    0.0454
    --------------------------------------------
      LOOP:  cpu time    9.3437: real time    9.3485

 eigenvalue-minimisations  :   392
 total energy-change (2. order) :-0.6260348E-04  (-0.5752129E-06)
 number of electron     152.9999996 magnetization       1.0000000
 augmentation part       92.4540353 magnetization       0.0898267

 Broyden mixing:
  rms(total) = 0.82862E-04    rms(broyden)= 0.82851E-04
  rms(prec ) = 0.13615E-03
  weight for this iteration     100.00

 eigenvalues of (default mixing * dielectric matrix)
  average eigenvalue GAMMA=   1.6525
  7.9738  5.1967  2.7733  2.6687  1.8958  1.8958  1.3096  1.3096  0.9449  0.9449
  0.7601  0.7601  0.7232  0.7232  0.6291  0.4526  0.4845  0.5624  0.5154  0.5263

 Free energy of the ion-electron system (eV)
  ---------------------------------------------------
  alpha Z        PSCENC =        41.16232785
  Ewald energy   TEWEN  =     16080.87049866
  -Hartree energ DENC   =    -33066.76986851
  -exchange      EXHF   =         0.00000000
  -V(xc)+E(xc)   XCENC  =       615.45084748
  PAW double counting   =     17656.93487469   -19054.84057917
  entropy T*S    EENTRO =         0.00702350
  eigenvalues    EBANDS =      -983.69020615
  atomic energy  EATOM  =     18662.21924712
  Solvation  Ediel_sol  =         0.00000000
  ---------------------------------------------------
  free energy    TOTEN  =       -48.65583454 eV

  energy without entropy =      -48.66285804  energy(sigma->0) =      -48.65817570


--------------------------------------------------------------------------------------------------------




--------------------------------------- Iteration      1(  26)  ---------------------------------------


    POTLOK:  cpu time    1.1606: real time    1.1610
    SETDIJ:  cpu time    0.0175: real time    0.0175
    EDDIAG:  cpu time    1.0845: real time    1.0850
  RMM-DIIS:  cpu time    5.5455: real time    5.5483
    ORTHCH:  cpu time    0.0576: real time    0.0576
       DOS:  cpu time    0.0004: real time    0.0004
    CHARGE:  cpu time    0.6560: real time    0.6563
    MIXING:  cpu time    0.0476: real time    0.0476
    --------------------------------------------
      LOOP:  cpu time    8.5697: real time    8.5737

 eigenvalue-minimisations  :   341
 total energy-change (2. order) :-0.2608338E-04  (-0.2388483E-06)
 number of electron     152.9999996 magnetization       1.0000000
 augmentation part       92.4542396 magnetization       0.0898264

 Broyden mixing:
  rms(total) = 0.70459E-04    rms(broyden)= 0.70458E-04
  rms(prec ) = 0.99582E-04
  weight for this iteration     100.00

 eigenvalues of (default mixing * dielectric matrix)
  average eigenvalue GAMMA=   1.6506
  8.0600  5.4651  3.0347  2.5852  1.9360  1.9360  1.3664  1.3664  1.0335  1.0335
  0.7793  0.7793  0.7398  0.7398  0.6333  0.6333  0.4526  0.5644  0.4847  0.5263
  0.5124

 Free energy of the ion-electron system (eV)
  ---------------------------------------------------
  alpha Z        PSCENC =        41.16232785
  Ewald energy   TEWEN  =     16080.87049866
  -Hartree energ DENC   =    -33066.76397555
  -exchange      EXHF   =         0.00000000
  -V(xc)+E(xc)   XCENC  =       615.45066105
  PAW double counting   =     17656.89199720   -19054.79546943
  entropy T*S    EENTRO =         0.00702342
  eigenvalues    EBANDS =      -983.69817094
  atomic energy  EATOM  =     18662.21924712
  Solvation  Ediel_sol  =         0.00000000
  ---------------------------------------------------
  free energy    TOTEN  =       -48.65586062 eV

  energy without entropy =      -48.66288404  energy(sigma->0) =      -48.65820176


--------------------------------------------------------------------------------------------------------




--------------------------------------- Iteration      1(  27)  ---------------------------------------


    POTLOK:  cpu time    1.1611: real time    1.1643
    SETDIJ:  cpu time    0.0174: real time    0.0174
    EDDIAG:  cpu time    1.0847: real time    1.0855
  RMM-DIIS:  cpu time    4.7904: real time    4.7926
    ORTHCH:  cpu time    0.0574: real time    0.0575
       DOS:  cpu time    0.0004: real time    0.0004
    CHARGE:  cpu time    0.6543: real time    0.6547
    MIXING:  cpu time    0.0509: real time    0.0509
    --------------------------------------------
      LOOP:  cpu time    7.8165: real time    7.8232

 eigenvalue-minimisations  :   284
 total energy-change (2. order) :-0.1127323E-04  (-0.1033130E-06)
 number of electron     152.9999996 magnetization       1.0000000
 augmentation part       92.4540790 magnetization       0.0898132

 Broyden mixing:
  rms(total) = 0.57208E-04    rms(broyden)= 0.57206E-04
  rms(prec ) = 0.77898E-04
  weight for this iteration     100.00

 eigenvalues of (default mixing * dielectric matrix)
  average eigenvalue GAMMA=   1.6427
  8.1268  5.7551  3.2402  2.5271  2.0502  1.9670  1.4353  1.4353  1.0058  1.0058
  0.8211  0.8211  0.7534  0.7534  0.6828  0.4526  0.6093  0.6093  0.5663  0.4847
  0.5184  0.5184

 Free energy of the ion-electron system (eV)
  ---------------------------------------------------
  alpha Z        PSCENC =        41.16232785
  Ewald energy   TEWEN  =     16080.87049866
  -Hartree energ DENC   =    -33066.76977263
  -exchange      EXHF   =         0.00000000
  -V(xc)+E(xc)   XCENC  =       615.45077129
  PAW double counting   =     17656.89672779   -19054.80167916
  entropy T*S    EENTRO =         0.00702339
  eigenvalues    EBANDS =      -983.69101620
  atomic energy  EATOM  =     18662.21924712
  Solvation  Ediel_sol  =         0.00000000
  ---------------------------------------------------
  free energy    TOTEN  =       -48.65587189 eV

  energy without entropy =      -48.66289528  energy(sigma->0) =      -48.65821302


--------------------------------------------------------------------------------------------------------




--------------------------------------- Iteration      1(  28)  ---------------------------------------


    POTLOK:  cpu time    1.1609: real time    1.1614
    SETDIJ:  cpu time    0.0173: real time    0.0173
    EDDIAG:  cpu time    1.0836: real time    1.0843
  RMM-DIIS:  cpu time    4.4330: real time    4.4352
    ORTHCH:  cpu time    0.0576: real time    0.0576
       DOS:  cpu time    0.0004: real time    0.0004
    CHARGE:  cpu time    0.6544: real time    0.6550
[...]
     66      -4.8762      1.00000
     67      -4.8648      1.00000
     68      -4.8298      1.00000
     69      -4.8153      1.00000
     70      -4.7837      1.00000
     71      -4.7708      1.00000
     72      -4.7144      1.00000
     73      -4.6651      1.00000
     74      -4.4930      1.00000
     75      -4.1709      1.00000
     76      -4.0272      1.00000
     77      -3.5260      1.00000
     78      -3.0030     -0.00000
     79      -2.8791     -0.00000
     80      -2.4906     -0.00000
     81      -2.2737     -0.00000
     82      -1.8964     -0.00000
     83      -1.7966     -0.00000
     84      -1.6859     -0.00000
     85      -1.3969     -0.00000
     86      -1.0972     -0.00000
     87      -0.8878     -0.00000
     88      -0.7708     -0.00000
     89      -0.4061      0.00000
     90      -0.1862      0.00000
     91      -0.0570      0.00000
     92       0.0393      0.00000

 spin component 2

 k-point     1 :       0.0000    0.0000    0.0000
  band No.  band energies     occupation 
      1     -29.0264      1.00000
      2     -13.8895      1.00000
      3     -11.6234      1.00000
      4     -11.5202      1.00000
      5     -11.1184      1.00000
      6      -9.9894      1.00000
      7      -8.5344      1.00000
      8      -8.0708      1.00000
      9      -7.5378      1.00000
     10      -7.4427      1.00000
     11      -7.2955      1.00000
     12      -7.1322      1.00000
     13      -7.0986      1.00000
     14      -7.0073      1.00000
     15      -6.8970      1.00000
     16      -6.7943      1.00000
     17      -6.7448      1.00000
     18      -6.6464      1.00000
     19      -6.5708      1.00000
     20      -6.5187      1.00000
     21      -6.4839      1.00000
     22      -6.4315      1.00000
     23      -6.4035      1.00000
     24      -6.3679      1.00000
     25      -6.3308      1.00000
     26      -6.2829      1.00000
     27      -6.2587      1.00000
     28      -6.2520      1.00000
     29      -6.1961      1.00000
     30      -6.1576      1.00000
     31      -6.1213      1.00000
     32      -6.0978      1.00000
     33      -5.9748      1.00000
     34      -5.9317      1.00000
     35      -5.8765      1.00000
     36      -5.7623      1.00000
     37      -5.6894      1.00000
     38      -5.6804      1.00000
     39      -5.6443      1.00000
     40      -5.5707      1.00000
     41      -5.5050      1.00000
     42      -5.4716      1.00000
     43      -5.4341      1.00000
     44      -5.4238      1.00000
     45      -5.3671      1.00000
     46      -5.3153      1.00000
     47      -5.3066      1.00000
     48      -5.2925      1.00000
     49      -5.2795      1.00000
     50      -5.2608      1.00000
     51      -5.2224      1.00000
     52      -5.1942      1.00000
     53      -5.1711      1.00000
     54      -5.1613      1.00000
     55      -5.1084      1.00000
     56      -5.0860      1.00000
     57      -5.0766      1.00000
     58      -5.0551      1.00000
     59      -5.0258      1.00000
     60      -5.0003      1.00000
     61      -4.9725      1.00000
     62      -4.9565      1.00000
     63      -4.9475      1.00000
     64      -4.9080      1.00000
     65      -4.8672      1.00000
     66      -4.8450      1.00000
     67      -4.8293      1.00000
     68      -4.8028      1.00000
     69      -4.7843      1.00000
     70      -4.7501      1.00000
     71      -4.7336      1.00000
     72      -4.6917      1.00000
     73      -4.6314      1.00000
     74      -4.4481      1.00000
     75      -4.1041      1.00864
     76      -3.9871      0.99136
     77      -3.3294     -0.00000
     78      -2.9506     -0.00000
     79      -2.8291     -0.00000
     80      -2.4143     -0.00000
     81      -2.1921     -0.00000
     82      -1.8622     -0.00000
     83      -1.7145     -0.00000
     84      -1.6235     -0.00000
     85      -1.2877     -0.00000
     86      -0.9393      0.00000
     87      -0.8340      0.00000
     88      -0.6978      0.00000
     89      -0.2907      0.00000
     90      -0.1303      0.00000
     91       0.0051      0.00000
     92       0.0925      0.00000


--------------------------------------------------------------------------------------------------------


 soft charge-density along one line, spin component           1
         0         1         2         3         4         5         6         7         8         9
 total charge-density along one line
 
 soft charge-density along one line, spin component           2
         0         1         2         3         4         5         6         7         8         9
 total charge-density along one line
 
 pseudopotential strength for first ion, spin component:           1
-10.511  -0.001  -0.022  -0.001  -0.007   1.017   0.001   0.019
 -0.001 -10.487  -0.010   0.014   0.007   0.001   0.999   0.007
 -0.022  -0.010 -10.468   0.003  -0.011   0.019   0.007   0.983
 -0.001   0.014   0.003 -10.470  -0.003   0.001  -0.013  -0.002
 -0.007   0.007  -0.011  -0.003 -10.489   0.006  -0.005   0.009
  1.017   0.001   0.019   0.001   0.006   6.291  -0.000  -0.014
  0.001   0.999   0.007  -0.013  -0.005  -0.000   6.301  -0.005
  0.019   0.007   0.983  -0.002   0.009  -0.014  -0.005   6.313
  0.001  -0.013  -0.002   0.985   0.003  -0.000   0.011   0.002
  0.006  -0.005   0.009   0.003   1.001  -0.004   0.003  -0.007
 -0.008   0.001  -0.005   0.000  -0.004   0.005   0.001  -0.000
 -0.016   0.002  -0.009   0.000  -0.007   0.009   0.001  -0.001
 -0.012  -0.001   0.005  -0.000   0.009   0.008   0.002  -0.003
 -0.000  -0.007  -0.002  -0.012  -0.000   0.000   0.005   0.001
 -0.006  -0.000   0.007  -0.002  -0.012   0.003   0.000  -0.006
 -0.013  -0.001   0.005  -0.000   0.010   0.008   0.002  -0.004
 -0.000  -0.007  -0.002  -0.012  -0.000   0.001   0.005   0.002
 -0.006  -0.000   0.008  -0.002  -0.013   0.001   0.001  -0.006
 pseudopotential strength for first ion, spin component:           2
-10.465  -0.000  -0.014  -0.011   0.004   0.980  -0.000   0.011
 -0.000 -10.473  -0.010   0.013   0.006  -0.000   0.987   0.007
 -0.014  -0.010 -10.454   0.002  -0.009   0.011   0.007   0.971
 -0.011   0.013   0.002 -10.454  -0.005   0.008  -0.010  -0.001
  0.004   0.006  -0.009  -0.005 -10.475  -0.003  -0.005   0.007
  0.980  -0.000   0.011   0.008  -0.003   6.315   0.001  -0.007
 -0.000   0.987   0.007  -0.010  -0.005   0.001   6.309  -0.005
  0.011   0.007   0.971  -0.001   0.007  -0.007  -0.005   6.320
  0.008  -0.010  -0.001   0.971   0.004  -0.005   0.007   0.001
 -0.003  -0.005   0.007   0.004   0.988   0.002   0.003  -0.005
 -0.004   0.003  -0.002  -0.000  -0.003   0.001   0.000  -0.001
 -0.008   0.005  -0.004  -0.001  -0.005   0.001   0.001  -0.003
 -0.013  -0.001   0.006   0.000   0.008   0.011   0.001  -0.005
  0.000  -0.008  -0.001  -0.013   0.000  -0.000   0.006   0.000
 -0.009   0.000   0.008  -0.000  -0.013   0.007  -0.000  -0.007
 -0.015  -0.001   0.006   0.001   0.010   0.013   0.001  -0.006
  0.001  -0.009  -0.001  -0.014   0.000  -0.000   0.007  -0.000
 -0.011   0.001   0.009  -0.000  -0.015   0.008  -0.000  -0.008
 total augmentation occupancy for first ion, spin component:           1
  1.931   0.004  -0.006   0.001  -0.001  -0.010  -0.000   0.009   0.000   0.002  -0.019   0.015   0.036   0.000   0.031  -0.019
  0.004   1.926  -0.007   0.010  -0.001  -0.000  -0.018   0.007  -0.003  -0.001  -0.002  -0.001   0.007   0.037  -0.002  -0.002
 -0.006  -0.007   1.945   0.004  -0.003   0.009   0.007  -0.026  -0.004   0.003  -0.014   0.009  -0.008   0.002  -0.017   0.006
  0.001   0.010   0.004   1.937  -0.005   0.000  -0.003  -0.004  -0.023   0.002   0.003   0.001   0.007   0.056   0.002  -0.000
 -0.001  -0.001  -0.003  -0.005   1.938   0.002  -0.001   0.003   0.002  -0.017  -0.010   0.006  -0.009   0.003   0.031   0.011
 -0.010  -0.000   0.009   0.000   0.002   0.015   0.000   0.003   0.001   0.001  -0.037   0.001   0.020   0.001   0.007  -0.001
 -0.000  -0.018   0.007  -0.003  -0.001   0.000   0.008   0.000   0.000  -0.001   0.014  -0.002   0.004   0.012   0.002  -0.000
  0.009   0.007  -0.026  -0.004   0.003   0.003   0.000   0.007  -0.000   0.001  -0.036   0.005  -0.005  -0.001  -0.007   0.000
  0.000  -0.003  -0.004  -0.023   0.002   0.001   0.000  -0.000   0.009  -0.000  -0.001   0.000  -0.000   0.020   0.000  -0.000
  0.002  -0.001   0.003   0.002  -0.017   0.001  -0.001   0.001  -0.000   0.012  -0.014   0.000  -0.020  -0.003   0.021   0.001
 -0.019  -0.002  -0.014   0.003  -0.010  -0.037   0.014  -0.036  -0.001  -0.014   1.665  -0.118   0.108   0.015   0.177  -0.015
  0.015  -0.001   0.009   0.001   0.006   0.001  -0.002   0.005   0.000   0.000  -0.118   0.014  -0.016  -0.001  -0.025   0.002
  0.036   0.007  -0.008   0.007  -0.009   0.020   0.004  -0.005  -0.000  -0.020   0.108  -0.016   0.187   0.007  -0.048  -0.012
  0.000   0.037   0.002   0.056   0.003   0.001   0.012  -0.001   0.020  -0.003   0.015  -0.001   0.007   0.093  -0.005  -0.001
  0.031  -0.002  -0.017   0.002   0.031   0.007   0.002  -0.007   0.000   0.021   0.177  -0.025  -0.048  -0.005   0.147   0.002
 -0.019  -0.002   0.006  -0.000   0.011  -0.001  -0.000   0.000  -0.000   0.001  -0.015   0.002  -0.012  -0.001   0.002   0.001
  0.000  -0.012  -0.002  -0.020   0.000  -0.000  -0.001   0.000  -0.001   0.000  -0.001   0.000  -0.001  -0.006   0.000   0.000
 -0.012   0.000   0.009  -0.002  -0.018   0.000  -0.000   0.001  -0.000  -0.001  -0.024   0.003   0.002   0.000  -0.010   0.000
 total augmentation occupancy for first ion, spin component:           2
  0.019  -0.000   0.002  -0.006   0.006  -0.004  -0.000  -0.002   0.001  -0.002   0.032   0.006  -0.010   0.007  -0.019  -0.001
 -0.000   0.000  -0.000   0.001  -0.000  -0.000   0.001  -0.000   0.001   0.000  -0.000  -0.000   0.001  -0.002   0.001   0.000
  0.002  -0.000   0.001  -0.001   0.001  -0.002  -0.000   0.001   0.000  -0.001   0.005   0.000  -0.000   0.003  -0.001   0.000
 -0.006   0.001  -0.001   0.003  -0.002   0.002   0.001   0.000   0.001   0.000  -0.010  -0.002   0.003  -0.006   0.006   0.000
  0.006  -0.000   0.001  -0.002   0.001  -0.002   0.000  -0.001   0.000   0.002   0.010   0.002  -0.001   0.002  -0.008  -0.000
 -0.004  -0.000  -0.002   0.002  -0.002   0.001   0.000   0.000  -0.000   0.000  -0.007  -0.001   0.002  -0.002   0.005   0.000
 -0.000   0.001  -0.000   0.001   0.000   0.000  -0.000   0.000  -0.000  -0.000  -0.000   0.000   0.000  -0.000  -0.000  -0.000
 -0.002  -0.000   0.001   0.000  -0.001   0.000   0.000   0.000  -0.000   0.000  -0.002  -0.000   0.000  -0.000   0.001   0.000
  0.001   0.001   0.000   0.001   0.000  -0.000  -0.000  -0.000  -0.000  -0.000   0.002   0.000  -0.001   0.000  -0.001  -0.000
 -0.002   0.000  -0.001   0.000   0.002   0.000  -0.000   0.000  -0.000  -0.000  -0.002  -0.000   0.001  -0.001   0.001  -0.000
  0.032  -0.000   0.005  -0.010   0.010  -0.007  -0.000  -0.002   0.002  -0.002   0.064   0.003  -0.016   0.015  -0.034  -0.000
  0.006  -0.000   0.000  -0.002   0.002  -0.001   0.000  -0.000   0.000  -0.000   0.003   0.000  -0.001   0.001  -0.002  -0.000
 -0.010   0.001  -0.000   0.003  -0.001   0.002   0.000   0.000  -0.001   0.001  -0.016  -0.001   0.003  -0.003   0.006   0.000
  0.007  -0.002   0.003  -0.006   0.002  -0.002  -0.000  -0.000   0.000  -0.001   0.015   0.001  -0.003   0.003  -0.006  -0.000
 -0.019   0.001  -0.001   0.006  -0.008   0.005  -0.000   0.001  -0.001   0.001  -0.034  -0.002   0.006  -0.006   0.014   0.000
 -0.001   0.000   0.000   0.000  -0.000   0.000  -0.000   0.000  -0.000  -0.000  -0.000  -0.000   0.000  -0.000   0.000   0.000
  0.000  -0.000   0.000  -0.001   0.000   0.000  -0.000  -0.000   0.000   0.000  -0.000   0.000   0.000  -0.000   0.000  -0.000
 -0.001   0.000   0.000   0.001  -0.001   0.000   0.000  -0.000  -0.000   0.000   0.000  -0.000   0.000  -0.000   0.000   0.000


------------------------ aborting loop because EDIFF is reached ----------------------------------------


    CHARGE:  cpu time    0.6524: real time    0.6528
    FORLOC:  cpu time    0.0650: real time    0.0650
    FORNL :  cpu time    1.5314: real time    1.5319
    STRESS:  cpu time    5.9664: real time    5.9693
    FORCOR:  cpu time    1.1672: real time    1.1688
    FORHAR:  cpu time    0.1858: real time    0.1865
    MIXING:  cpu time    0.1110: real time    0.1110
    OFIELD:  cpu time    0.0001: real time    0.0001

  FORCE on cell =-STRESS in cart. coord.  units (eV):
  Direction    XX          YY          ZZ          XY          YZ          ZX
  --------------------------------------------------------------------------------------
  Alpha Z    41.16233    41.16233    41.16233
  Ewald   10205.40033  7306.12014 -1430.66574  -639.86344   374.63105    41.09423
  Hartree 15324.56901 12799.65404  4942.55390  -604.78166   326.95983    18.42045
  E(xc)    -876.27110  -877.78239  -879.44251     0.10673     0.05392     0.15694
  Local  -26921.39310-21534.31661 -4947.44020  1251.99647  -699.19129   -55.85331
  n-local  -332.81704  -324.27513  -330.17052    -3.56341    -0.00881     0.12829
  augment  1222.30847  1226.39401  1231.94777     0.23026    -0.99453    -1.13159
  Kinetic  1337.47468  1362.98063  1370.21758    -4.68647    -1.33697    -2.50648
  Fock        0.00000     0.00000     0.00000     0.00000     0.00000     0.00000
  -------------------------------------------------------------------------------------
  Total       0.43357    -0.06297    -1.83741    -0.56152     0.11319     0.30853
  in kB       0.20583    -0.02989    -0.87225    -0.26656     0.05373     0.14646
  external pressure =       -0.23 kB  Pullay stress =        0.00 kB


 VOLUME and BASIS-vectors are now :
 -----------------------------------------------------------------------------
  energy-cutoff  :      600.00
  volume of cell :     3375.00
      direct lattice vectors                 reciprocal lattice vectors
    15.000000000  0.000000000  0.000000000     0.066666667  0.000000000  0.000000000
     0.000000000 15.000000000  0.000000000     0.000000000  0.066666667  0.000000000
     0.000000000  0.000000000 15.000000000     0.000000000  0.000000000  0.066666667

  length of vectors
    15.000000000 15.000000000 15.000000000     0.066666667  0.066666667  0.066666667


 FORCES acting on ions
    electron-ion (+dipol)            ewald-force                    non-local-force                 convergence-correction
 -----------------------------------------------------------------------------------------------
   0.107E+04 0.673E+03 0.419E+01   -.106E+04 -.671E+03 -.372E+01   -.458E+01 -.276E+01 -.583E+00   -.139E-05 0.782E-05 0.727E-05
   0.447E+03 -.316E+03 0.878E+03   -.446E+03 0.314E+03 -.878E+03   -.179E+01 0.122E+01 -.524E+00   -.895E-05 0.700E-05 -.271E-04
   0.285E+03 0.130E+04 -.249E+03   -.283E+03 -.129E+04 0.246E+03   -.163E+01 -.889E+01 0.244E+01   0.729E-05 -.134E-04 0.556E-05
   -.827E+03 -.135E+03 0.902E+03   0.824E+03 0.134E+03 -.897E+03   0.294E+01 0.291E+00 -.414E+01   -.548E-05 0.154E-04 0.152E-04
   -.848E+03 0.969E+03 0.229E+03   0.843E+03 -.963E+03 -.227E+03   0.478E+01 -.554E+01 -.202E+01   0.774E-05 -.171E-04 0.940E-05
   -.186E+03 0.456E+03 -.930E+03   0.185E+03 -.453E+03 0.930E+03   0.136E+01 -.199E+01 0.211E+00   -.668E-05 0.114E-04 0.365E-04
   0.207E+03 0.595E+03 0.120E+04   -.206E+03 -.591E+03 -.119E+04   -.153E+01 -.365E+01 -.670E+01   -.525E-05 0.185E-04 0.271E-05
   0.121E+04 -.322E+03 0.167E+03   -.120E+04 0.318E+03 -.164E+03   -.898E+01 0.339E+01 -.321E+01   -.703E-05 0.631E-05 0.262E-05
   0.592E+03 -.178E+03 -.121E+04   -.588E+03 0.177E+03 0.120E+04   -.348E+01 0.582E+00 0.728E+01   0.737E-05 0.298E-05 -.658E-05
   0.499E+03 -.125E+04 -.166E+03   -.496E+03 0.124E+04 0.165E+03   -.393E+01 0.712E+01 0.164E+01   -.326E-05 0.894E-05 0.566E-06
   -.500E+03 -.107E+04 0.678E+03   0.496E+03 0.107E+04 -.672E+03   0.397E+01 0.675E+01 -.613E+01   -.148E-04 -.565E-05 0.174E-04
   -.794E+03 0.316E+02 -.409E+03   0.792E+03 -.320E+02 0.405E+03   0.678E+00 0.156E+00 0.333E+01   0.340E-04 0.595E-05 0.500E-05
   -.571E+03 -.720E+03 -.862E+03   0.568E+03 0.716E+03 0.859E+03   0.335E+01 0.321E+01 0.355E+01   -.154E-05 -.135E-04 -.263E-07
   -.107E+03 0.453E+02 -.127E+03   0.847E+02 -.505E+02 0.127E+03   0.196E+02 0.480E+01 -.145E-01   0.137E-04 0.672E-06 0.265E-05
   -.429E+03 -.673E+02 -.103E+03   0.491E+03 0.824E+02 0.105E+03   -.600E+02 -.145E+02 -.191E+01   0.109E-04 -.264E-06 -.104E-05
 -----------------------------------------------------------------------------------------------
   0.493E+02 0.985E+01 0.678E+01   -.568E-12 -.554E-12 -.853E-13   -.493E+02 -.985E+01 -.678E+01   0.267E-04 0.351E-04 0.701E-04
 
 
 POSITION                                       TOTAL-FORCE (eV/Angst)
 -----------------------------------------------------------------------------------
      4.40334      6.26410      8.31919         0.059079      0.123263     -0.120114
      5.68412      8.28448      7.44404        -0.426607     -0.868361     -0.340508
      5.96869      4.46267      8.50348        -0.116942     -0.709894     -0.050730
      7.99817      7.64112      7.11580         0.019753     -0.309054      0.620780
      8.19594      5.24845      7.86624         0.380434      0.224419     -0.019682
      6.73293      6.51903      9.21898         0.434974      0.692331     -0.190845
      6.22164      5.89522      6.59573         0.056789      0.601396      0.518941
      3.27435      8.40681      8.21775         0.376448      0.251915     -0.009721
      4.96242      8.08668      9.86928         0.253939      0.254904     -0.303609
      5.28213     10.24170      8.55157        -0.376637      0.286976      0.289279
      7.36507     10.02730      7.20466        -0.017075      0.205861     -0.248765
      9.42333      7.23641      9.17085        -0.938136     -0.263854     -0.480288
      7.22986      8.94475      9.23681         0.305444     -0.645752      0.311752
     11.15820      7.35004      9.72407        -2.957735     -0.387760     -0.141521
     12.25670      7.61026      9.76153         2.946270      0.543611      0.165029
 -----------------------------------------------------------------------------------
    total drift:                                0.002894     -0.000582      0.002065


--------------------------------------------------------------------------------------------------------



  FREE ENERGIE OF THE ION-ELECTRON SYSTEM (eV)
  ---------------------------------------------------
  free  energy   TOTEN  =       -48.65588356 eV

  energy  without entropy=      -48.66290690  energy(sigma->0) =      -48.65822468
 


--------------------------------------------------------------------------------------------------------


    POTLOK:  cpu time    1.1813: real time    1.1822


--------------------------------------------------------------------------------------------------------


     LOOP+:  cpu time  343.5261: real time  343.7960
    4ORBIT:  cpu time    0.0000: real time    0.0000

 total amount of memory used by VASP MPI-rank0   158680. kBytes
=======================================================================

   base      :      30000. kBytes
   nonl-proj :      12601. kBytes
   fftplans  :      27994. kBytes
   grid      :      74150. kBytes
   one-center:         93. kBytes
   wavefun   :      13842. kBytes
 
  
  
 General timing and accounting informations for this job:
 ========================================================
  
                  Total CPU time used (sec):      347.507
                            User time (sec):      335.366
                          System time (sec):       12.141
                         Elapsed time (sec):      347.822
  
                   Maximum memory used (kb):      279204.
                   Average memory used (kb):           0.
  
                          Minor page faults:       290893
                          Major page faults:            0
                 Voluntary context switches:          953
