<?xml version="1.0" encoding="ISO-8859-1"?>
<modeling>
 <generator>
  <i name="program" type="string">vasp </i>
  <i name="version" type="string">5.4.4.18Apr17-6-g9f103f2a35  </i>
  <i name="subversion" type="string">(build May 08 2019 13:49:07) complex            parallel </i>
  <i name="platform" type="string">LinuxIFC </i>
  <i name="date" type="string">2019 11 13 </i>
  <i name="time" type="string">12:05:17 </i>
 </generator>
 <incar>
  <i type="string" name="SYSTEM"> CuCO</i>
  <i type="int" name="ISTART">     0</i>
  <i type="string" name="PREC">accurate</i>
  <i type="string" name="ALGO"> Fast</i>
  <i type="int" name="ISPIN">     2</i>
  <i type="int" name="INIWAV">     1</i>
  <i type="int" name="NELM">   300</i>
  <i type="int" name="NELMIN">     3</i>
  <i type="int" name="IBRION">    -1</i>
  <i name="EDIFF">      0.00000010</i>
  <i name="EDIFFG">     -0.00100000</i>
  <i type="int" name="NSW">     0</i>
  <i type="int" name="ISYM">     0</i>
  <i name="ENCUT">    600.00000000</i>
  <i name="NUPDOWN">      1.00000000</i>
  <i type="logical" name="LREAL"> F  </i>
  <i type="int" name="ISMEAR">     1</i>
  <i name="SIGMA">      0.10000000</i>
  <i name="KSPACING">      0.50000000</i>
  <i type="logical" name="KGAMMA"> F  </i>
  <i type="logical" name="LWAVE"> F  </i>
  <i type="logical" name="LCHARG"> F  </i>
  <v type="int" name="KPOINT_BSE">    -1     0     0     0</v>
  <i type="int" name="NELM">   300</i>
  <i type="string" name="GGA"> PE</i>
 </incar>
 <structure name="primitive_cell" >
  <crystal>
   <varray name="basis" >
    <v>      15.00000000       0.00000000       0.00000000 </v>
    <v>       0.00000000      15.00000000       0.00000000 </v>
    <v>       0.00000000       0.00000000      15.00000000 </v>
   </varray>
   <i name="volume">   3375.00000000 </i>
   <varray name="rec_basis" >
    <v>       0.06666667       0.00000000       0.00000000 </v>
    <v>       0.00000000       0.06666667       0.00000000 </v>
    <v>       0.00000000       0.00000000       0.06666667 </v>
   </varray>
  </crystal>
  <varray name="positions" >
   <v>       0.29355600       0.41760667      -0.44538733 </v>
   <v>       0.39791267       0.29751133      -0.43310133 </v>
   <v>       0.21829000      -0.43954600      -0.45215000 </v>
   <v>       0.33082800      -0.46088800      -0.34204800 </v>
   <v>       0.44886200       0.43460200      -0.38540133 </v>
   <v>       0.41477600       0.39301467       0.43971533 </v>
   <v>       0.37894133      -0.44770133       0.49626933 </v>
   <v>      -0.45360400       0.34989667      -0.47558400 </v>
   <v>       0.48199067      -0.40368333      -0.38421267 </v>
   <v>      -0.46678867      -0.49059200       0.47438667 </v>
   <v>       0.35214200      -0.31722000      -0.42989533 </v>
   <v>       0.49100467      -0.33151333       0.48031067 </v>
   <v>      -0.37177800       0.48242733      -0.38861000 </v>
   <v>      -0.25612000       0.49000267      -0.35172867 </v>
   <v>      -0.18288667      -0.49264933      -0.34923133 </v>
  </varray>
 </structure>
 <varray name="primitive_index" >
  <v type="int" >        1 </v>
  <v type="int" >        3 </v>
  <v type="int" >        8 </v>
  <v type="int" >        9 </v>
  <v type="int" >        6 </v>
  <v type="int" >        7 </v>
  <v type="int" >        2 </v>
  <v type="int" >        5 </v>
  <v type="int" >       13 </v>
  <v type="int" >        4 </v>
  <v type="int" >       10 </v>
  <v type="int" >       11 </v>
  <v type="int" >       12 </v>
  <v type="int" >       14 </v>
  <v type="int" >       15 </v>
 </varray>
 <kpoints>
  <generation param="Monkhorst-Pack">
   <v type="int" name="divisions">       1        1        1 </v>
   <v name="usershift">      0.00000000       0.00000000       0.00000000 </v>
   <v name="genvec1">      1.00000000       0.00000000       0.00000000 </v>
   <v name="genvec2">      0.00000000       1.00000000       0.00000000 </v>
   <v name="genvec3">      0.00000000       0.00000000       1.00000000 </v>
   <v name="shift">      0.00000000       0.00000000       0.00000000 </v>
  </generation>
  <varray name="kpointlist" >
   <v>       0.00000000       0.00000000       0.00000000 </v>
  </varray>
  <varray name="weights" >
   <v>       1.00000000 </v>
  </varray>
 </kpoints>
 <parameters>
  <separator name="general" >
   <i type="string" name="SYSTEM">CuCO</i>
   <i type="logical" name="LCOMPAT"> F  </i>
  </separator>
  <separator name="electronic" >
   <i type="string" name="PREC">accura</i>
   <i name="ENMAX">    600.00000000</i>
   <i name="ENAUG">    644.87300000</i>
   <i name="EDIFF">      0.00000010</i>
   <i type="int" name="IALGO">    68</i>
   <i type="int" name="IWAVPR">    10</i>
   <i type="int" name="NBANDS">    92</i>
   <i name="NELECT">    153.00000000</i>
   <i type="int" name="TURBO">     0</i>
   <i type="int" name="IRESTART">     0</i>
   <i type="int" name="NREBOOT">     0</i>
   <i type="int" name="NMIN">     0</i>
   <i name="EREF">      0.00000000</i>
   <separator name="electronic smearing" >
    <i type="int" name="ISMEAR">     1</i>
    <i name="SIGMA">      0.10000000</i>
    <i name="KSPACING">      0.50000000</i>
    <i type="logical" name="KGAMMA"> F  </i>
   </separator>
   <separator name="electronic projectors" >
    <i type="logical" name="LREAL"> F  </i>
    <v name="ROPT">      0.00000000      0.00000000      0.00000000</v>
    <i type="int" name="LMAXPAW">  -100</i>
    <i type="int" name="LMAXMIX">     2</i>
    <i type="logical" name="NLSPLINE"> F  </i>
   </separator>
   <separator name="electronic startup" >
    <i type="int" name="ISTART">     0</i>
    <i type="int" name="ICHARG">     2</i>
    <i type="int" name="INIWAV">     1</i>
   </separator>
   <separator name="electronic spin" >
    <i type="int" name="ISPIN">     2</i>
    <i type="logical" name="LNONCOLLINEAR"> F  </i>
    <v name="MAGMOM">      0.06666667      0.06666667      0.06666667      0.06666667      0.06666667      0.06666667      0.06666667      0.06666667      0.06666667      0.06666667      0.06666667      0.06666667      0.06666667      0.06666667      0.06666667</v>
    <i name="NUPDOWN">      1.00000000</i>
    <i type="logical" name="LSORBIT"> F  </i>
    <v name="SAXIS">      0.00000000      0.00000000      1.00000000</v>
    <i type="logical" name="LSPIRAL"> F  </i>
    <v name="QSPIRAL">      0.00000000      0.00000000      0.00000000</v>
    <i type="logical" name="LZEROZ"> F  </i>
   </separator>
   <separator name="electronic exchange-correlation" >
    <i type="logical" name="LASPH"> F  </i>
    <i type="logical" name="LMETAGGA"> F  </i>
   </separator>
   <separator name="electronic convergence" >
    <i type="int" name="NELM">   300</i>
    <i type="int" name="NELMDL">    -5</i>
    <i type="int" name="NELMIN">     3</i>
    <i name="ENINI">    600.00000000</i>
    <separator name="electronic convergence detail" >
     <i type="logical" name="LDIAG"> T  </i>
     <i type="logical" name="LSUBROT"> F  </i>
     <i name="WEIMIN">      0.00000000</i>
     <i name="EBREAK">      0.00000000</i>
     <i name="DEPER">      0.30000000</i>
     <i type="int" name="NRMM">     4</i>
     <i name="TIME">      0.40000000</i>
    </separator>
   </separator>
   <separator name="electronic mixer" >
    <i name="AMIX">      0.40000000</i>
    <i name="BMIX">      1.00000000</i>
    <i name="AMIN">      0.10000000</i>
    <i name="AMIX_MAG">      1.60000000</i>
    <i name="BMIX_MAG">      1.00000000</i>
    <separator name="electronic mixer details" >
     <i type="int" name="IMIX">     4</i>
     <i type="logical" name="MIXFIRST"> F  </i>
     <i type="int" name="MAXMIX">   -45</i>
     <i name="WC">    100.00000000</i>
     <i type="int" name="INIMIX">     1</i>
     <i type="int" name="MIXPRE">     1</i>
     <i type="int" name="MREMOVE">     5</i>
    </separator>
   </separator>
   <separator name="electronic dipolcorrection" >
    <i type="logical" name="LDIPOL"> F  </i>
    <i type="logical" name="LMONO"> F  </i>
    <i type="int" name="IDIPOL">     0</i>
    <i name="EPSILON">      1.00000000</i>
    <v name="DIPOL">   -100.00000000   -100.00000000   -100.00000000</v>
    <i name="EFIELD">      0.00000000</i>
   </separator>
  </separator>
  <separator name="grids" >
   <i type="int" name="NGX">   120</i>
   <i type="int" name="NGY">   120</i>
   <i type="int" name="NGZ">   120</i>
   <i type="int" name="NGXF">   240</i>
   <i type="int" name="NGYF">   240</i>
   <i type="int" name="NGZF">   240</i>
   <i type="logical" name="ADDGRID"> F  </i>
  </separator>
  <separator name="ionic" >
   <i type="int" name="NSW">     0</i>
   <i type="int" name="IBRION">    -1</i>
   <i type="int" name="MDALGO">     0</i>
   <i type="int" name="ISIF">     2</i>
   <i name="PSTRESS">      0.00000000</i>
   <i name="EDIFFG">     -0.00100000</i>
   <i type="int" name="NFREE">     0</i>
   <i name="POTIM">      0.50000000</i>
   <i name="SMASS">     -3.00000000</i>
   <i name="SCALEE">      1.00000000</i>
  </separator>
  <separator name="ionic md" >
   <i name="TEBEG">      0.00010000</i>
   <i name="TEEND">      0.00010000</i>
   <i type="int" name="NBLOCK">     1</i>
   <i type="int" name="KBLOCK">     1</i>
   <i type="int" name="NPACO">   256</i>
   <i name="APACO">     16.00000000</i>
  </separator>
  <separator name="symmetry" >
   <i type="int" name="ISYM">     0</i>
   <i name="SYMPREC">      0.00001000</i>
  </separator>
  <separator name="dos" >
   <i type="int" name="LORBIT">     0</i>
   <v name="RWIGS">     -1.00000000     -1.00000000     -1.00000000</v>
   <i type="int" name="NEDOS">   301</i>
   <i name="EMIN">     10.00000000</i>
   <i name="EMAX">    -10.00000000</i>
   <i name="EFERMI">      0.00000000</i>
  </separator>
  <separator name="writing" >
   <i type="int" name="NWRITE">     2</i>
   <i type="logical" name="LWAVE"> F  </i>
   <i type="logical" name="LDOWNSAMPLE"> F  </i>
   <i type="logical" name="LCHARG"> F  </i>
   <i type="logical" name="LPARD"> F  </i>
   <i type="logical" name="LVTOT"> F  </i>
   <i type="logical" name="LVHAR"> F  </i>
   <i type="logical" name="LELF"> F  </i>
   <i type="logical" name="LOPTICS"> F  </i>
   <v name="STM">      0.00000000      0.00000000      0.00000000      0.00000000      0.00000000      0.00000000      0.00000000</v>
  </separator>
  <separator name="performance" >
   <i type="int" name="NPAR">     4</i>
   <i type="int" name="NSIM">     4</i>
   <i type="int" name="NBLK">    -1</i>
   <i type="logical" name="LPLANE"> T  </i>
   <i type="logical" name="LSCALAPACK"> T  </i>
   <i type="logical" name="LSCAAWARE"> F  </i>
   <i type="logical" name="LSCALU"> F  </i>
   <i type="logical" name="LASYNC"> F  </i>
   <i type="logical" name="LORBITALREAL"> F  </i>
  </separator>
  <separator name="miscellaneous" >
   <i type="int" name="IDIOT">     3</i>
   <i type="int" name="ISPECIAL">     0</i>
   <i type="logical" name="LMUSIC"> F  </i>
   <v name="POMASS">     63.54600000     12.01100000     16.00000000</v>
   <v name="DARWINR">      0.00000000      0.00000000      0.00000000</v>
   <v name="DARWINV">      1.00000000      1.00000000      1.00000000</v>
   <i type="logical" name="LCORR"> T  </i>
  </separator>
  <i type="logical" name="GGA_COMPAT"> T  </i>
  <i type="logical" name="LBERRY"> F  </i>
  <i type="int" name="ICORELEVEL">     0</i>
  <i type="logical" name="LDAU"> F  </i>
  <i type="int" name="I_CONSTRAINED_M">     0</i>
  <separator name="electronic exchange-correlation" >
   <i type="string" name="GGA">PE</i>
   <i type="int" name="VOSKOWN">     0</i>
   <i type="logical" name="LHFCALC"> F  </i>
   <i type="string" name="PRECFOCK"></i>
   <i type="logical" name="LSYMGRAD"> F  </i>
   <i type="logical" name="LHFONE"> F  </i>
   <i type="logical" name="LRHFCALC"> F  </i>
   <i type="logical" name="LTHOMAS"> F  </i>
   <i type="logical" name="LMODELHF"> F  </i>
   <i name="ENCUT4O">     -1.00000000</i>
   <i type="int" name="EXXOEP">     0</i>
   <i type="int" name="FOURORBIT">     0</i>
   <i name="AEXX">      0.00000000</i>
   <i name="HFALPHA">      0.00000000</i>
   <i name="MCALPHA">      0.00000000</i>
   <i name="ALDAX">      1.00000000</i>
   <i name="AGGAX">      1.00000000</i>
   <i name="ALDAC">      1.00000000</i>
   <i name="AGGAC">      1.00000000</i>
   <i type="int" name="NKREDX">     1</i>
   <i type="int" name="NKREDY">     1</i>
   <i type="int" name="NKREDZ">     1</i>
   <i type="logical" name="SHIFTRED"> F  </i>
   <i type="logical" name="ODDONLY"> F  </i>
   <i type="logical" name="EVENONLY"> F  </i>
   <i type="int" name="LMAXFOCK">     0</i>
   <i type="int" name="NMAXFOCKAE">     0</i>
   <i type="logical" name="LFOCKAEDFT"> F  </i>
   <i name="HFSCREEN">      0.00000000</i>
   <i name="HFSCREENC">      0.00000000</i>
   <i type="int" name="NBANDSGWLOW">     0</i>
  </separator>
  <separator name="vdW DFT" >
   <i type="logical" name="LUSE_VDW"> F  </i>
   <i name="Zab_VDW">     -0.84910000</i>
   <i name="PARAM1">      0.12340000</i>
   <i name="PARAM2">      1.00000000</i>
   <i name="PARAM3">      0.00000000</i>
  </separator>
  <separator name="model GW" >
   <i type="int" name="MODEL_GW">     0</i>
   <i name="MODEL_EPS0">    135.00000000</i>
   <i name="MODEL_ALPHA">      1.00000000</i>
  </separator>
  <separator name="linear response parameters" >
   <i type="logical" name="LEPSILON"> F  </i>
   <i type="logical" name="LRPA"> F  </i>
   <i type="logical" name="LNABLA"> F  </i>
   <i type="logical" name="LVEL"> F  </i>
   <i type="int" name="KINTER">     0</i>
   <i name="CSHIFT">      0.10000000</i>
   <i name="OMEGAMAX">     -1.00000000</i>
   <i name="DEG_THRESHOLD">      0.00200000</i>
   <i name="RTIME">     -0.10000000</i>
   <i name="WPLASMAI">      0.00000000</i>
   <v name="DFIELD">      0.00000000      0.00000000      0.00000000</v>
   <v name="WPLASMA">      0.00000000      0.00000000      0.00000000      0.00000000      0.00000000      0.00000000      0.00000000      0.00000000      0.00000000</v>
  </separator>
  <separator name="orbital magnetization" >
   <i type="logical" name="NUCIND"> F  </i>
   <v name="MAGPOS">      0.00000000      0.00000000      0.00000000</v>
   <i type="logical" name="LNICSALL"> T  </i>
   <i type="logical" name="ORBITALMAG"> F  </i>
   <i type="logical" name="LMAGBLOCH"> F  </i>
   <i type="logical" name="LCHIMAG"> F  </i>
   <i type="logical" name="LGAUGE"> T  </i>
   <i type="int" name="MAGATOM">     0</i>
   <v name="MAGDIPOL">      0.00000000      0.00000000      0.00000000</v>
   <v name="AVECCONST">      0.00000000      0.00000000      0.00000000</v>
  </separator>
  <separator name="response functions" >
   <i type="logical" name="LADDER"> F  </i>
   <i type="logical" name="LRPAFORCE"> F  </i>
   <i type="logical" name="LFXC"> F  </i>
   <i type="logical" name="LHARTREE"> T  </i>
   <i type="int" name="IBSE">     0</i>
   <v type="int" name="KPOINT">    -1     0     0     0</v>
   <i type="logical" name="LTCTE"> F  </i>
   <i type="logical" name="LTETE"> F  </i>
   <i type="logical" name="LTRIPLET"> F  </i>
   <i type="logical" name="LFXCEPS"> F  </i>
   <i type="logical" name="LFXHEG"> F  </i>
   <i type="int" name="NATURALO">     2</i>
   <i type="logical" name="L2ORDER"> F  </i>
   <i type="logical" name="LMP2LT"> F  </i>
   <i type="logical" name="LUSEW"> F  </i>
   <i name="ENCUTGW">     -2.00000000</i>
   <i name="ENCUTGWSOFT">     -2.00000000</i>
   <i name="ENCUTLF">     -1.00000000</i>
   <i type="int" name="LMAXMP2">    -1</i>
   <i name="SCISSOR">      0.00000000</i>
   <i type="int" name="NOMEGA">     0</i>
   <i type="int" name="NOMEGAR">     0</i>
   <i type="int" name="NBANDSGW">    -1</i>
   <i type="int" name="NBANDSO">    -1</i>
   <i type="int" name="NBANDSV">    -1</i>
   <i type="int" name="NELM">   300</i>
   <i type="int" name="NELMHF">     1</i>
   <i type="int" name="DIM">     3</i>
   <i type="int" name="ANTIRES">     0</i>
   <i name="OMEGAMAX">    -30.00000000</i>
   <i name="OMEGAMIN">    -30.00000000</i>
   <i name="OMEGATL">   -200.00000000</i>
   <i type="int" name="OMEGAGRID">   140</i>
   <i name="CSHIFT">     -0.10000000</i>
   <i type="logical" name="SELFENERGY"> F  </i>
   <i type="logical" name="LSPECTRAL"> F  </i>
   <i type="logical" name="LSPECTRALGW"> F  </i>
   <i type="logical" name="LSINGLES"> F  </i>
   <i type="logical" name="LFERMIGW"> F  </i>
   <i type="logical" name="ODDONLYGW"> F  </i>
   <i type="logical" name="EVENONLYGW"> F  </i>
   <i type="int" name="NKREDLFX">     1</i>
   <i type="int" name="NKREDLFY">     1</i>
   <i type="int" name="NKREDLFZ">     1</i>
   <i type="int" name="MAXMEM">  2800</i>
   <i type="int" name="TELESCOPE">     0</i>
   <i type="int" name="TAUPAR">     1</i>
   <i type="int" name="OMEGAPAR">    -1</i>
   <i name="LAMBDA">      1.00000000</i>
  </separator>
  <separator name="External order field" >
   <i name="OFIELD_KAPPA">      0.00000000</i>
   <v name="OFIELD_K">      0.00000000      0.00000000      0.00000000</v>
   <i name="OFIELD_Q6_NEAR">      0.00000000</i>
   <i name="OFIELD_Q6_FAR">      0.00000000</i>
   <i name="OFIELD_A">      0.00000000</i>
  </separator>
 </parameters>
 <atominfo>
  <atoms>      15 </atoms>
  <types>       3 </types>
  <array name="atoms" >
   <dimension dim="1">ion</dimension>
   <field type="string">element</field>
   <field type="int">atomtype</field>
   <set>
    <rc><c>Cu</c><c>   1</c></rc>
    <rc><c>Cu</c><c>   1</c></rc>
    <rc><c>Cu</c><c>   1</c></rc>
    <rc><c>Cu</c><c>   1</c></rc>
    <rc><c>Cu</c><c>   1</c></rc>
    <rc><c>Cu</c><c>   1</c></rc>
    <rc><c>Cu</c><c>   1</c></rc>
    <rc><c>Cu</c><c>   1</c></rc>
    <rc><c>Cu</c><c>   1</c></rc>
    <rc><c>Cu</c><c>   1</c></rc>
    <rc><c>Cu</c><c>   1</c></rc>
    <rc><c>Cu</c><c>   1</c></rc>
    <rc><c>Cu</c><c>   1</c></rc>
    <rc><c>C </c><c>   2</c></rc>
    <rc><c>O </c><c>   3</c></rc>
   </set>
  </array>
  <array name="atomtypes" >
   <dimension dim="1">type</dimension>
   <field type="int">atomspertype</field>
   <field type="string">element</field>
   <field>mass</field>
   <field>valence</field>
   <field type="string">pseudopotential</field>
   <set>
    <rc><c>  13</c><c>Cu</c><c>     63.54600000</c><c>     11.00000000</c><c>  PAW_PBE Cu 22Jun2005                  </c></rc>
    <rc><c>   1</c><c>C </c><c>     12.01100000</c><c>      4.00000000</c><c>  PAW_PBE C 08Apr2002                   </c></rc>
    <rc><c>   1</c><c>O </c><c>     16.00000000</c><c>      6.00000000</c><c>  PAW_PBE O 08Apr2002                   </c></rc>
   </set>
  </array>
 </atominfo>
 <structure name="initialpos" >
  <crystal>
   <varray name="basis" >
    <v>      15.00000000       0.00000000       0.00000000 </v>
    <v>       0.00000000      15.00000000       0.00000000 </v>
    <v>       0.00000000       0.00000000      15.00000000 </v>
   </varray>
   <i name="volume">   3375.00000000 </i>
   <varray name="rec_basis" >
    <v>       0.06666667       0.00000000       0.00000000 </v>
    <v>       0.00000000       0.06666667       0.00000000 </v>
    <v>       0.00000000       0.00000000       0.06666667 </v>
   </varray>
  </crystal>
  <varray name="positions" >
   <v>       0.29355600       0.41760667       0.55461267 </v>
   <v>       0.37894133       0.55229867       0.49626933 </v>
   <v>       0.39791267       0.29751133       0.56689867 </v>
   <v>       0.53321133       0.50940800       0.47438667 </v>
   <v>       0.54639600       0.34989667       0.52441600 </v>
   <v>       0.44886200       0.43460200       0.61459867 </v>
   <v>       0.41477600       0.39301467       0.43971533 </v>
   <v>       0.21829000       0.56045400       0.54785000 </v>
   <v>       0.33082800       0.53911200       0.65795200 </v>
   <v>       0.35214200       0.68278000       0.57010467 </v>
   <v>       0.49100467       0.66848667       0.48031067 </v>
   <v>       0.62822200       0.48242733       0.61139000 </v>
   <v>       0.48199067       0.59631667       0.61578733 </v>
   <v>       0.74388000       0.49000267       0.64827133 </v>
   <v>       0.81711333       0.50735067       0.65076867 </v>
  </varray>
 </structure>
 <calculation>
  <scstep>
   <time name="dav">    7.52    7.52</time>
   <time name="total">    8.71    8.72</time>
   <energy>
    <i name="alphaZ">     41.16232785 </i>
    <i name="ewald">  16080.87049866 </i>
    <i name="hartreedc"> -33104.31728407 </i>
    <i name="XCdc">    623.24306157 </i>
    <i name="pawpsdc">  16421.75059358 </i>
    <i name="pawaedc"> -17800.06104309 </i>
    <i name="eentropy">      0.01244398 </i>
    <i name="bandstr">    194.78397262 </i>
    <i name="atom">  18662.21924712 </i>
    <i name="e_fr_energy">   1119.66381821 </i>
    <i name="e_wo_entrp">   1119.65137424 </i>
    <i name="e_0_energy">   1119.65967022 </i>
   </energy>
  </scstep>
  <scstep>
   <time name="dav">    7.41    7.41</time>
   <time name="total">    7.41    7.41</time>
   <energy>
    <i name="e_fr_energy">     91.00104483 </i>
    <i name="e_wo_entrp">     90.98654855 </i>
    <i name="e_0_energy">     90.99621274 </i>
   </energy>
  </scstep>
  <scstep>
   <time name="dav">   11.89   11.90</time>
   <time name="total">   11.89   11.90</time>
   <energy>
    <i name="e_fr_energy">    -33.48202549 </i>
    <i name="e_wo_entrp">    -33.49319044 </i>
    <i name="e_0_energy">    -33.48574714 </i>
   </energy>
  </scstep>
  <scstep>
   <time name="dav">   10.26   10.27</time>
   <time name="total">   10.26   10.27</time>
   <energy>
    <i name="e_fr_energy">    -55.59917678 </i>
    <i name="e_wo_entrp">    -55.60772321 </i>
    <i name="e_0_energy">    -55.60202559 </i>
   </energy>
  </scstep>
  <scstep>
   <time name="dav">   12.17   12.19</time>
   <time name="total">   12.88   12.90</time>
   <energy>
    <i name="e_fr_energy">    -57.05165964 </i>
    <i name="e_wo_entrp">    -57.06083517 </i>
    <i name="e_0_energy">    -57.05471815 </i>
   </energy>
  </scstep>
  <scstep>
   <time name="diag">    1.09    1.09</time>
   <time name="diis">    6.74    6.74</time>
   <time name="orth">    0.06    0.06</time>
   <time name="total">    9.75    9.76</time>
   <energy>
    <i name="e_fr_energy">    -56.09361175 </i>
    <i name="e_wo_entrp">    -56.09961700 </i>
    <i name="e_0_energy">    -56.09561350 </i>
   </energy>
  </scstep>
  <scstep>
   <time name="diag">    1.09    1.09</time>
   <time name="diis">    6.05    6.06</time>
   <time name="orth">    0.06    0.06</time>
   <time name="total">    9.05    9.06</time>
   <energy>
    <i name="e_fr_energy">    -49.01559408 </i>
    <i name="e_wo_entrp">    -49.02201375 </i>
    <i name="e_0_energy">    -49.01773397 </i>
   </energy>
  </scstep>
  <scstep>
   <time name="diag">    1.09    1.09</time>
   <time name="diis">    7.30    7.30</time>
   <time name="orth">    0.06    0.06</time>
   <time name="total">   10.34   10.34</time>
   <energy>
    <i name="e_fr_energy">    -48.79837423 </i>
    <i name="e_wo_entrp">    -48.80537830 </i>
    <i name="e_0_energy">    -48.80070892 </i>
   </energy>
  </scstep>
  <scstep>
   <time name="diag">    1.09    1.09</time>
   <time name="diis">    6.66    6.67</time>
   <time name="orth">    0.06    0.06</time>
   <time name="total">    9.68    9.68</time>
   <energy>
    <i name="e_fr_energy">    -48.72761942 </i>
    <i name="e_wo_entrp">    -48.73470320 </i>
    <i name="e_0_energy">    -48.72998068 </i>
   </energy>
  </scstep>
  <scstep>
   <time name="diag">    1.09    1.09</time>
   <time name="diis">    6.77    6.78</time>
   <time name="orth">    0.06    0.06</time>
   <time name="total">    9.78    9.79</time>
   <energy>
    <i name="e_fr_energy">    -48.66530609 </i>
    <i name="e_wo_entrp">    -48.67213374 </i>
    <i name="e_0_energy">    -48.66758197 </i>
   </energy>
  </scstep>
  <scstep>
   <time name="diag">    1.09    1.09</time>
   <time name="diis">    6.66    6.66</time>
   <time name="orth">    0.06    0.06</time>
   <time name="total">    9.66    9.67</time>
   <energy>
    <i name="e_fr_energy">    -48.65063255 </i>
    <i name="e_wo_entrp">    -48.65771826 </i>
    <i name="e_0_energy">    -48.65299445 </i>
   </energy>
  </scstep>
  <scstep>
   <time name="diag">    1.09    1.09</time>
   <time name="diis">    7.10    7.11</time>
   <time name="orth">    0.05    0.05</time>
   <time name="total">   10.11   10.12</time>
   <energy>
    <i name="e_fr_energy">    -48.64799077 </i>
    <i name="e_wo_entrp">    -48.65494624 </i>
    <i name="e_0_energy">    -48.65030926 </i>
   </energy>
  </scstep>
  <scstep>
   <time name="diag">    1.09    1.09</time>
   <time name="diis">    7.14    7.14</time>
   <time name="orth">    0.05    0.05</time>
   <time name="total">   10.14   10.15</time>
   <energy>
    <i name="e_fr_energy">    -48.64671295 </i>
    <i name="e_wo_entrp">    -48.65370803 </i>
    <i name="e_0_energy">    -48.64904464 </i>
   </energy>
  </scstep>
  <scstep>
   <time name="diag">    1.09    1.09</time>
   <time name="diis">    6.61    6.61</time>
   <time name="orth">    0.05    0.06</time>
   <time name="total">    9.61    9.62</time>
   <energy>
    <i name="e_fr_energy">    -48.64787744 </i>
    <i name="e_wo_entrp">    -48.65486758 </i>
    <i name="e_0_energy">    -48.65020748 </i>
   </energy>
  </scstep>
  <scstep>
   <time name="diag">    1.09    1.09</time>
   <time name="diis">    6.80    6.81</time>
   <time name="orth">    0.06    0.06</time>
   <time name="total">    9.81    9.82</time>
   <energy>
    <i name="e_fr_energy">    -48.64923920 </i>
    <i name="e_wo_entrp">    -48.65624289 </i>
    <i name="e_0_energy">    -48.65157376 </i>
   </energy>
  </scstep>
  <scstep>
   <time name="diag">    1.08    1.09</time>
   <time name="diis">    6.80    6.80</time>
   <time name="orth">    0.06    0.06</time>
   <time name="total">    9.81    9.82</time>
   <energy>
    <i name="e_fr_energy">    -48.65091389 </i>
    <i name="e_wo_entrp">    -48.65793837 </i>
    <i name="e_0_energy">    -48.65325538 </i>
   </energy>
  </scstep>
  <scstep>
   <time name="diag">    1.10    1.10</time>
   <time name="diis">    6.47    6.48</time>
   <time name="orth">    0.06    0.06</time>
   <time name="total">    9.50    9.50</time>
   <energy>
    <i name="e_fr_energy">    -48.65261689 </i>
    <i name="e_wo_entrp">    -48.65964484 </i>
    <i name="e_0_energy">    -48.65495954 </i>
   </energy>
  </scstep>
  <scstep>
   <time name="diag">    1.08    1.09</time>
   <time name="diis">    6.53    6.54</time>
   <time name="orth">    0.06    0.06</time>
   <time name="total">    9.55    9.55</time>
   <energy>
    <i name="e_fr_energy">    -48.65354115 </i>
    <i name="e_wo_entrp">    -48.66056904 </i>
    <i name="e_0_energy">    -48.65588378 </i>
   </energy>
  </scstep>
  <scstep>
   <time name="diag">    1.08    1.08</time>
   <time name="diis">    7.02    7.03</time>
   <time name="orth">    0.06    0.06</time>
   <time name="total">   10.04   10.05</time>
   <energy>
    <i name="e_fr_energy">    -48.65436908 </i>
    <i name="e_wo_entrp">    -48.66139505 </i>
    <i name="e_0_energy">    -48.65671107 </i>
   </energy>
  </scstep>
  <scstep>
   <time name="diag">    1.08    1.09</time>
   <time name="diis">    6.62    6.62</time>
   <time name="orth">    0.06    0.06</time>
   <time name="total">    9.64    9.64</time>
   <energy>
    <i name="e_fr_energy">    -48.65491708 </i>
    <i name="e_wo_entrp">    -48.66194110 </i>
    <i name="e_0_energy">    -48.65725842 </i>
   </energy>
  </scstep>
  <scstep>
   <time name="diag">    1.08    1.09</time>
   <time name="diis">    6.57    6.57</time>
   <time name="orth">    0.06    0.06</time>
   <time name="total">    9.58    9.58</time>
   <energy>
    <i name="e_fr_energy">    -48.65532623 </i>
    <i name="e_wo_entrp">    -48.66234756 </i>
    <i name="e_0_energy">    -48.65766667 </i>
   </energy>
  </scstep>
  <scstep>
   <time name="diag">    1.08    1.08</time>
   <time name="diis">    6.58    6.58</time>
   <time name="orth">    0.06    0.06</time>
   <time name="total">    9.59    9.60</time>
   <energy>
    <i name="e_fr_energy">    -48.65556348 </i>
    <i name="e_wo_entrp">    -48.66258684 </i>
    <i name="e_0_energy">    -48.65790460 </i>
   </energy>
  </scstep>
  <scstep>
   <time name="diag">    1.08    1.08</time>
   <time name="diis">    6.84    6.84</time>
   <time name="orth">    0.06    0.06</time>
   <time name="total">    9.86    9.86</time>
   <energy>
    <i name="e_fr_energy">    -48.65567374 </i>
    <i name="e_wo_entrp">    -48.66269735 </i>
    <i name="e_0_energy">    -48.65801494 </i>
   </energy>
  </scstep>
  <scstep>
   <time name="diag">    1.09    1.09</time>
   <time name="diis">    6.26    6.27</time>
   <time name="orth">    0.06    0.06</time>
   <time name="total">    9.29    9.29</time>
   <energy>
    <i name="e_fr_energy">    -48.65577193 </i>
    <i name="e_wo_entrp">    -48.66279564 </i>
    <i name="e_0_energy">    -48.65811317 </i>
   </energy>
  </scstep>
  <scstep>
   <time name="diag">    1.08    1.08</time>
   <time name="diis">    6.32    6.33</time>
   <time name="orth">    0.06    0.06</time>
   <time name="total">    9.34    9.35</time>
   <energy>
    <i name="e_fr_energy">    -48.65583454 </i>
    <i name="e_wo_entrp">    -48.66285804 </i>
    <i name="e_0_energy">    -48.65817570 </i>
   </energy>
  </scstep>
  <scstep>
   <time name="diag">    1.08    1.08</time>
   <time name="diis">    5.55    5.55</time>
   <time name="orth">    0.06    0.06</time>
   <time name="total">    8.57    8.57</time>
   <energy>
    <i name="e_fr_energy">    -48.65586062 </i>
    <i name="e_wo_entrp">    -48.66288404 </i>
    <i name="e_0_energy">    -48.65820176 </i>
   </energy>
  </scstep>
  <scstep>
   <time name="diag">    1.08    1.09</time>
   <time name="diis">    4.79    4.79</time>
   <time name="orth">    0.06    0.06</time>
   <time name="total">    7.82    7.82</time>
   <energy>
    <i name="e_fr_energy">    -48.65587189 </i>
    <i name="e_wo_entrp">    -48.66289528 </i>
    <i name="e_0_energy">    -48.65821302 </i>
   </energy>
  </scstep>
  <scstep>
   <time name="diag">    1.08    1.08</time>
   <time name="diis">    4.43    4.44</time>
   <time name="orth">    0.06    0.06</time>
   <time name="total">    7.46    7.47</time>
   <energy>
    <i name="e_fr_energy">    -48.65587611 </i>
    <i name="e_wo_entrp">    -48.66289950 </i>
    <i name="e_0_energy">    -48.65821724 </i>
   </energy>
  </scstep>
  <scstep>
   <time name="diag">    1.08    1.09</time>
   <time name="diis">    4.62    4.62</time>
   <time name="orth">    0.06    0.06</time>
   <time name="total">    7.65    7.66</time>
   <energy>
    <i name="e_fr_energy">    -48.65587953 </i>
    <i name="e_wo_entrp">    -48.66290289 </i>
    <i name="e_0_energy">    -48.65822065 </i>
   </energy>
  </scstep>
  <scstep>
   <time name="diag">    1.08    1.09</time>
   <time name="diis">    4.34    4.34</time>
   <time name="orth">    0.06    0.06</time>
   <time name="total">    7.39    7.39</time>
   <energy>
    <i name="e_fr_energy">    -48.65588067 </i>
    <i name="e_wo_entrp">    -48.66290399 </i>
    <i name="e_0_energy">    -48.65822178 </i>
   </energy>
  </scstep>
  <scstep>
   <time name="diag">    1.08    1.09</time>
   <time name="diis">    4.42    4.42</time>
   <time name="orth">    0.06    0.06</time>
   <time name="total">    7.49    7.49</time>
   <energy>
    <i name="e_fr_energy">    -48.65588150 </i>
    <i name="e_wo_entrp">    -48.66290485 </i>
    <i name="e_0_energy">    -48.65822262 </i>
   </energy>
  </scstep>
  <scstep>
   <time name="diag">    1.09    1.09</time>
   <time name="diis">    4.51    4.51</time>
   <time name="orth">    0.06    0.06</time>
   <time name="total">    7.58    7.58</time>
   <energy>
    <i name="e_fr_energy">    -48.65588210 </i>
    <i name="e_wo_entrp">    -48.66290543 </i>
    <i name="e_0_energy">    -48.65822321 </i>
   </energy>
  </scstep>
  <scstep>
   <time name="diag">    1.08    1.09</time>
   <time name="diis">    3.96    3.96</time>
   <time name="orth">    0.06    0.06</time>
   <time name="total">    7.02    7.03</time>
   <energy>
    <i name="e_fr_energy">    -48.65588268 </i>
    <i name="e_wo_entrp">    -48.66290603 </i>
    <i name="e_0_energy">    -48.65822380 </i>
   </energy>
  </scstep>
  <scstep>
   <time name="diag">    1.09    1.09</time>
   <time name="diis">    3.93    3.94</time>
   <time name="orth">    0.06    0.06</time>
   <time name="total">    7.00    7.01</time>
   <energy>
    <i name="e_fr_energy">    -48.65588305 </i>
    <i name="e_wo_entrp">    -48.66290639 </i>
    <i name="e_0_energy">    -48.65822416 </i>
   </energy>
  </scstep>
  <scstep>
   <time name="diag">    1.08    1.09</time>
   <time name="diis">    3.84    3.84</time>
   <time name="orth">    0.06    0.06</time>
   <time name="total">    6.92    6.92</time>
   <energy>
    <i name="e_fr_energy">    -48.65588330 </i>
    <i name="e_wo_entrp">    -48.66290664 </i>
    <i name="e_0_energy">    -48.65822441 </i>
   </energy>
  </scstep>
  <scstep>
   <time name="diag">    1.08    1.08</time>
   <time name="diis">    3.48    3.50</time>
   <time name="orth">    0.06    0.06</time>
   <time name="total">    6.57    6.59</time>
   <energy>
    <i name="e_fr_energy">    -48.65588348 </i>
    <i name="e_wo_entrp">    -48.66290682 </i>
    <i name="e_0_energy">    -48.65822459 </i>
   </energy>
  </scstep>
  <scstep>
   <time name="diag">    1.08    1.08</time>
   <time name="diis">    3.59    3.59</time>
   <time name="orth">    0.06    0.06</time>
   <time name="total">    5.91    5.91</time>
   <energy>
    <i name="alphaZ">     41.16232785 </i>
    <i name="ewald">  16080.87049866 </i>
    <i name="hartreedc"> -33066.77642958 </i>
    <i name="XCdc">    615.45072300 </i>
    <i name="pawpsdc">  17656.91198262 </i>
    <i name="pawaedc"> -19054.81772751 </i>
    <i name="eentropy">      0.00702334 </i>
    <i name="bandstr">   -983.68352906 </i>
    <i name="atom">  18662.21924712 </i>
    <i name="e_fr_energy">    -48.65588356 </i>
    <i name="e_wo_entrp">    -48.66290690 </i>
    <i name="e_0_energy">    -48.65822468 </i>
   </energy>
  </scstep>
  <structure>
   <crystal>
    <varray name="basis" >
     <v>      15.00000000       0.00000000       0.00000000 </v>
     <v>       0.00000000      15.00000000       0.00000000 </v>
     <v>       0.00000000       0.00000000      15.00000000 </v>
    </varray>
    <i name="volume">   3375.00000000 </i>
    <varray name="rec_basis" >
     <v>       0.06666667       0.00000000       0.00000000 </v>
     <v>       0.00000000       0.06666667       0.00000000 </v>
     <v>       0.00000000       0.00000000       0.06666667 </v>
    </varray>
   </crystal>
   <varray name="positions" >
    <v>       0.29355600       0.41760667       0.55461267 </v>
    <v>       0.37894133       0.55229867       0.49626933 </v>
    <v>       0.39791267       0.29751133       0.56689867 </v>
    <v>       0.53321133       0.50940800       0.47438667 </v>
    <v>       0.54639600       0.34989667       0.52441600 </v>
    <v>       0.44886200       0.43460200       0.61459867 </v>
    <v>       0.41477600       0.39301467       0.43971533 </v>
    <v>       0.21829000       0.56045400       0.54785000 </v>
    <v>       0.33082800       0.53911200       0.65795200 </v>
    <v>       0.35214200       0.68278000       0.57010467 </v>
    <v>       0.49100467       0.66848667       0.48031067 </v>
    <v>       0.62822200       0.48242733       0.61139000 </v>
    <v>       0.48199067       0.59631667       0.61578733 </v>
    <v>       0.74388000       0.49000267       0.64827133 </v>
    <v>       0.81711333       0.50735067       0.65076867 </v>
   </varray>
  </structure>
  <varray name="forces" >
   <v>       0.05907902       0.12326304      -0.12011403 </v>
   <v>      -0.42660697      -0.86836088      -0.34050774 </v>
   <v>      -0.11694152      -0.70989401      -0.05073034 </v>
   <v>       0.01975301      -0.30905431       0.62078029 </v>
   <v>       0.38043383       0.22441877      -0.01968194 </v>
   <v>       0.43497438       0.69233059      -0.19084487 </v>
   <v>       0.05678892       0.60139561       0.51894055 </v>
   <v>       0.37644794       0.25191475      -0.00972057 </v>
   <v>       0.25393931       0.25490447      -0.30360852 </v>
   <v>      -0.37663659       0.28697621       0.28927942 </v>
   <v>      -0.01707513       0.20586106      -0.24876539 </v>
   <v>      -0.93813566      -0.26385422      -0.48028781 </v>
   <v>       0.30544388      -0.64575208       0.31175236 </v>
   <v>      -2.95773487      -0.38776046      -0.14152086 </v>
   <v>       2.94627045       0.54361147       0.16502945 </v>
  </varray>
  <varray name="stress" >
   <v>       0.20582577      -0.26656426       0.14646481 </v>
   <v>      -0.26656426      -0.02989358       0.05373194 </v>
   <v>       0.14646481       0.05373192      -0.87225413 </v>
  </varray>
  <energy>
   <i name="e_fr_energy">    -48.65588356 </i>
   <i name="e_wo_entrp">    -48.65822468 </i>
   <i name="e_0_energy">      0.00702334 </i>
  </energy>
  <time name="totalsc">  343.53  343.80</time>
  <eigenvalues>
   <array>
    <dimension dim="1">band</dimension>
    <dimension dim="2">kpoint</dimension>
    <dimension dim="3">spin</dimension>
    <field>eigene</field>
    <field>occ</field>
    <set>
     <set comment="spin 1">
      <set comment="kpoint 1">
       <r>  -29.0433    1.0000 </r>
       <r>  -13.9196    1.0000 </r>
       <r>  -11.6584    1.0000 </r>
       <r>  -11.5303    1.0000 </r>
       <r>  -11.1677    1.0000 </r>
       <r>  -10.0318    1.0000 </r>
       <r>   -8.5573    1.0000 </r>
       <r>   -8.1137    1.0000 </r>
       <r>   -7.5830    1.0000 </r>
       <r>   -7.4652    1.0000 </r>
       <r>   -7.3293    1.0000 </r>
       <r>   -7.1750    1.0000 </r>
       <r>   -7.1255    1.0000 </r>
       <r>   -7.0371    1.0000 </r>
       <r>   -6.9206    1.0000 </r>
       <r>   -6.8234    1.0000 </r>
       <r>   -6.7696    1.0000 </r>
       <r>   -6.6762    1.0000 </r>
       <r>   -6.6020    1.0000 </r>
       <r>   -6.5406    1.0000 </r>
       <r>   -6.5035    1.0000 </r>
       <r>   -6.4540    1.0000 </r>
       <r>   -6.4260    1.0000 </r>
       <r>   -6.3888    1.0000 </r>
       <r>   -6.3609    1.0000 </r>
       <r>   -6.3133    1.0000 </r>
       <r>   -6.2817    1.0000 </r>
       <r>   -6.2758    1.0000 </r>
       <r>   -6.2190    1.0000 </r>
       <r>   -6.1820    1.0000 </r>
       <r>   -6.1560    1.0000 </r>
       <r>   -6.1240    1.0000 </r>
       <r>   -5.9976    1.0000 </r>
       <r>   -5.9553    1.0000 </r>
       <r>   -5.8985    1.0000 </r>
       <r>   -5.7944    1.0000 </r>
       <r>   -5.7189    1.0000 </r>
       <r>   -5.7070    1.0000 </r>
       <r>   -5.6631    1.0000 </r>
       <r>   -5.6020    1.0000 </r>
       <r>   -5.5300    1.0000 </r>
       <r>   -5.4951    1.0000 </r>
       <r>   -5.4631    1.0000 </r>
       <r>   -5.4486    1.0000 </r>
       <r>   -5.3957    1.0000 </r>
       <r>   -5.3439    1.0000 </r>
       <r>   -5.3375    1.0000 </r>
       <r>   -5.3244    1.0000 </r>
       <r>   -5.3065    1.0000 </r>
       <r>   -5.2843    1.0000 </r>
       <r>   -5.2588    1.0000 </r>
       <r>   -5.2155    1.0000 </r>
       <r>   -5.1951    1.0000 </r>
       <r>   -5.1806    1.0000 </r>
       <r>   -5.1341    1.0000 </r>
       <r>   -5.1131    1.0000 </r>
       <r>   -5.0965    1.0000 </r>
       <r>   -5.0806    1.0000 </r>
       <r>   -5.0461    1.0000 </r>
       <r>   -5.0343    1.0000 </r>
       <r>   -4.9982    1.0000 </r>
       <r>   -4.9785    1.0000 </r>
       <r>   -4.9658    1.0000 </r>
       <r>   -4.9394    1.0000 </r>
       <r>   -4.8988    1.0000 </r>
       <r>   -4.8762    1.0000 </r>
       <r>   -4.8648    1.0000 </r>
       <r>   -4.8298    1.0000 </r>
       <r>   -4.8153    1.0000 </r>
       <r>   -4.7837    1.0000 </r>
       <r>   -4.7708    1.0000 </r>
       <r>   -4.7144    1.0000 </r>
       <r>   -4.6651    1.0000 </r>
       <r>   -4.4930    1.0000 </r>
       <r>   -4.1709    1.0000 </r>
       <r>   -4.0272    1.0000 </r>
       <r>   -3.5260    1.0000 </r>
       <r>   -3.0030   -0.0000 </r>
       <r>   -2.8791   -0.0000 </r>
       <r>   -2.4906   -0.0000 </r>
       <r>   -2.2737   -0.0000 </r>
       <r>   -1.8964   -0.0000 </r>
       <r>   -1.7966   -0.0000 </r>
       <r>   -1.6859   -0.0000 </r>
       <r>   -1.3969   -0.0000 </r>
       <r>   -1.0972   -0.0000 </r>
       <r>   -0.8878   -0.0000 </r>
       <r>   -0.7708   -0.0000 </r>
       <r>   -0.4061    0.0000 </r>
       <r>   -0.1862    0.0000 </r>
       <r>   -0.0570    0.0000 </r>
       <r>    0.0393    0.0000 </r>
      </set>
     </set>
     <set comment="spin 2">
      <set comment="kpoint 1">
       <r>  -29.0264    1.0000 </r>
       <r>  -13.8895    1.0000 </r>
       <r>  -11.6234    1.0000 </r>
       <r>  -11.5202    1.0000 </r>
       <r>  -11.1184    1.0000 </r>
       <r>   -9.9894    1.0000 </r>
       <r>   -8.5344    1.0000 </r>
       <r>   -8.0708    1.0000 </r>
       <r>   -7.5378    1.0000 </r>
       <r>   -7.4427    1.0000 </r>
       <r>   -7.2955    1.0000 </r>
       <r>   -7.1322    1.0000 </r>
       <r>   -7.0986    1.0000 </r>
       <r>   -7.0073    1.0000 </r>
       <r>   -6.8970    1.0000 </r>
       <r>   -6.7943    1.0000 </r>
       <r>   -6.7448    1.0000 </r>
       <r>   -6.6464    1.0000 </r>
       <r>   -6.5708    1.0000 </r>
       <r>   -6.5187    1.0000 </r>
       <r>   -6.4839    1.0000 </r>
       <r>   -6.4315    1.0000 </r>
       <r>   -6.4035    1.0000 </r>
       <r>   -6.3679    1.0000 </r>
       <r>   -6.3308    1.0000 </r>
       <r>   -6.2829    1.0000 </r>
       <r>   -6.2587    1.0000 </r>
       <r>   -6.2520    1.0000 </r>
       <r>   -6.1961    1.0000 </r>
       <r>   -6.1576    1.0000 </r>
       <r>   -6.1213    1.0000 </r>
       <r>   -6.0978    1.0000 </r>
       <r>   -5.9748    1.0000 </r>
       <r>   -5.9317    1.0000 </r>
       <r>   -5.8765    1.0000 </r>
       <r>   -5.7623    1.0000 </r>
       <r>   -5.6894    1.0000 </r>
       <r>   -5.6804    1.0000 </r>
       <r>   -5.6443    1.0000 </r>
       <r>   -5.5707    1.0000 </r>
       <r>   -5.5050    1.0000 </r>
       <r>   -5.4716    1.0000 </r>
       <r>   -5.4341    1.0000 </r>
       <r>   -5.4238    1.0000 </r>
       <r>   -5.3671    1.0000 </r>
       <r>   -5.3153    1.0000 </r>
       <r>   -5.3066    1.0000 </r>
       <r>   -5.2925    1.0000 </r>
       <r>   -5.2795    1.0000 </r>
       <r>   -5.2608    1.0000 </r>
       <r>   -5.2224    1.0000 </r>
       <r>   -5.1942    1.0000 </r>
       <r>   -5.1711    1.0000 </r>
       <r>   -5.1613    1.0000 </r>
       <r>   -5.1084    1.0000 </r>
       <r>   -5.0860    1.0000 </r>
       <r>   -5.0766    1.0000 </r>
       <r>   -5.0551    1.0000 </r>
       <r>   -5.0258    1.0000 </r>
       <r>   -5.0003    1.0000 </r>
       <r>   -4.9725    1.0000 </r>
       <r>   -4.9565    1.0000 </r>
       <r>   -4.9475    1.0000 </r>
       <r>   -4.9080    1.0000 </r>
       <r>   -4.8672    1.0000 </r>
       <r>   -4.8450    1.0000 </r>
       <r>   -4.8293    1.0000 </r>
       <r>   -4.8028    1.0000 </r>
       <r>   -4.7843    1.0000 </r>
       <r>   -4.7501    1.0000 </r>
       <r>   -4.7336    1.0000 </r>
       <r>   -4.6917    1.0000 </r>
       <r>   -4.6314    1.0000 </r>
       <r>   -4.4481    1.0000 </r>
       <r>   -4.1041    1.0086 </r>
       <r>   -3.9871    0.9914 </r>
       <r>   -3.3294   -0.0000 </r>
       <r>   -2.9506   -0.0000 </r>
       <r>   -2.8291   -0.0000 </r>
       <r>   -2.4143   -0.0000 </r>
       <r>   -2.1921   -0.0000 </r>
       <r>   -1.8622   -0.0000 </r>
       <r>   -1.7145   -0.0000 </r>
       <r>   -1.6235   -0.0000 </r>
       <r>   -1.2877   -0.0000 </r>
       <r>   -0.9393    0.0000 </r>
       <r>   -0.8340    0.0000 </r>
       <r>   -0.6978    0.0000 </r>
       <r>   -0.2907    0.0000 </r>
       <r>   -0.1303    0.0000 </r>
       <r>    0.0051    0.0000 </r>
       <r>    0.0925    0.0000 </r>
      </set>
     </set>
    </set>
   </array>
  </eigenvalues>
  <separator name="orbital magnetization" >
   <v name="MAGDIPOLOUT">      0.00000000      0.00000000      0.00000000</v>
  </separator>
  <dos>
   <i name="efermi">     -3.90655556 </i>
   <total>
    <array>
     <dimension dim="1">gridpoints</dimension>
     <dimension dim="2">spin</dimension>
     <field>energy</field>
     <field>total</field>
     <field>integrated</field>
     <set>
      <set comment="spin 1">
       <r>   -30.5001     0.0000     0.0000 </r>
       <r>   -30.3933     0.0000     0.0000 </r>
       <r>   -30.2864     0.0000     0.0000 </r>
       <r>   -30.1796     0.0000     0.0000 </r>
       <r>   -30.0728     0.0000     0.0000 </r>
       <r>   -29.9659     0.0000     0.0000 </r>
       <r>   -29.8591    -0.0000    -0.0000 </r>
       <r>   -29.7523    -0.0000    -0.0000 </r>
       <r>   -29.6455    -0.0000    -0.0000 </r>
       <r>   -29.5386    -0.0000    -0.0000 </r>
       <r>   -29.4318    -0.0000    -0.0000 </r>
       <r>   -29.3250    -0.0047    -0.0005 </r>
       <r>   -29.2181    -0.3042    -0.0330 </r>
       <r>   -29.1113     1.1956     0.0947 </r>
       <r>   -29.0045    14.1439     1.6057 </r>
       <r>   -28.8976     4.2433     2.0591 </r>
       <r>   -28.7908    -0.5334     2.0021 </r>
       <r>   -28.6840    -0.0193     2.0000 </r>
       <r>   -28.5771    -0.0000     2.0000 </r>
       <r>   -28.4703    -0.0000     2.0000 </r>
       <r>   -28.3635    -0.0000     2.0000 </r>
       <r>   -28.2566     0.0000     2.0000 </r>
       <r>   -28.1498     0.0000     2.0000 </r>
       <r>   -28.0430     0.0000     2.0000 </r>
       <r>   -27.9362     0.0000     2.0000 </r>
       <r>   -27.8293     0.0000     2.0000 </r>
       <r>   -27.7225     0.0000     2.0000 </r>
       <r>   -27.6157     0.0000     2.0000 </r>
       <r>   -27.5088     0.0000     2.0000 </r>
       <r>   -27.4020     0.0000     2.0000 </r>
       <r>   -27.2952     0.0000     2.0000 </r>
       <r>   -27.1883     0.0000     2.0000 </r>
       <r>   -27.0815     0.0000     2.0000 </r>
       <r>   -26.9747     0.0000     2.0000 </r>
       <r>   -26.8678     0.0000     2.0000 </r>
       <r>   -26.7610     0.0000     2.0000 </r>
       <r>   -26.6542     0.0000     2.0000 </r>
       <r>   -26.5473     0.0000     2.0000 </r>
       <r>   -26.4405     0.0000     2.0000 </r>
       <r>   -26.3337     0.0000     2.0000 </r>
       <r>   -26.2268     0.0000     2.0000 </r>
       <r>   -26.1200     0.0000     2.0000 </r>
       <r>   -26.0132     0.0000     2.0000 </r>
       <r>   -25.9064     0.0000     2.0000 </r>
       <r>   -25.7995     0.0000     2.0000 </r>
       <r>   -25.6927     0.0000     2.0000 </r>
       <r>   -25.5859     0.0000     2.0000 </r>
       <r>   -25.4790     0.0000     2.0000 </r>
       <r>   -25.3722     0.0000     2.0000 </r>
       <r>   -25.2654     0.0000     2.0000 </r>
       <r>   -25.1585     0.0000     2.0000 </r>
       <r>   -25.0517     0.0000     2.0000 </r>
       <r>   -24.9449     0.0000     2.0000 </r>
       <r>   -24.8380     0.0000     2.0000 </r>
       <r>   -24.7312     0.0000     2.0000 </r>
       <r>   -24.6244     0.0000     2.0000 </r>
       <r>   -24.5175     0.0000     2.0000 </r>
       <r>   -24.4107     0.0000     2.0000 </r>
       <r>   -24.3039     0.0000     2.0000 </r>
       <r>   -24.1971     0.0000     2.0000 </r>
       <r>   -24.0902     0.0000     2.0000 </r>
       <r>   -23.9834     0.0000     2.0000 </r>
       <r>   -23.8766     0.0000     2.0000 </r>
       <r>   -23.7697     0.0000     2.0000 </r>
       <r>   -23.6629     0.0000     2.0000 </r>
       <r>   -23.5561     0.0000     2.0000 </r>
       <r>   -23.4492     0.0000     2.0000 </r>
       <r>   -23.3424     0.0000     2.0000 </r>
       <r>   -23.2356     0.0000     2.0000 </r>
       <r>   -23.1287     0.0000     2.0000 </r>
       <r>   -23.0219     0.0000     2.0000 </r>
       <r>   -22.9151     0.0000     2.0000 </r>
       <r>   -22.8082     0.0000     2.0000 </r>
       <r>   -22.7014     0.0000     2.0000 </r>
       <r>   -22.5946     0.0000     2.0000 </r>
       <r>   -22.4878     0.0000     2.0000 </r>
       <r>   -22.3809     0.0000     2.0000 </r>
       <r>   -22.2741     0.0000     2.0000 </r>
       <r>   -22.1673     0.0000     2.0000 </r>
       <r>   -22.0604     0.0000     2.0000 </r>
       <r>   -21.9536     0.0000     2.0000 </r>
       <r>   -21.8468     0.0000     2.0000 </r>
       <r>   -21.7399     0.0000     2.0000 </r>
       <r>   -21.6331     0.0000     2.0000 </r>
       <r>   -21.5263     0.0000     2.0000 </r>
       <r>   -21.4194     0.0000     2.0000 </r>
       <r>   -21.3126     0.0000     2.0000 </r>
       <r>   -21.2058     0.0000     2.0000 </r>
       <r>   -21.0989     0.0000     2.0000 </r>
       <r>   -20.9921     0.0000     2.0000 </r>
       <r>   -20.8853     0.0000     2.0000 </r>
       <r>   -20.7785     0.0000     2.0000 </r>
       <r>   -20.6716     0.0000     2.0000 </r>
       <r>   -20.5648     0.0000     2.0000 </r>
       <r>   -20.4580     0.0000     2.0000 </r>
       <r>   -20.3511     0.0000     2.0000 </r>
       <r>   -20.2443     0.0000     2.0000 </r>
       <r>   -20.1375     0.0000     2.0000 </r>
       <r>   -20.0306     0.0000     2.0000 </r>
       <r>   -19.9238     0.0000     2.0000 </r>
       <r>   -19.8170     0.0000     2.0000 </r>
       <r>   -19.7101     0.0000     2.0000 </r>
       <r>   -19.6033     0.0000     2.0000 </r>
       <r>   -19.4965     0.0000     2.0000 </r>
       <r>   -19.3896     0.0000     2.0000 </r>
       <r>   -19.2828     0.0000     2.0000 </r>
       <r>   -19.1760     0.0000     2.0000 </r>
       <r>   -19.0692     0.0000     2.0000 </r>
       <r>   -18.9623     0.0000     2.0000 </r>
       <r>   -18.8555     0.0000     2.0000 </r>
       <r>   -18.7487     0.0000     2.0000 </r>
       <r>   -18.6418     0.0000     2.0000 </r>
       <r>   -18.5350     0.0000     2.0000 </r>
       <r>   -18.4282     0.0000     2.0000 </r>
       <r>   -18.3213     0.0000     2.0000 </r>
       <r>   -18.2145     0.0000     2.0000 </r>
       <r>   -18.1077     0.0000     2.0000 </r>
       <r>   -18.0008     0.0000     2.0000 </r>
       <r>   -17.8940     0.0000     2.0000 </r>
       <r>   -17.7872     0.0000     2.0000 </r>
       <r>   -17.6803     0.0000     2.0000 </r>
       <r>   -17.5735     0.0000     2.0000 </r>
       <r>   -17.4667     0.0000     2.0000 </r>
       <r>   -17.3599     0.0000     2.0000 </r>
       <r>   -17.2530     0.0000     2.0000 </r>
       <r>   -17.1462     0.0000     2.0000 </r>
       <r>   -17.0394     0.0000     2.0000 </r>
       <r>   -16.9325     0.0000     2.0000 </r>
       <r>   -16.8257     0.0000     2.0000 </r>
       <r>   -16.7189     0.0000     2.0000 </r>
       <r>   -16.6120     0.0000     2.0000 </r>
       <r>   -16.5052     0.0000     2.0000 </r>
       <r>   -16.3984     0.0000     2.0000 </r>
       <r>   -16.2915     0.0000     2.0000 </r>
       <r>   -16.1847     0.0000     2.0000 </r>
       <r>   -16.0779     0.0000     2.0000 </r>
       <r>   -15.9710     0.0000     2.0000 </r>
       <r>   -15.8642     0.0000     2.0000 </r>
       <r>   -15.7574     0.0000     2.0000 </r>
       <r>   -15.6506     0.0000     2.0000 </r>
       <r>   -15.5437     0.0000     2.0000 </r>
       <r>   -15.4369     0.0000     2.0000 </r>
       <r>   -15.3301     0.0000     2.0000 </r>
       <r>   -15.2232     0.0000     2.0000 </r>
       <r>   -15.1164     0.0000     2.0000 </r>
       <r>   -15.0096     0.0000     2.0000 </r>
       <r>   -14.9027     0.0000     2.0000 </r>
       <r>   -14.7959    -0.0000     2.0000 </r>
       <r>   -14.6891    -0.0000     2.0000 </r>
       <r>   -14.5822    -0.0000     2.0000 </r>
       <r>   -14.4754    -0.0000     2.0000 </r>
       <r>   -14.3686    -0.0000     2.0000 </r>
       <r>   -14.2617    -0.0001     2.0000 </r>
       <r>   -14.1549    -0.0405     1.9957 </r>
       <r>   -14.0481    -0.6134     1.9301 </r>
       <r>   -13.9413     6.6659     2.6422 </r>
       <r>   -13.8344    12.7477     4.0041 </r>
       <r>   -13.7276     0.1539     4.0205 </r>
       <r>   -13.6208    -0.1904     4.0002 </r>
       <r>   -13.5139    -0.0019     4.0000 </r>
       <r>   -13.4071    -0.0000     4.0000 </r>
       <r>   -13.3003    -0.0000     4.0000 </r>
       <r>   -13.1934     0.0000     4.0000 </r>
       <r>   -13.0866     0.0000     4.0000 </r>
       <r>   -12.9798     0.0000     4.0000 </r>
       <r>   -12.8729     0.0000     4.0000 </r>
       <r>   -12.7661     0.0000     4.0000 </r>
       <r>   -12.6593     0.0000     4.0000 </r>
       <r>   -12.5524    -0.0000     4.0000 </r>
       <r>   -12.4456    -0.0000     4.0000 </r>
       <r>   -12.3388    -0.0000     4.0000 </r>
       <r>   -12.2320    -0.0000     4.0000 </r>
       <r>   -12.1251    -0.0000     4.0000 </r>
       <r>   -12.0183    -0.0000     4.0000 </r>
       <r>   -11.9115    -0.0189     3.9980 </r>
       <r>   -11.8046    -0.5366     3.9406 </r>
       <r>   -11.6978     3.8154     4.3483 </r>
       <r>   -11.5910    15.9798     6.0554 </r>
       <r>   -11.4841    15.6740     7.7299 </r>
       <r>   -11.3773     2.9175     8.0416 </r>
       <r>   -11.2705    -0.8956     7.9459 </r>
       <r>   -11.1636    10.5045     9.0681 </r>
       <r>   -11.0568     9.3417    10.0661 </r>
       <r>   -10.9500    -0.5373    10.0087 </r>
       <r>   -10.8431    -0.0807    10.0000 </r>
       <r>   -10.7363    -0.0004    10.0000 </r>
       <r>   -10.6295    -0.0000    10.0000 </r>
       <r>   -10.5227    -0.0000    10.0000 </r>
       <r>   -10.4158    -0.0000    10.0000 </r>
       <r>   -10.3090    -0.0059     9.9994 </r>
       <r>   -10.2022    -0.3384     9.9632 </r>
       <r>   -10.0953     1.5572    10.1296 </r>
       <r>    -9.9885    14.3470    11.6623 </r>
       <r>    -9.8817     3.6778    12.0552 </r>
       <r>    -9.7748    -0.5007    12.0017 </r>
       <r>    -9.6680    -0.0158    12.0000 </r>
       <r>    -9.5612    -0.0000    12.0000 </r>
       <r>    -9.4543    -0.0000    12.0000 </r>
       <r>    -9.3475    -0.0000    12.0000 </r>
       <r>    -9.2407    -0.0000    12.0000 </r>
       <r>    -9.1338    -0.0000    12.0000 </r>
       <r>    -9.0270    -0.0000    12.0000 </r>
       <r>    -8.9202    -0.0000    12.0000 </r>
       <r>    -8.8134    -0.0164    11.9982 </r>
       <r>    -8.7065    -0.5076    11.9440 </r>
       <r>    -8.5997     3.7905    12.3490 </r>
       <r>    -8.4929    14.3113    13.8779 </r>
       <r>    -8.3860     1.4728    14.0352 </r>
       <r>    -8.2792    -0.7085    13.9595 </r>
       <r>    -8.1724     1.9903    14.1721 </r>
       <r>    -8.0655    14.4863    15.7197 </r>
       <r>    -7.9587     3.0987    16.0508 </r>
       <r>    -7.8519    -0.4715    16.0004 </r>
       <r>    -7.7450    -0.4226    15.9552 </r>
       <r>    -7.6382     2.0124    16.1702 </r>
       <r>    -7.5314    15.7337    17.8511 </r>
       <r>    -7.4245    16.7049    19.6357 </r>
       <r>    -7.3177    14.3675    21.1706 </r>
       <r>    -7.2109    12.1255    22.4660 </r>
       <r>    -7.1041    27.1063    25.3618 </r>
       <r>    -6.9972    22.0643    27.7189 </r>
       <r>    -6.8904    17.3335    29.5707 </r>
       <r>    -6.7836    26.1001    32.3590 </r>
       <r>    -6.6767    24.9419    35.0236 </r>
       <r>    -6.5699    28.3653    38.0539 </r>
       <r>    -6.4631    44.6297    42.8217 </r>
       <r>    -6.3562    57.2845    48.9415 </r>
       <r>    -6.2494    61.4075    55.5017 </r>
       <r>    -6.1426    56.9468    61.5854 </r>
       <r>    -6.0357    27.5769    64.5315 </r>
       <r>    -5.9289    30.5095    67.7909 </r>
       <r>    -5.8221    24.7200    70.4317 </r>
       <r>    -5.7152    33.9818    74.0621 </r>
       <r>    -5.6084    43.0496    78.6611 </r>
       <r>    -5.5016    39.5074    82.8817 </r>
       <r>    -5.3948    58.6226    89.1445 </r>
       <r>    -5.2879    81.8825    97.8921 </r>
       <r>    -5.1811    77.6449   106.1870 </r>
       <r>    -5.0743    81.4382   114.8871 </r>
       <r>    -4.9674    86.8697   124.1675 </r>
       <r>    -4.8606    82.0005   132.9277 </r>
       <r>    -4.7538    77.3359   141.1896 </r>
       <r>    -4.6469    39.1384   145.3708 </r>
       <r>    -4.5401     9.6884   146.4059 </r>
       <r>    -4.4333    13.4406   147.8417 </r>
       <r>    -4.3264     1.3856   147.9898 </r>
       <r>    -4.2196     2.4746   148.2541 </r>
       <r>    -4.1128    14.6236   149.8164 </r>
       <r>    -4.0059    14.7513   151.3923 </r>
       <r>    -3.8991     6.3518   152.0709 </r>
       <r>    -3.7923    -0.6319   152.0033 </r>
       <r>    -3.6855    -0.4676   151.9534 </r>
       <r>    -3.5786     2.6043   152.2316 </r>
       <r>    -3.4718    14.5368   153.7846 </r>
       <r>    -3.3650     2.4392   154.0452 </r>
       <r>    -3.2581    -0.4306   153.9992 </r>
       <r>    -3.1513    -0.5314   153.9424 </r>
       <r>    -3.0445     3.5268   154.3192 </r>
       <r>    -2.9376    16.2781   156.0582 </r>
       <r>    -2.8308    15.8930   157.7561 </r>
       <r>    -2.7240     2.7190   158.0465 </r>
       <r>    -2.6171    -1.0824   157.9309 </r>
       <r>    -2.5103     6.9131   158.6694 </r>
       <r>    -2.4035    11.9191   159.9428 </r>
       <r>    -2.2966     6.5523   160.6427 </r>
       <r>    -2.1898    12.6931   161.9988 </r>
       <r>    -2.0830    -0.0178   161.9969 </r>
       <r>    -1.9762    -0.0477   161.9918 </r>
       <r>    -1.8693    13.8888   163.4755 </r>
       <r>    -1.7625    20.3318   165.6476 </r>
       <r>    -1.6557    17.8240   167.5517 </r>
       <r>    -1.5488     4.3320   168.0145 </r>
       <r>    -1.4420     2.8532   168.3194 </r>
       <r>    -1.3352    14.3430   169.8516 </r>
       <r>    -1.2283     1.1029   169.9695 </r>
       <r>    -1.1215     5.8780   170.5974 </r>
       <r>    -1.0147    12.3703   171.9189 </r>
       <r>    -0.9078     6.6137   172.6255 </r>
       <r>    -0.8010    17.7760   174.5245 </r>
       <r>    -0.6942    13.6315   175.9808 </r>
       <r>    -0.5873     0.1666   175.9986 </r>
       <r>    -0.4805     0.4914   176.0511 </r>
       <r>    -0.3737    13.5051   177.4939 </r>
       <r>    -0.2669     5.3843   178.0691 </r>
       <r>    -0.1600    12.0554   179.3570 </r>
       <r>    -0.0532    16.3260   181.1011 </r>
       <r>     0.0536    20.6767   183.3100 </r>
       <r>     0.1605     7.2038   184.0796 </r>
       <r>     0.2673    -0.6902   184.0059 </r>
       <r>     0.3741    -0.0548   184.0000 </r>
       <r>     0.4810    -0.0002   184.0000 </r>
       <r>     0.5878    -0.0000   184.0000 </r>
       <r>     0.6946    -0.0000   184.0000 </r>
       <r>     0.8015     0.0000   184.0000 </r>
       <r>     0.9083     0.0000   184.0000 </r>
       <r>     1.0151     0.0000   184.0000 </r>
       <r>     1.1220     0.0000   184.0000 </r>
       <r>     1.2288     0.0000   184.0000 </r>
       <r>     1.3356     0.0000   184.0000 </r>
       <r>     1.4424     0.0000   184.0000 </r>
       <r>     1.5493     0.0000   184.0000 </r>
      </set>
      <set comment="spin 2">
       <r>   -30.5001     0.0000     0.0000 </r>
       <r>   -30.3933     0.0000     0.0000 </r>
       <r>   -30.2864     0.0000     0.0000 </r>
       <r>   -30.1796     0.0000     0.0000 </r>
       <r>   -30.0728     0.0000     0.0000 </r>
       <r>   -29.9659     0.0000     0.0000 </r>
       <r>   -29.8591    -0.0000    -0.0000 </r>
       <r>   -29.7523    -0.0000    -0.0000 </r>
       <r>   -29.6455    -0.0000    -0.0000 </r>
       <r>   -29.5386    -0.0000    -0.0000 </r>
       <r>   -29.4318    -0.0000    -0.0000 </r>
       <r>   -29.3250    -0.0019    -0.0002 </r>
       <r>   -29.2181    -0.1917    -0.0207 </r>
       <r>   -29.1113     0.1641    -0.0032 </r>
       <r>   -29.0045    12.7714     1.3612 </r>
       <r>   -28.8976     6.6327     2.0698 </r>
       <r>   -28.7908    -0.6131     2.0043 </r>
       <r>   -28.6840    -0.0402     2.0000 </r>
       <r>   -28.5771    -0.0001     2.0000 </r>
       <r>   -28.4703    -0.0000     2.0000 </r>
       <r>   -28.3635    -0.0000     2.0000 </r>
       <r>   -28.2566     0.0000     2.0000 </r>
       <r>   -28.1498     0.0000     2.0000 </r>
       <r>   -28.0430     0.0000     2.0000 </r>
       <r>   -27.9362     0.0000     2.0000 </r>
       <r>   -27.8293     0.0000     2.0000 </r>
       <r>   -27.7225     0.0000     2.0000 </r>
       <r>   -27.6157     0.0000     2.0000 </r>
       <r>   -27.5088     0.0000     2.0000 </r>
       <r>   -27.4020     0.0000     2.0000 </r>
       <r>   -27.2952     0.0000     2.0000 </r>
       <r>   -27.1883     0.0000     2.0000 </r>
       <r>   -27.0815     0.0000     2.0000 </r>
       <r>   -26.9747     0.0000     2.0000 </r>
       <r>   -26.8678     0.0000     2.0000 </r>
       <r>   -26.7610     0.0000     2.0000 </r>
       <r>   -26.6542     0.0000     2.0000 </r>
       <r>   -26.5473     0.0000     2.0000 </r>
       <r>   -26.4405     0.0000     2.0000 </r>
       <r>   -26.3337     0.0000     2.0000 </r>
       <r>   -26.2268     0.0000     2.0000 </r>
       <r>   -26.1200     0.0000     2.0000 </r>
       <r>   -26.0132     0.0000     2.0000 </r>
       <r>   -25.9064     0.0000     2.0000 </r>
       <r>   -25.7995     0.0000     2.0000 </r>
       <r>   -25.6927     0.0000     2.0000 </r>
       <r>   -25.5859     0.0000     2.0000 </r>
       <r>   -25.4790     0.0000     2.0000 </r>
       <r>   -25.3722     0.0000     2.0000 </r>
       <r>   -25.2654     0.0000     2.0000 </r>
       <r>   -25.1585     0.0000     2.0000 </r>
       <r>   -25.0517     0.0000     2.0000 </r>
       <r>   -24.9449     0.0000     2.0000 </r>
       <r>   -24.8380     0.0000     2.0000 </r>
       <r>   -24.7312     0.0000     2.0000 </r>
       <r>   -24.6244     0.0000     2.0000 </r>
       <r>   -24.5175     0.0000     2.0000 </r>
       <r>   -24.4107     0.0000     2.0000 </r>
       <r>   -24.3039     0.0000     2.0000 </r>
       <r>   -24.1971     0.0000     2.0000 </r>
       <r>   -24.0902     0.0000     2.0000 </r>
       <r>   -23.9834     0.0000     2.0000 </r>
       <r>   -23.8766     0.0000     2.0000 </r>
       <r>   -23.7697     0.0000     2.0000 </r>
       <r>   -23.6629     0.0000     2.0000 </r>
       <r>   -23.5561     0.0000     2.0000 </r>
       <r>   -23.4492     0.0000     2.0000 </r>
       <r>   -23.3424     0.0000     2.0000 </r>
       <r>   -23.2356     0.0000     2.0000 </r>
       <r>   -23.1287     0.0000     2.0000 </r>
       <r>   -23.0219     0.0000     2.0000 </r>
       <r>   -22.9151     0.0000     2.0000 </r>
       <r>   -22.8082     0.0000     2.0000 </r>
       <r>   -22.7014     0.0000     2.0000 </r>
       <r>   -22.5946     0.0000     2.0000 </r>
       <r>   -22.4878     0.0000     2.0000 </r>
       <r>   -22.3809     0.0000     2.0000 </r>
       <r>   -22.2741     0.0000     2.0000 </r>
       <r>   -22.1673     0.0000     2.0000 </r>
       <r>   -22.0604     0.0000     2.0000 </r>
       <r>   -21.9536     0.0000     2.0000 </r>
       <r>   -21.8468     0.0000     2.0000 </r>
       <r>   -21.7399     0.0000     2.0000 </r>
       <r>   -21.6331     0.0000     2.0000 </r>
       <r>   -21.5263     0.0000     2.0000 </r>
       <r>   -21.4194     0.0000     2.0000 </r>
       <r>   -21.3126     0.0000     2.0000 </r>
       <r>   -21.2058     0.0000     2.0000 </r>
       <r>   -21.0989     0.0000     2.0000 </r>
       <r>   -20.9921     0.0000     2.0000 </r>
       <r>   -20.8853     0.0000     2.0000 </r>
       <r>   -20.7785     0.0000     2.0000 </r>
       <r>   -20.6716     0.0000     2.0000 </r>
       <r>   -20.5648     0.0000     2.0000 </r>
       <r>   -20.4580     0.0000     2.0000 </r>
       <r>   -20.3511     0.0000     2.0000 </r>
       <r>   -20.2443     0.0000     2.0000 </r>
       <r>   -20.1375     0.0000     2.0000 </r>
       <r>   -20.0306     0.0000     2.0000 </r>
       <r>   -19.9238     0.0000     2.0000 </r>
       <r>   -19.8170     0.0000     2.0000 </r>
       <r>   -19.7101     0.0000     2.0000 </r>
       <r>   -19.6033     0.0000     2.0000 </r>
       <r>   -19.4965     0.0000     2.0000 </r>
       <r>   -19.3896     0.0000     2.0000 </r>
       <r>   -19.2828     0.0000     2.0000 </r>
       <r>   -19.1760     0.0000     2.0000 </r>
       <r>   -19.0692     0.0000     2.0000 </r>
       <r>   -18.9623     0.0000     2.0000 </r>
       <r>   -18.8555     0.0000     2.0000 </r>
       <r>   -18.7487     0.0000     2.0000 </r>
       <r>   -18.6418     0.0000     2.0000 </r>
       <r>   -18.5350     0.0000     2.0000 </r>
       <r>   -18.4282     0.0000     2.0000 </r>
       <r>   -18.3213     0.0000     2.0000 </r>
       <r>   -18.2145     0.0000     2.0000 </r>
       <r>   -18.1077     0.0000     2.0000 </r>
       <r>   -18.0008     0.0000     2.0000 </r>
       <r>   -17.8940     0.0000     2.0000 </r>
       <r>   -17.7872     0.0000     2.0000 </r>
       <r>   -17.6803     0.0000     2.0000 </r>
       <r>   -17.5735     0.0000     2.0000 </r>
       <r>   -17.4667     0.0000     2.0000 </r>
       <r>   -17.3599     0.0000     2.0000 </r>
       <r>   -17.2530     0.0000     2.0000 </r>
       <r>   -17.1462     0.0000     2.0000 </r>
       <r>   -17.0394     0.0000     2.0000 </r>
       <r>   -16.9325     0.0000     2.0000 </r>
       <r>   -16.8257     0.0000     2.0000 </r>
       <r>   -16.7189     0.0000     2.0000 </r>
       <r>   -16.6120     0.0000     2.0000 </r>
       <r>   -16.5052     0.0000     2.0000 </r>
       <r>   -16.3984     0.0000     2.0000 </r>
       <r>   -16.2915     0.0000     2.0000 </r>
       <r>   -16.1847     0.0000     2.0000 </r>
       <r>   -16.0779     0.0000     2.0000 </r>
       <r>   -15.9710     0.0000     2.0000 </r>
       <r>   -15.8642     0.0000     2.0000 </r>
       <r>   -15.7574     0.0000     2.0000 </r>
       <r>   -15.6506     0.0000     2.0000 </r>
       <r>   -15.5437     0.0000     2.0000 </r>
       <r>   -15.4369     0.0000     2.0000 </r>
       <r>   -15.3301     0.0000     2.0000 </r>
       <r>   -15.2232     0.0000     2.0000 </r>
       <r>   -15.1164     0.0000     2.0000 </r>
       <r>   -15.0096     0.0000     2.0000 </r>
       <r>   -14.9027     0.0000     2.0000 </r>
       <r>   -14.7959    -0.0000     2.0000 </r>
       <r>   -14.6891    -0.0000     2.0000 </r>
       <r>   -14.5822    -0.0000     2.0000 </r>
       <r>   -14.4754    -0.0000     2.0000 </r>
       <r>   -14.3686    -0.0000     2.0000 </r>
       <r>   -14.2617    -0.0000     2.0000 </r>
       <r>   -14.1549    -0.0106     1.9989 </r>
       <r>   -14.0481    -0.4334     1.9526 </r>
       <r>   -13.9413     2.6974     2.2407 </r>
       <r>   -13.8344    14.5329     3.7933 </r>
       <r>   -13.7276     2.3503     4.0444 </r>
       <r>   -13.6208    -0.4064     4.0010 </r>
       <r>   -13.5139    -0.0090     4.0000 </r>
       <r>   -13.4071    -0.0000     4.0000 </r>
       <r>   -13.3003    -0.0000     4.0000 </r>
       <r>   -13.1934    -0.0000     4.0000 </r>
       <r>   -13.0866     0.0000     4.0000 </r>
       <r>   -12.9798     0.0000     4.0000 </r>
       <r>   -12.8729     0.0000     4.0000 </r>
       <r>   -12.7661     0.0000     4.0000 </r>
       <r>   -12.6593     0.0000     4.0000 </r>
       <r>   -12.5524     0.0000     4.0000 </r>
       <r>   -12.4456    -0.0000     4.0000 </r>
       <r>   -12.3388    -0.0000     4.0000 </r>
       <r>   -12.2320    -0.0000     4.0000 </r>
       <r>   -12.1251    -0.0000     4.0000 </r>
       <r>   -12.0183    -0.0000     4.0000 </r>
       <r>   -11.9115    -0.0033     3.9996 </r>
       <r>   -11.8046    -0.2618     3.9717 </r>
       <r>   -11.6978     0.4561     4.0204 </r>
       <r>   -11.5910    14.7156     5.5925 </r>
       <r>   -11.4841    19.0963     7.6326 </r>
       <r>   -11.3773     4.0250     8.0626 </r>
       <r>   -11.2705    -1.0640     7.9489 </r>
       <r>   -11.1636     3.4241     8.3147 </r>
       <r>   -11.0568    14.4119     9.8543 </r>
       <r>   -10.9500     1.7235    10.0385 </r>
       <r>   -10.8431    -0.3534    10.0007 </r>
       <r>   -10.7363    -0.0065    10.0000 </r>
       <r>   -10.6295    -0.0000    10.0000 </r>
       <r>   -10.5227    -0.0000    10.0000 </r>
       <r>   -10.4158    -0.0000    10.0000 </r>
       <r>   -10.3090    -0.0006     9.9999 </r>
       <r>   -10.2022    -0.0963     9.9896 </r>
       <r>   -10.0953    -0.4695     9.9395 </r>
       <r>    -9.9885    10.0661    11.0149 </r>
       <r>    -9.8817     9.8090    12.0628 </r>
       <r>    -9.7748    -0.4967    12.0097 </r>
       <r>    -9.6680    -0.0905    12.0001 </r>
       <r>    -9.5612    -0.0005    12.0000 </r>
       <r>    -9.4543    -0.0000    12.0000 </r>
       <r>    -9.3475    -0.0000    12.0000 </r>
       <r>    -9.2407    -0.0000    12.0000 </r>
       <r>    -9.1338    -0.0000    12.0000 </r>
       <r>    -9.0270    -0.0000    12.0000 </r>
       <r>    -8.9202    -0.0000    12.0000 </r>
       <r>    -8.8134    -0.0054    11.9994 </r>
       <r>    -8.7065    -0.3249    11.9647 </r>
       <r>    -8.5997     1.4116    12.1155 </r>
       <r>    -8.4929    14.2762    13.6407 </r>
       <r>    -8.3860     3.8938    14.0566 </r>
       <r>    -8.2792    -0.6261    13.9898 </r>
       <r>    -8.1724    -0.4037    13.9466 </r>
       <r>    -8.0655    10.6913    15.0888 </r>
       <r>    -7.9587     9.1575    16.0671 </r>
       <r>    -7.8519    -0.5514    16.0082 </r>
       <r>    -7.7450    -0.1954    15.9873 </r>
       <r>    -7.6382    -0.5332    15.9304 </r>
       <r>    -7.5314    10.8149    17.0857 </r>
       <r>    -7.4245    20.7307    19.3004 </r>
       <r>    -7.3177    12.9103    20.6796 </r>
       <r>    -7.2109    11.9088    21.9519 </r>
       <r>    -7.1041    22.2422    24.3280 </r>
       <r>    -6.9972    27.0903    27.2221 </r>
       <r>    -6.8904    17.5208    29.0939 </r>
       <r>    -6.7836    23.2182    31.5743 </r>
       <r>    -6.6767    26.1113    34.3638 </r>
       <r>    -6.5699    25.9005    37.1308 </r>
       <r>    -6.4631    43.0353    41.7283 </r>
       <r>    -6.3562    53.6017    47.4547 </r>
       <r>    -6.2494    60.7853    53.9485 </r>
       <r>    -6.1426    58.2885    60.1755 </r>
       <r>    -6.0357    36.2272    64.0457 </r>
       <r>    -5.9289    27.5841    66.9925 </r>
       <r>    -5.8221    27.2526    69.9040 </r>
       <r>    -5.7152    26.9944    72.7878 </r>
       <r>    -5.6084    46.5587    77.7617 </r>
       <r>    -5.5016    35.9234    81.5995 </r>
       <r>    -5.3948    54.7446    87.4479 </r>
       <r>    -5.2879    73.1257    95.2600 </r>
       <r>    -5.1811    85.6801   104.4133 </r>
       <r>    -5.0743    78.2668   112.7747 </r>
       <r>    -4.9674    87.0311   122.0723 </r>
       <r>    -4.8606    77.6069   130.3632 </r>
       <r>    -4.7538    81.2648   139.0448 </r>
       <r>    -4.6469    52.3649   144.6390 </r>
       <r>    -4.5401    13.5568   146.0873 </r>
       <r>    -4.4333    11.0375   147.2664 </r>
       <r>    -4.3264     7.4632   148.0637 </r>
       <r>    -4.2196    -1.2368   147.9316 </r>
       <r>    -4.1128     7.9759   148.7837 </r>
       <r>    -4.0059    18.2476   150.7331 </r>
       <r>    -3.8991    12.1300   152.0290 </r>
       <r>    -3.7923    -0.0937   152.0189 </r>
       <r>    -3.6855    -0.1758   152.0002 </r>
       <r>    -3.5786    -0.0240   151.9976 </r>
       <r>    -3.4718    -0.5552   151.9383 </r>
       <r>    -3.3650     4.6759   152.4378 </r>
       <r>    -3.2581    13.9501   153.9281 </r>
       <r>    -3.1513     0.8100   154.0147 </r>
       <r>    -3.0445    -0.5498   153.9559 </r>
       <r>    -2.9376    11.2139   155.1539 </r>
       <r>    -2.8308    17.6793   157.0426 </r>
       <r>    -2.7240     9.5740   158.0655 </r>
       <r>    -2.6171    -0.6491   157.9961 </r>
       <r>    -2.5103    -0.3474   157.9590 </r>
       <r>    -2.4035    11.3429   159.1708 </r>
       <r>    -2.2966     7.8717   160.0117 </r>
       <r>    -2.1898     9.6774   161.0456 </r>
       <r>    -2.0830     9.4646   162.0567 </r>
       <r>    -1.9762    -1.0969   161.9395 </r>
       <r>    -1.8693     8.3076   162.8270 </r>
       <r>    -1.7625    13.4844   164.2676 </r>
       <r>    -1.6557    19.2824   166.3275 </r>
       <r>    -1.5488    15.5598   167.9898 </r>
       <r>    -1.4420    -0.1186   167.9771 </r>
       <r>    -1.3352     2.9153   168.2886 </r>
       <r>    -1.2283    14.4652   169.8339 </r>
       <r>    -1.1215     1.6752   170.0129 </r>
       <r>    -1.0147     0.0494   170.0181 </r>
       <r>    -0.9078    14.3216   171.5481 </r>
       <r>    -0.8010    18.5887   173.5340 </r>
       <r>    -0.6942    14.9211   175.1280 </r>
       <r>    -0.5873     8.8003   176.0682 </r>
       <r>    -0.4805    -0.7612   175.9869 </r>
       <r>    -0.3737     0.1461   176.0025 </r>
       <r>    -0.2669    12.3778   177.3248 </r>
       <r>    -0.1600    11.4315   178.5460 </r>
       <r>    -0.0532    14.4037   180.0848 </r>
       <r>     0.0536    19.2749   182.1440 </r>
       <r>     0.1605    16.9617   183.9560 </r>
       <r>     0.2673     0.7330   184.0343 </r>
       <r>     0.3741    -0.3166   184.0005 </r>
       <r>     0.4810    -0.0047   184.0000 </r>
       <r>     0.5878    -0.0000   184.0000 </r>
       <r>     0.6946    -0.0000   184.0000 </r>
       <r>     0.8015    -0.0000   184.0000 </r>
       <r>     0.9083     0.0000   184.0000 </r>
       <r>     1.0151     0.0000   184.0000 </r>
       <r>     1.1220     0.0000   184.0000 </r>
       <r>     1.2288     0.0000   184.0000 </r>
       <r>     1.3356     0.0000   184.0000 </r>
       <r>     1.4424     0.0000   184.0000 </r>
       <r>     1.5493     0.0000   184.0000 </r>
      </set>
     </set>
    </array>
   </total>
  </dos>
 </calculation>
 <structure name="finalpos" >
  <crystal>
   <varray name="basis" >
    <v>      15.00000000       0.00000000       0.00000000 </v>
    <v>       0.00000000      15.00000000       0.00000000 </v>
    <v>       0.00000000       0.00000000      15.00000000 </v>
   </varray>
   <i name="volume">   3375.00000000 </i>
   <varray name="rec_basis" >
    <v>       0.06666667       0.00000000       0.00000000 </v>
    <v>       0.00000000       0.06666667       0.00000000 </v>
    <v>       0.00000000       0.00000000       0.06666667 </v>
   </varray>
  </crystal>
  <varray name="positions" >
   <v>       0.29355600       0.41760667       0.55461267 </v>
   <v>       0.37894133       0.55229867       0.49626933 </v>
   <v>       0.39791267       0.29751133       0.56689867 </v>
   <v>       0.53321133       0.50940800       0.47438667 </v>
   <v>       0.54639600       0.34989667       0.52441600 </v>
   <v>       0.44886200       0.43460200       0.61459867 </v>
   <v>       0.41477600       0.39301467       0.43971533 </v>
   <v>       0.21829000       0.56045400       0.54785000 </v>
   <v>       0.33082800       0.53911200       0.65795200 </v>
   <v>       0.35214200       0.68278000       0.57010467 </v>
   <v>       0.49100467       0.66848667       0.48031067 </v>
   <v>       0.62822200       0.48242733       0.61139000 </v>
   <v>       0.48199067       0.59631667       0.61578733 </v>
   <v>       0.74388000       0.49000267       0.64827133 </v>
   <v>       0.81711333       0.50735067       0.65076867 </v>
  </varray>
 </structure>
</modeling>
