 vasp.5.4.4.18Apr17-6-g9f103f2a35 (build May 08 2019 13:49:07) complex          
  
 executed on             LinuxIFC date 2019.11.13  14:48:40
 running on   24 total cores
 distrk:  each k-point on   24 cores,    1 groups
 distr:  one band on NCORES_PER_BAND=   6 cores,    4 groups


--------------------------------------------------------------------------------------------------------


 INCAR:
 POTCAR:    PAW_PBE Cu 22Jun2005                  
 POTCAR:    PAW_PBE C 08Apr2002                   
 POTCAR:    PAW_PBE O 08Apr2002                   
 POTCAR:    PAW_PBE Cu 22Jun2005                  
   VRHFIN =Cu: d10 p1                                                           
   LEXCH  = PE                                                                  
   EATOM  =  1390.9808 eV,  102.2342 Ry                                         
                                                                                
   TITEL  = PAW_PBE Cu 22Jun2005                                                
   LULTRA =        F    use ultrasoft PP ?                                      
   IUNSCR =        1    unscreen: 0-lin 1-nonlin 2-no                           
   RPACOR =    2.000    partial core radius                                     
   POMASS =   63.546; ZVAL   =   11.000    mass and valenz                      
   RCORE  =    2.300    outmost cutoff radius                                   
   RWIGS  =    2.200; RWIGS  =    1.164    wigner-seitz radius (au A)           
   ENMAX  =  295.446; ENMIN  =  221.585 eV                                      
   ICORE  =        3    local potential                                         
   LCOR   =        T    correct aug charges                                     
   LPAW   =        T    paw PP                                                  
   EAUG   =  586.980                                                            
   DEXC   =    0.000                                                            
   RMAX   =    2.344    core radius for proj-oper                               
   RAUG   =    1.300    factor for augmentation sphere                          
   RDEP   =    2.302    radius for radial grids                                 
   RDEPT  =    1.771    core radius for aug-charge                              
                                                                                
   Atomic configuration                                                         
    9 entries                                                                   
     n  l   j            E        occ.                                          
     1  0  0.50     -8850.2468   2.0000                                         
     2  0  0.50     -1062.3498   2.0000                                         
     2  1  1.50      -916.8226   6.0000                                         
     3  0  0.50      -114.6929   2.0000                                         
     3  1  1.50       -72.1325   6.0000                                         
     3  2  2.50        -5.0394  10.0000                                         
     4  0  0.50        -4.6097   1.0000                                         
     4  1  0.50        -4.0817   0.0000                                         
     4  3  2.50        -1.3606   0.0000                                         
   Description                                                                  
     l       E           TYP  RCUT    TYP  RCUT                                 
     2     -5.0393973     23  2.200                                             
     2     10.8846608     23  2.200                                             
     0     -4.6097109     23  2.200                                             
     0      8.2520465     23  2.200                                             
     1     -2.7211652     23  2.200                                             
     1     21.7055443     23  2.200                                             
     3      2.7211652     23  2.300                                             
  local pseudopotential read in
  partial core-charges read in
  partial kinetic energy density read in
  atomic valenz-charges read in
  non local Contribution for L=           2  read in
    real space projection operators read in
  non local Contribution for L=           2  read in
    real space projection operators read in
  non local Contribution for L=           0  read in
    real space projection operators read in
  non local Contribution for L=           0  read in
    real space projection operators read in
  non local Contribution for L=           1  read in
    real space projection operators read in
  non local Contribution for L=           1  read in
    real space projection operators read in
    PAW grid and wavefunctions read in
 
   number of l-projection  operators is LMAX  =           6
   number of lm-projection operators is LMMAX =          18
 
 POTCAR:    PAW_PBE C 08Apr2002                   
   VRHFIN =C: s2p2                                                              
   LEXCH  = PE                                                                  
   EATOM  =   147.1560 eV,   10.8157 Ry                                         
                                                                                
   TITEL  = PAW_PBE C 08Apr2002                                                 
   LULTRA =        F    use ultrasoft PP ?                                      
   IUNSCR =        1    unscreen: 0-lin 1-nonlin 2-no                           
   RPACOR =    1.200    partial core radius                                     
   POMASS =   12.011; ZVAL   =    4.000    mass and valenz                      
   RCORE  =    1.500    outmost cutoff radius                                   
   RWIGS  =    1.630; RWIGS  =    0.863    wigner-seitz radius (au A)           
   ENMAX  =  400.000; ENMIN  =  300.000 eV                                      
   ICORE  =        2    local potential                                         
   LCOR   =        T    correct aug charges                                     
   LPAW   =        T    paw PP                                                  
   EAUG   =  644.873                                                            
   DEXC   =    0.000                                                            
   RMAX   =    1.529    core radius for proj-oper                               
   RAUG   =    1.300    factor for augmentation sphere                          
   RDEP   =    1.501    radius for radial grids                                 
   RDEPT  =    1.300    core radius for aug-charge                              
                                                                                
   Atomic configuration                                                         
    4 entries                                                                   
     n  l   j            E        occ.                                          
     1  0  0.50      -273.3789   2.0000                                         
     2  0  0.50       -13.7508   2.0000                                         
     2  1  0.50        -5.2854   2.0000                                         
     3  2  1.50        -5.4423   0.0000                                         
   Description                                                                  
     l       E           TYP  RCUT    TYP  RCUT                                 
     0    -13.7508458     23  1.200                                             
     0     -8.2022199     23  1.200                                             
     1     -5.2854383     23  1.500                                             
     1     34.0145650     23  1.500                                             
     2     -5.4423304      7  1.500                                             
  local pseudopotential read in
  partial core-charges read in
  partial kinetic energy density read in
  atomic valenz-charges read in
  non local Contribution for L=           0  read in
    real space projection operators read in
  non local Contribution for L=           0  read in
    real space projection operators read in
  non local Contribution for L=           1  read in
    real space projection operators read in
  non local Contribution for L=           1  read in
    real space projection operators read in
    PAW grid and wavefunctions read in
 
   number of l-projection  operators is LMAX  =           4
   number of lm-projection operators is LMMAX =           8
 
 POTCAR:    PAW_PBE O 08Apr2002                   
   VRHFIN =O: s2p4                                                              
   LEXCH  = PE                                                                  
   EATOM  =   432.3788 eV,   31.7789 Ry                                         
                                                                                
   TITEL  = PAW_PBE O 08Apr2002                                                 
   LULTRA =        F    use ultrasoft PP ?                                      
   IUNSCR =        1    unscreen: 0-lin 1-nonlin 2-no                           
   RPACOR =    1.200    partial core radius                                     
   POMASS =   16.000; ZVAL   =    6.000    mass and valenz                      
   RCORE  =    1.520    outmost cutoff radius                                   
   RWIGS  =    1.550; RWIGS  =    0.820    wigner-seitz radius (au A)           
   ENMAX  =  400.000; ENMIN  =  300.000 eV                                      
   ICORE  =        2    local potential                                         
   LCOR   =        T    correct aug charges                                     
   LPAW   =        T    paw PP                                                  
   EAUG   =  605.392                                                            
   DEXC   =    0.000                                                            
   RMAX   =    1.553    core radius for proj-oper                               
   RAUG   =    1.300    factor for augmentation sphere                          
   RDEP   =    1.550    radius for radial grids                                 
   RDEPT  =    1.329    core radius for aug-charge                              
                                                                                
   Atomic configuration                                                         
    4 entries                                                                   
     n  l   j            E        occ.                                          
     1  0  0.50      -514.6923   2.0000                                         
     2  0  0.50       -23.9615   2.0000                                         
     2  1  0.50        -9.0305   4.0000                                         
     3  2  1.50        -9.5241   0.0000                                         
   Description                                                                  
     l       E           TYP  RCUT    TYP  RCUT                                 
     0    -23.9615318     23  1.200                                             
     0     -9.5240782     23  1.200                                             
     1     -9.0304911     23  1.520                                             
     1      8.1634956     23  1.520                                             
     2     -9.5240782      7  1.500                                             
  local pseudopotential read in
  partial core-charges read in
  partial kinetic energy density read in
  kinetic energy density of atom read in
  atomic valenz-charges read in
  non local Contribution for L=           0  read in
    real space projection operators read in
  non local Contribution for L=           0  read in
    real space projection operators read in
  non local Contribution for L=           1  read in
    real space projection operators read in
  non local Contribution for L=           1  read in
    real space projection operators read in
    PAW grid and wavefunctions read in
 
   number of l-projection  operators is LMAX  =           4
   number of lm-projection operators is LMMAX =           8
 
  PAW_PBE Cu 22Jun2005                  :
 energy of atom  1       EATOM=-1390.9808
 kinetic energy error for atom=    0.0033 (will be added to EATOM!!)
  PAW_PBE C 08Apr2002                   :
 energy of atom  2       EATOM= -147.1560
 kinetic energy error for atom=    0.0057 (will be added to EATOM!!)
  PAW_PBE O 08Apr2002                   :
 energy of atom  3       EATOM= -432.3788
 kinetic energy error for atom=    0.0168 (will be added to EATOM!!)
 
 
 POSCAR: Cu13 C1 O1                              
  positions in cartesian coordinates
  No initial velocities read in
 exchange correlation table for  LEXCH =        8
   RHO(1)=    0.500       N(1)  =     2000
   RHO(2)=  100.500       N(2)  =     4000
 


--------------------------------------------------------------------------------------------------------


 ion  position               nearest neighbor table
   1  0.292  0.420  0.560-   8 2.39   3 2.46   6 2.49   2 2.51   9 2.52   7 2.61
   2  0.378  0.546  0.490-   7 2.39   4 2.43  10 2.43  11 2.45   1 2.51   8 2.52  13 2.53   6 2.64
                             9 2.70
   3  0.394  0.292  0.559-   7 2.43   5 2.44   1 2.46   6 2.54
   4  0.534  0.503  0.478-  12 2.38   7 2.42   2 2.43   5 2.51  11 2.56  13 2.57   6 2.59
   5  0.546  0.345  0.533-   6 2.41   3 2.44   4 2.51   7 2.53  12 2.69
   6  0.447  0.442  0.615-  13 2.29   5 2.41   9 2.45   1 2.49   3 2.54   4 2.59   2 2.64   7 2.74

   7  0.416  0.400  0.440-   2 2.39   4 2.42   3 2.43   5 2.53   1 2.61   6 2.74
   8  0.224  0.563  0.553-   9 2.34   1 2.39   2 2.52  10 2.65
   9  0.331  0.546  0.664-   8 2.34   6 2.45  13 2.45  10 2.52   1 2.52   2 2.70
  10  0.352  0.684  0.571-   2 2.43  13 2.47   9 2.52  11 2.52   8 2.65
  11  0.486  0.667  0.470-   2 2.45  13 2.46  10 2.52   4 2.56
  12  0.633  0.486  0.601-  14 1.92   4 2.38   5 2.69  13 2.78
  13  0.481  0.591  0.615-   6 2.29   9 2.45  11 2.46  10 2.47   2 2.53   4 2.57  12 2.78
  14  0.748  0.494  0.656-  15 1.16  12 1.92
  15  0.824  0.505  0.669-  14 1.16
 

IMPORTANT INFORMATION: All symmetrisations will be switched off!
NOSYMM: (Re-)initialisation of all symmetry stuff for point group C_1.

 
 

Automatic generation of k-mesh.
 generate k-points for:    1    1    1
Space group operators:
 irot       det(A)        alpha          n_x          n_y          n_z        tau_x        tau_y        tau_z
    1     1.000000     0.000000     1.000000     0.000000     0.000000     0.000000     0.000000     0.000000
 
 Subroutine IBZKPT returns following result:
 ===========================================
 
 Found      1 irreducible k-points:
 
 Following reciprocal coordinates:
            Coordinates               Weight
  0.000000  0.000000  0.000000      1.000000
 
 Following cartesian coordinates:
            Coordinates               Weight
  0.000000  0.000000  0.000000      1.000000
 


--------------------------------------------------------------------------------------------------------




 Dimension of arrays:
   k-points           NKPTS =      1   k-points in BZ     NKDIM =      1   number of bands    NBANDS=     92
   number of dos      NEDOS =    301   number of ions     NIONS =     15
   non local maximal  LDIM  =      6   non local SUM 2l+1 LMDIM =     18
   total plane-waves  NPLWV = ******
   max r-space proj   IRMAX =      1   max aug-charges    IRDMAX=  15028
   dimension x,y,z NGX =   120 NGY =  120 NGZ =  120
   dimension x,y,z NGXF=   240 NGYF=  240 NGZF=  240
   support grid    NGXF=   240 NGYF=  240 NGZF=  240
   ions per type =              13   1   1
   NGX,Y,Z   is equivalent  to a cutoff of  13.30, 13.30, 13.30 a.u.
   NGXF,Y,Z  is equivalent  to a cutoff of  26.60, 26.60, 26.60 a.u.

 SYSTEM =  CuCO                                    
 POSCAR =  Cu13 C1 O1                              

 Startparameter for this run:
   NWRITE =      2    write-flag & timer
   PREC   = accura    normal or accurate (medium, high low for compatibility)
   ISTART =      0    job   : 0-new  1-cont  2-samecut
   ICHARG =      2    charge: 1-file 2-atom 10-const
   ISPIN  =      2    spin polarized calculation?
   LNONCOLLINEAR =      F non collinear calculations
   LSORBIT =      F    spin-orbit coupling
   INIWAV =      1    electr: 0-lowe 1-rand  2-diag
   LASPH  =      F    aspherical Exc in radial PAW
   METAGGA=      F    non-selfconsistent MetaGGA calc.

 Electronic Relaxation 1
   ENCUT  =  600.0 eV  44.10 Ry    6.64 a.u.  29.96 29.96 29.96*2*pi/ulx,y,z
   ENINI  =  600.0     initial cutoff
   ENAUG  =  644.9 eV  augmentation charge cutoff
   NELM   =    300;   NELMIN=  3; NELMDL= -5     # of ELM steps 
   EDIFF  = 0.1E-06   stopping-criterion for ELM
   LREAL  =      F    real-space projection
   NLSPLINE    = F    spline interpolate recip. space projectors
   LCOMPAT=      F    compatible to vasp.4.4
   GGA_COMPAT  = T    GGA compatible to vasp.4.4-vasp.4.6
   LMAXPAW     = -100 max onsite density
   LMAXMIX     =    2 max onsite mixed and CHGCAR
   VOSKOWN=      0    Vosko Wilk Nusair interpolation
   ROPT   =    0.00000   0.00000   0.00000
 Ionic relaxation
   EDIFFG = -.1E-02   stopping-criterion for IOM
   NSW    =      0    number of steps for IOM
   NBLOCK =      1;   KBLOCK =      1    inner block; outer block 
   IBRION =     -1    ionic relax: 0-MD 1-quasi-New 2-CG
   NFREE  =      0    steps in history (QN), initial steepest desc. (CG)
   ISIF   =      2    stress and relaxation
   IWAVPR =     10    prediction:  0-non 1-charg 2-wave 3-comb
   ISYM   =      0    0-nonsym 1-usesym 2-fastsym
   LCORR  =      T    Harris-Foulkes like correction to forces

   POTIM  = 0.5000    time-step for ionic-motion
   TEIN   =    0.0    initial temperature
   TEBEG  =    0.0;   TEEND  =   0.0 temperature during run
   SMASS  =  -3.00    Nose mass-parameter (am)
   estimated Nose-frequenzy (Omega)   =  0.10E-29 period in steps =****** mass=  -0.514E-26a.u.
   SCALEE = 1.0000    scale energy and forces
   NPACO  =    256;   APACO  = 16.0  distance and # of slots for P.C.
   PSTRESS=    0.0 pullay stress

  Mass of Ions in am
   POMASS =  63.55 12.01 16.00
  Ionic Valenz
   ZVAL   =  11.00  4.00  6.00
  Atomic Wigner-Seitz radii
   RWIGS  =  -1.00 -1.00 -1.00
  virtual crystal weights 
   VCA    =   1.00  1.00  1.00
   NELECT =     153.0000    total number of electrons
   NUPDOWN=       1.0000    fix difference up-down

 DOS related values:
   EMIN   =  10.00;   EMAX   =-10.00  energy-range for DOS
   EFERMI =   0.00
   ISMEAR =     1;   SIGMA  =   0.10  broadening in eV -4-tet -1-fermi 0-gaus

 Electronic relaxation 2 (details)
   IALGO  =     68    algorithm
   LDIAG  =      T    sub-space diagonalisation (order eigenvalues)
   LSUBROT=      F    optimize rotation matrix (better conditioning)
   TURBO    =      0    0=normal 1=particle mesh
   IRESTART =      0    0=no restart 2=restart with 2 vectors
   NREBOOT  =      0    no. of reboots
   NMIN     =      0    reboot dimension
   EREF     =   0.00    reference energy to select bands
   IMIX   =      4    mixing-type and parameters
     AMIX     =   0.40;   BMIX     =  1.00
     AMIX_MAG =   1.60;   BMIX_MAG =  1.00
     AMIN     =   0.10
     WC   =   100.;   INIMIX=   1;  MIXPRE=   1;  MAXMIX= -45

 Intra band minimization:
   WEIMIN = 0.0000     energy-eigenvalue tresh-hold
   EBREAK =  0.27E-09  absolut break condition
   DEPER  =   0.30     relativ break condition  

   TIME   =   0.40     timestep for ELM

  volume/ion in A,a.u.               =     225.00      1518.37
  Fermi-wavevector in a.u.,A,eV,Ry     =   0.583733  1.103095  4.636102  0.340744
  Thomas-Fermi vector in A             =   1.629149
 
 Write flags
   LWAVE        =      F    write WAVECAR
   LDOWNSAMPLE  =      F    k-point downsampling of WAVECAR
   LCHARG       =      F    write CHGCAR
   LVTOT        =      F    write LOCPOT, total local potential
   LVHAR        =      F    write LOCPOT, Hartree potential only
   LELF         =      F    write electronic localiz. function (ELF)
   LORBIT       =      0    0 simple, 1 ext, 2 COOP (PROOUT), +10 PAW based schemes


 Dipole corrections
   LMONO  =      F    monopole corrections only (constant potential shift)
   LDIPOL =      F    correct potential (dipole corrections)
   IDIPOL =      0    1-x, 2-y, 3-z, 4-all directions 
   EPSILON=  1.0000000 bulk dielectric constant

 Exchange correlation treatment:
   GGA     =    PE    GGA type
   LEXCH   =     8    internal setting for exchange type
   VOSKOWN=      0    Vosko Wilk Nusair interpolation
   LHFCALC =     F    Hartree Fock is set to
   LHFONE  =     F    Hartree Fock one center treatment
   AEXX    =    0.0000 exact exchange contribution

 Linear response parameters
   LEPSILON=     F    determine dielectric tensor
   LRPA    =     F    only Hartree local field effects (RPA)
   LNABLA  =     F    use nabla operator in PAW spheres
   LVEL    =     F    velocity operator in full k-point grid
   LINTERFAST=   F  fast interpolation
   KINTER  =     0    interpolate to denser k-point grid
   CSHIFT  =0.1000    complex shift for real part using Kramers Kronig
   OMEGAMAX=  -1.0    maximum frequency
   DEG_THRESHOLD= 0.2000000E-02 threshold for treating states as degnerate
   RTIME   =   -0.100 relaxation time in fs
  (WPLASMAI=    0.000 imaginary part of plasma frequency in eV, 0.658/RTIME)
   DFIELD  = 0.0000000 0.0000000 0.0000000 field for delta impulse in time
 
 Orbital magnetization related:
   ORBITALMAG=     F  switch on orbital magnetization
   LCHIMAG   =     F  perturbation theory with respect to B field
   DQ        =  0.001000  dq finite difference perturbation B field
   LLRAUG    =     F  two centre corrections for induced B field



--------------------------------------------------------------------------------------------------------


 Static calculation
 charge density and potential will be updated during run
 spin polarized calculation
 RMM-DIIS sequential band-by-band and
  variant of blocked Davidson during initial phase
 perform sub-space diagonalisation
    before iterative eigenvector-optimisation
 modified Broyden-mixing scheme, WC =      100.0
 initial mixing is a Kerker type mixing with AMIX =  0.4000 and BMIX =      1.0000
 Hartree-type preconditioning will be used
 using additional bands           15
 reciprocal scheme for non local part
 use partial core corrections
 calculate Harris-corrections to forces 
   (improved forces if not selfconsistent)
 use gradient corrections 
 use of overlap-Matrix (Vanderbilt PP)
 Methfessel and Paxton  Order N= 1 SIGMA  =   0.10


--------------------------------------------------------------------------------------------------------


  energy-cutoff  :      600.00
  volume of cell :     3375.00
      direct lattice vectors                 reciprocal lattice vectors
    15.000000000  0.000000000  0.000000000     0.066666667  0.000000000  0.000000000
     0.000000000 15.000000000  0.000000000     0.000000000  0.066666667  0.000000000
     0.000000000  0.000000000 15.000000000     0.000000000  0.000000000  0.066666667

  length of vectors
    15.000000000 15.000000000 15.000000000     0.066666667  0.066666667  0.066666667


 
 k-points in units of 2pi/SCALE and weight: read from INCAR                         
   0.00000000  0.00000000  0.00000000       1.000
 
 k-points in reciprocal lattice and weights: read from INCAR                         
   0.00000000  0.00000000  0.00000000       1.000
 
 position of ions in fractional coordinates (direct lattice) 
   0.29232467  0.41975867  0.56005533
   0.37793467  0.54555000  0.48990267
   0.39446200  0.29171067  0.55858600
   0.53378800  0.50282000  0.47805000
   0.54565200  0.34537400  0.53256000
   0.44731600  0.44223733  0.61469933
   0.41609400  0.39952800  0.43959733
   0.22353400  0.56343733  0.55285933
   0.33139267  0.54567733  0.66412000
   0.35201333  0.68374000  0.57102067
   0.48567667  0.66664600  0.47021000
   0.63283533  0.48633600  0.60122733
   0.48067267  0.59098867  0.61539867
   0.74792667  0.49363067  0.65630600
   0.82375333  0.50506400  0.66858667
 
 position of ions in cartesian coordinates  (Angst):
   4.38487000  6.29638000  8.40083000
   5.66902000  8.18325000  7.34854000
   5.91693000  4.37566000  8.37879000
   8.00682000  7.54230000  7.17075000
   8.18478000  5.18061000  7.98840000
   6.70974000  6.63356000  9.22049000
   6.24141000  5.99292000  6.59396000
   3.35301000  8.45156000  8.29289000
   4.97089000  8.18516000  9.96180000
   5.28020000 10.25610000  8.56531000
   7.28515000  9.99969000  7.05315000
   9.49253000  7.29504000  9.01841000
   7.21009000  8.86483000  9.23098000
  11.21890000  7.40446000  9.84459000
  12.35630000  7.57596000 10.02880000
 


--------------------------------------------------------------------------------------------------------


 k-point  1 :   0.0000 0.0000 0.0000  plane waves:  112451

 maximum and minimum number of plane-waves per node :     18753    18726

 maximum number of plane-waves:    112451
 maximum index in each direction: 
   IXMAX=   29   IYMAX=   29   IZMAX=   29
   IXMIN=  -29   IYMIN=  -29   IZMIN=  -29


 parallel 3D FFT for wavefunctions:
    minimum data exchange during FFTs selected (reduces bandwidth)
 parallel 3D FFT for charge:
    minimum data exchange during FFTs selected (reduces bandwidth)


 total amount of memory used by VASP MPI-rank0   158680. kBytes
=======================================================================

   base      :      30000. kBytes
   nonl-proj :      12601. kBytes
   fftplans  :      27994. kBytes
   grid      :      74150. kBytes
   one-center:         93. kBytes
   wavefun   :      13842. kBytes
 
     INWAV:  cpu time    0.0000: real time    0.0001
 Broyden mixing: mesh for mixing (old mesh)
   NGX = 59   NGY = 59   NGZ = 59
  (NGX  =240   NGY  =240   NGZ  =240)
  gives a total of 205379 points

 initial charge density was supplied:
 charge density of overlapping atoms calculated
 number of electron     153.0000000 magnetization       1.0000000
 keeping initial charge density in first step


--------------------------------------------------------------------------------------------------------


 Maximum index for augmentation-charges          709 (set IRDMAX)


--------------------------------------------------------------------------------------------------------


 First call to EWALD:  gamma=   0.118
 Maximum number of real-space cells 3x 3x 3
 Maximum number of reciprocal cells 3x 3x 3

    FEWALD:  cpu time    0.0018: real time    0.0021


--------------------------------------- Iteration      1(   1)  ---------------------------------------


    POTLOK:  cpu time    1.1899: real time    1.1928
    SETDIJ:  cpu time    0.0173: real time    0.0174
     EDDAV:  cpu time    7.5110: real time    7.5215
       DOS:  cpu time    0.0004: real time    0.0004
    --------------------------------------------
      LOOP:  cpu time    8.7187: real time    8.7320

 eigenvalue-minimisations  :   376
 total energy-change (2. order) : 0.1113893E+04  (-0.4456346E+04)
 number of electron     153.0000000 magnetization       1.0000000
 augmentation part      153.0000000 magnetization       1.0000000

 Free energy of the ion-electron system (eV)
  ---------------------------------------------------
  alpha Z        PSCENC =        41.16232785
  Ewald energy   TEWEN  =     15949.05112669
  -Hartree energ DENC   =    -32980.65460576
  -exchange      EXHF   =         0.00000000
  -V(xc)+E(xc)   XCENC  =       622.79490910
  PAW double counting   =     16421.75059358   -17800.06104309
  entropy T*S    EENTRO =         0.00008126
  eigenvalues    EBANDS =       197.63025762
  atomic energy  EATOM  =     18662.21924712
  Solvation  Ediel_sol  =         0.00000000
  ---------------------------------------------------
  free energy    TOTEN  =      1113.89289437 eV

  energy without entropy =     1113.89281311  energy(sigma->0) =     1113.89286728


--------------------------------------------------------------------------------------------------------




--------------------------------------- Iteration      1(   2)  ---------------------------------------


     EDDAV:  cpu time    7.3980: real time    7.4071
       DOS:  cpu time    0.0004: real time    0.0004
    --------------------------------------------
      LOOP:  cpu time    7.3984: real time    7.4074

 eigenvalue-minimisations  :   368
 total energy-change (2. order) :-0.1025546E+04  (-0.9737071E+03)
 number of electron     153.0000000 magnetization       1.0000000
 augmentation part      153.0000000 magnetization       1.0000000

 Free energy of the ion-electron system (eV)
  ---------------------------------------------------
  alpha Z        PSCENC =        41.16232785
  Ewald energy   TEWEN  =     15949.05112669
  -Hartree energ DENC   =    -32980.65460576
  -exchange      EXHF   =         0.00000000
  -V(xc)+E(xc)   XCENC  =       622.79490910
  PAW double counting   =     16421.75059358   -17800.06104309
  entropy T*S    EENTRO =         0.00579813
  eigenvalues    EBANDS =      -827.92100974
  atomic energy  EATOM  =     18662.21924712
  Solvation  Ediel_sol  =         0.00000000
  ---------------------------------------------------
  free energy    TOTEN  =        88.34734388 eV

  energy without entropy =       88.34154575  energy(sigma->0) =       88.34541117


--------------------------------------------------------------------------------------------------------




--------------------------------------- Iteration      1(   3)  ---------------------------------------


     EDDAV:  cpu time   11.5774: real time   11.5906
       DOS:  cpu time    0.0003: real time    0.0003
    --------------------------------------------
      LOOP:  cpu time   11.5777: real time   11.5909

 eigenvalue-minimisations  :   648
 total energy-change (2. order) :-0.1206605E+03  (-0.1125189E+03)
 number of electron     153.0000000 magnetization       1.0000000
 augmentation part      153.0000000 magnetization       1.0000000

 Free energy of the ion-electron system (eV)
  ---------------------------------------------------
  alpha Z        PSCENC =        41.16232785
  Ewald energy   TEWEN  =     15949.05112669
  -Hartree energ DENC   =    -32980.65460576
  -exchange      EXHF   =         0.00000000
  -V(xc)+E(xc)   XCENC  =       622.79490910
  PAW double counting   =     16421.75059358   -17800.06104309
  entropy T*S    EENTRO =         0.00656964
  eigenvalues    EBANDS =      -948.58226667
  atomic energy  EATOM  =     18662.21924712
  Solvation  Ediel_sol  =         0.00000000
  ---------------------------------------------------
  free energy    TOTEN  =       -32.31314155 eV

  energy without entropy =      -32.31971119  energy(sigma->0) =      -32.31533143


--------------------------------------------------------------------------------------------------------




--------------------------------------- Iteration      1(   4)  ---------------------------------------


     EDDAV:  cpu time   10.4186: real time   10.4324
       DOS:  cpu time    0.0003: real time    0.0003
    --------------------------------------------
      LOOP:  cpu time   10.4189: real time   10.4327

 eigenvalue-minimisations  :   568
 total energy-change (2. order) :-0.2281959E+02  (-0.2248873E+02)
 number of electron     153.0000000 magnetization       1.0000000
 augmentation part      153.0000000 magnetization       1.0000000

 Free energy of the ion-electron system (eV)
  ---------------------------------------------------
  alpha Z        PSCENC =        41.16232785
  Ewald energy   TEWEN  =     15949.05112669
  -Hartree energ DENC   =    -32980.65460576
  -exchange      EXHF   =         0.00000000
  -V(xc)+E(xc)   XCENC  =       622.79490910
  PAW double counting   =     16421.75059358   -17800.06104309
  entropy T*S    EENTRO =         0.00870759
  eigenvalues    EBANDS =      -971.40399200
  atomic energy  EATOM  =     18662.21924712
  Solvation  Ediel_sol  =         0.00000000
  ---------------------------------------------------
  free energy    TOTEN  =       -55.13272892 eV

  energy without entropy =      -55.14143651  energy(sigma->0) =      -55.13563145


--------------------------------------------------------------------------------------------------------




--------------------------------------- Iteration      1(   5)  ---------------------------------------


     EDDAV:  cpu time   11.8170: real time   11.8295
       DOS:  cpu time    0.0003: real time    0.0003
    CHARGE:  cpu time    0.6891: real time    0.6897
    MIXING:  cpu time    0.0245: real time    0.0246
    --------------------------------------------
      LOOP:  cpu time   12.5309: real time   12.5440

 eigenvalue-minimisations  :   664
 total energy-change (2. order) :-0.1551548E+01  (-0.1406045E+01)
 number of electron     153.0000001 magnetization       1.0000000
 augmentation part       87.6007574 magnetization       0.3670199

 Broyden mixing:
  rms(total) = 0.22974E+01    rms(broyden)= 0.22973E+01
  rms(prec ) = 0.26376E+01
  weight for this iteration     100.00

 Free energy of the ion-electron system (eV)
  ---------------------------------------------------
  alpha Z        PSCENC =        41.16232785
  Ewald energy   TEWEN  =     15949.05112669
  -Hartree energ DENC   =    -32980.65460576
  -exchange      EXHF   =         0.00000000
  -V(xc)+E(xc)   XCENC  =       622.79490910
  PAW double counting   =     16421.75059358   -17800.06104309
  entropy T*S    EENTRO =         0.00961887
  eigenvalues    EBANDS =      -972.95645157
  atomic energy  EATOM  =     18662.21924712
  Solvation  Ediel_sol  =         0.00000000
  ---------------------------------------------------
  free energy    TOTEN  =       -56.68427722 eV

  energy without entropy =      -56.69389609  energy(sigma->0) =      -56.68748351


--------------------------------------------------------------------------------------------------------




--------------------------------------- Iteration      1(   6)  ---------------------------------------


    POTLOK:  cpu time    1.1740: real time    1.1763
    SETDIJ:  cpu time    0.0178: real time    0.0179
    EDDIAG:  cpu time    1.1181: real time    1.1194
  RMM-DIIS:  cpu time    7.5747: real time    7.5811
    ORTHCH:  cpu time    0.0577: real time    0.0579
       DOS:  cpu time    0.0004: real time    0.0004
    CHARGE:  cpu time    0.6638: real time    0.6639
    MIXING:  cpu time    0.0251: real time    0.0251
    --------------------------------------------
      LOOP:  cpu time   10.6316: real time   10.6419

 eigenvalue-minimisations  :   418
 total energy-change (2. order) : 0.9836029E+00  (-0.1150754E+02)
 number of electron     153.0000002 magnetization       1.0000000
 augmentation part       95.7238213 magnetization       0.0692904

 Broyden mixing:
  rms(total) = 0.15097E+01    rms(broyden)= 0.15095E+01
  rms(prec ) = 0.17394E+01
  weight for this iteration     100.00

 eigenvalues of (default mixing * dielectric matrix)
  average eigenvalue GAMMA=   0.6140
  0.6140

 Free energy of the ion-electron system (eV)
  ---------------------------------------------------
  alpha Z        PSCENC =        41.16232785
  Ewald energy   TEWEN  =     15949.05112669
  -Hartree energ DENC   =    -32732.53843527
  -exchange      EXHF   =         0.00000000
  -V(xc)+E(xc)   XCENC  =       610.72159049
  PAW double counting   =     16661.37632857   -17985.62511019
  entropy T*S    EENTRO =         0.00678181
  eigenvalues    EBANDS =     -1262.07453143
  atomic energy  EATOM  =     18662.21924712
  Solvation  Ediel_sol  =         0.00000000
  ---------------------------------------------------
  free energy    TOTEN  =       -55.70067436 eV

  energy without entropy =      -55.70745617  energy(sigma->0) =      -55.70293496


--------------------------------------------------------------------------------------------------------




--------------------------------------- Iteration      1(   7)  ---------------------------------------


    POTLOK:  cpu time    1.1724: real time    1.1746
    SETDIJ:  cpu time    0.0175: real time    0.0175
    EDDIAG:  cpu time    1.1204: real time    1.1207
  RMM-DIIS:  cpu time    6.4288: real time    6.4320
    ORTHCH:  cpu time    0.0587: real time    0.0587
       DOS:  cpu time    0.0004: real time    0.0004
    CHARGE:  cpu time    0.6699: real time    0.6702
    MIXING:  cpu time    0.0254: real time    0.0254
    --------------------------------------------
      LOOP:  cpu time    9.4936: real time    9.4996

 eigenvalue-minimisations  :   385
 total energy-change (2. order) : 0.6662060E+01  (-0.2341519E+01)
 number of electron     153.0000002 magnetization       1.0000000
 augmentation part       92.9303156 magnetization       0.0987533

 Broyden mixing:
  rms(total) = 0.37990E+00    rms(broyden)= 0.37988E+00
  rms(prec ) = 0.47250E+00
  weight for this iteration     100.00

 eigenvalues of (default mixing * dielectric matrix)
  average eigenvalue GAMMA=   0.9307
  1.1906  0.6707

 Free energy of the ion-electron system (eV)
  ---------------------------------------------------
  alpha Z        PSCENC =        41.16232785
  Ewald energy   TEWEN  =     15949.05112669
  -Hartree energ DENC   =    -32866.00674490
  -exchange      EXHF   =         0.00000000
  -V(xc)+E(xc)   XCENC  =       615.15663214
  PAW double counting   =     16987.42009244   -18360.55906496
  entropy T*S    EENTRO =         0.00703912
  eigenvalues    EBANDS =     -1077.48926955
  atomic energy  EATOM  =     18662.21924712
  Solvation  Ediel_sol  =         0.00000000
  ---------------------------------------------------
  free energy    TOTEN  =       -49.03861405 eV

  energy without entropy =      -49.04565317  energy(sigma->0) =      -49.04096042


--------------------------------------------------------------------------------------------------------




--------------------------------------- Iteration      1(   8)  ---------------------------------------


    POTLOK:  cpu time    1.1718: real time    1.1723
    SETDIJ:  cpu time    0.0181: real time    0.0181
    EDDIAG:  cpu time    1.1196: real time    1.1199
  RMM-DIIS:  cpu time    6.8344: real time    6.8374
    ORTHCH:  cpu time    0.0586: real time    0.0586
       DOS:  cpu time    0.0004: real time    0.0004
    CHARGE:  cpu time    0.6715: real time    0.6718
    MIXING:  cpu time    0.0263: real time    0.0263
    --------------------------------------------
      LOOP:  cpu time    9.9008: real time    9.9049

 eigenvalue-minimisations  :   427
 total energy-change (2. order) : 0.2443900E+00  (-0.4029691E+00)
 number of electron     153.0000001 magnetization       1.0000000
 augmentation part       92.1514158 magnetization       0.0987974

 Broyden mixing:
  rms(total) = 0.30075E+00    rms(broyden)= 0.30073E+00
  rms(prec ) = 0.34134E+00
  weight for this iteration     100.00

 eigenvalues of (default mixing * dielectric matrix)
  average eigenvalue GAMMA=   0.9092
  1.3493  0.6892  0.6892

 Free energy of the ion-electron system (eV)
  ---------------------------------------------------
  alpha Z        PSCENC =        41.16232785
  Ewald energy   TEWEN  =     15949.05112669
  -Hartree energ DENC   =    -32914.48046295
  -exchange      EXHF   =         0.00000000
  -V(xc)+E(xc)   XCENC  =       615.57555193
  PAW double counting   =     17324.30581868   -18716.52194241
  entropy T*S    EENTRO =         0.00777473
  eigenvalues    EBANDS =     -1010.11366564
  atomic energy  EATOM  =     18662.21924712
  Solvation  Ediel_sol  =         0.00000000
  ---------------------------------------------------
  free energy    TOTEN  =       -48.79422400 eV

  energy without entropy =      -48.80199873  energy(sigma->0) =      -48.79681557


--------------------------------------------------------------------------------------------------------




--------------------------------------- Iteration      1(   9)  ---------------------------------------


    POTLOK:  cpu time    1.1746: real time    1.1749
    SETDIJ:  cpu time    0.0181: real time    0.0181
    EDDIAG:  cpu time    1.1198: real time    1.1206
  RMM-DIIS:  cpu time    7.1364: real time    7.1394
    ORTHCH:  cpu time    0.0583: real time    0.0583
       DOS:  cpu time    0.0004: real time    0.0004
    CHARGE:  cpu time    0.6738: real time    0.6740
    MIXING:  cpu time    0.0251: real time    0.0251
    --------------------------------------------
      LOOP:  cpu time   10.2066: real time   10.2109

 eigenvalue-minimisations  :   412
 total energy-change (2. order) : 0.5034585E-01  (-0.9680551E-01)
 number of electron     153.0000002 magnetization       1.0000000
 augmentation part       92.3313735 magnetization       0.0899030

 Broyden mixing:
  rms(total) = 0.18312E+00    rms(broyden)= 0.18311E+00
  rms(prec ) = 0.21754E+00
  weight for this iteration     100.00

 eigenvalues of (default mixing * dielectric matrix)
  average eigenvalue GAMMA=   1.0278
  2.0660  0.7786  0.7786  0.4879

 Free energy of the ion-electron system (eV)
  ---------------------------------------------------
  alpha Z        PSCENC =        41.16232785
  Ewald energy   TEWEN  =     15949.05112669
  -Hartree energ DENC   =    -32912.41072880
  -exchange      EXHF   =         0.00000000
  -V(xc)+E(xc)   XCENC  =       615.15947147
  PAW double counting   =     17413.57903058   -18807.24715641
  entropy T*S    EENTRO =         0.00787999
  eigenvalues    EBANDS =     -1010.26507664
  atomic energy  EATOM  =     18662.21924712
  Solvation  Ediel_sol  =         0.00000000
  ---------------------------------------------------
  free energy    TOTEN  =       -48.74387815 eV

  energy without entropy =      -48.75175814  energy(sigma->0) =      -48.74650481


--------------------------------------------------------------------------------------------------------




--------------------------------------- Iteration      1(  10)  ---------------------------------------


    POTLOK:  cpu time    1.1747: real time    1.1760
    SETDIJ:  cpu time    0.0172: real time    0.0172
    EDDIAG:  cpu time    1.1187: real time    1.1192
  RMM-DIIS:  cpu time    7.0476: real time    7.0504
    ORTHCH:  cpu time    0.0582: real time    0.0582
       DOS:  cpu time    0.0004: real time    0.0004
    CHARGE:  cpu time    0.6737: real time    0.6737
    MIXING:  cpu time    0.0255: real time    0.0255
    --------------------------------------------
      LOOP:  cpu time   10.1161: real time   10.1207

 eigenvalue-minimisations  :   414
 total energy-change (2. order) : 0.6103008E-01  (-0.2002869E-01)
 number of electron     153.0000002 magnetization       1.0000000
 augmentation part       92.5141617 magnetization       0.0764671

 Broyden mixing:
  rms(total) = 0.59409E-01    rms(broyden)= 0.59405E-01
  rms(prec ) = 0.78689E-01
  weight for this iteration     100.00

 eigenvalues of (default mixing * dielectric matrix)
  average eigenvalue GAMMA=   1.0635
  2.1274  1.1596  0.7789  0.7789  0.4728

 Free energy of the ion-electron system (eV)
  ---------------------------------------------------
  alpha Z        PSCENC =        41.16232785
  Ewald energy   TEWEN  =     15949.05112669
  -Hartree energ DENC   =    -32910.47577443
  -exchange      EXHF   =         0.00000000
  -V(xc)+E(xc)   XCENC  =       614.73760024
  PAW double counting   =     17509.81935200   -18904.94744299
  entropy T*S    EENTRO =         0.00783787
  eigenvalues    EBANDS =     -1010.25712243
  atomic energy  EATOM  =     18662.21924712
  Solvation  Ediel_sol  =         0.00000000
  ---------------------------------------------------
  free energy    TOTEN  =       -48.68284807 eV

  energy without entropy =      -48.69068594  energy(sigma->0) =      -48.68546070


--------------------------------------------------------------------------------------------------------




--------------------------------------- Iteration      1(  11)  ---------------------------------------


    POTLOK:  cpu time    1.1743: real time    1.1765
    SETDIJ:  cpu time    0.0175: real time    0.0175
    EDDIAG:  cpu time    1.1166: real time    1.1170
  RMM-DIIS:  cpu time    6.9066: real time    6.9095
    ORTHCH:  cpu time    0.0572: real time    0.0572
       DOS:  cpu time    0.0004: real time    0.0004
    CHARGE:  cpu time    0.6737: real time    0.6740
    MIXING:  cpu time    0.0265: real time    0.0265
    --------------------------------------------
      LOOP:  cpu time    9.9729: real time    9.9786

 eigenvalue-minimisations  :   424
 total energy-change (2. order) : 0.1079347E-01  (-0.7212532E-02)
 number of electron     153.0000002 magnetization       1.0000000
 augmentation part       92.4538587 magnetization       0.0794200

 Broyden mixing:
  rms(total) = 0.40754E-01    rms(broyden)= 0.40749E-01
  rms(prec ) = 0.52381E-01
  weight for this iteration     100.00

 eigenvalues of (default mixing * dielectric matrix)
  average eigenvalue GAMMA=   1.0373
  2.1653  1.4631  0.7801  0.7801  0.4874  0.5480

 Free energy of the ion-electron system (eV)
  ---------------------------------------------------
  alpha Z        PSCENC =        41.16232785
  Ewald energy   TEWEN  =     15949.05112669
  -Hartree energ DENC   =    -32918.33173490
  -exchange      EXHF   =         0.00000000
  -V(xc)+E(xc)   XCENC  =       614.84288306
  PAW double counting   =     17557.35582911   -18954.60143414
  entropy T*S    EENTRO =         0.00816326
  eigenvalues    EBANDS =     -1000.37846264
  atomic energy  EATOM  =     18662.21924712
  Solvation  Ediel_sol  =         0.00000000
  ---------------------------------------------------
  free energy    TOTEN  =       -48.67205460 eV

  energy without entropy =      -48.68021785  energy(sigma->0) =      -48.67477568


--------------------------------------------------------------------------------------------------------




--------------------------------------- Iteration      1(  12)  ---------------------------------------


    POTLOK:  cpu time    1.1724: real time    1.1750
    SETDIJ:  cpu time    0.0179: real time    0.0179
    EDDIAG:  cpu time    1.1146: real time    1.1151
  RMM-DIIS:  cpu time    6.7015: real time    6.7042
    ORTHCH:  cpu time    0.0557: real time    0.0557
       DOS:  cpu time    0.0004: real time    0.0004
    CHARGE:  cpu time    0.6728: real time    0.6728
    MIXING:  cpu time    0.0272: real time    0.0272
    --------------------------------------------
      LOOP:  cpu time    9.7625: real time    9.7683

 eigenvalue-minimisations  :   417
 total energy-change (2. order) : 0.2168731E-02  (-0.1853772E-02)
 number of electron     153.0000002 magnetization       1.0000000
 augmentation part       92.4530608 magnetization       0.0785395

 Broyden mixing:
  rms(total) = 0.19473E-01    rms(broyden)= 0.19472E-01
  rms(prec ) = 0.31020E-01
  weight for this iteration     100.00

 eigenvalues of (default mixing * dielectric matrix)
  average eigenvalue GAMMA=   1.0849
  2.3817  1.6695  1.0990  0.7260  0.7260  0.5325  0.4599

 Free energy of the ion-electron system (eV)
  ---------------------------------------------------
  alpha Z        PSCENC =        41.16232785
  Ewald energy   TEWEN  =     15949.05112669
  -Hartree energ DENC   =    -32921.10892468
  -exchange      EXHF   =         0.00000000
  -V(xc)+E(xc)   XCENC  =       614.87932261
  PAW double counting   =     17563.68315828   -18961.22156540
  entropy T*S    EENTRO =         0.00803020
  eigenvalues    EBANDS =      -997.34260853
  atomic energy  EATOM  =     18662.21924712
  Solvation  Ediel_sol  =         0.00000000
  ---------------------------------------------------
  free energy    TOTEN  =       -48.66988587 eV

  energy without entropy =      -48.67791607  energy(sigma->0) =      -48.67256260


--------------------------------------------------------------------------------------------------------




--------------------------------------- Iteration      1(  13)  ---------------------------------------


    POTLOK:  cpu time    1.1756: real time    1.1769
    SETDIJ:  cpu time    0.0163: real time    0.0163
    EDDIAG:  cpu time    1.1145: real time    1.1149
  RMM-DIIS:  cpu time    7.1243: real time    7.1269
    ORTHCH:  cpu time    0.0559: real time    0.0559
       DOS:  cpu time    0.0004: real time    0.0004
    CHARGE:  cpu time    0.6733: real time    0.6737
    MIXING:  cpu time    0.0281: real time    0.0281
    --------------------------------------------
      LOOP:  cpu time   10.1884: real time   10.1931

 eigenvalue-minimisations  :   417
 total energy-change (2. order) : 0.8940418E-03  (-0.6380325E-03)
 number of electron     153.0000002 magnetization       1.0000000
 augmentation part       92.4678507 magnetization       0.0789426

 Broyden mixing:
  rms(total) = 0.94173E-02    rms(broyden)= 0.94167E-02
  rms(prec ) = 0.19103E-01
  weight for this iteration     100.00

 eigenvalues of (default mixing * dielectric matrix)
  average eigenvalue GAMMA=   1.1178
  2.4185  1.9548  1.3104  0.7551  0.7551  0.7729  0.5268  0.4485

 Free energy of the ion-electron system (eV)
  ---------------------------------------------------
  alpha Z        PSCENC =        41.16232785
  Ewald energy   TEWEN  =     15949.05112669
  -Hartree energ DENC   =    -32925.53039040
  -exchange      EXHF   =         0.00000000
  -V(xc)+E(xc)   XCENC  =       614.90125717
  PAW double counting   =     17565.52137258   -18963.03929644
  entropy T*S    EENTRO =         0.00804754
  eigenvalues    EBANDS =      -992.96268394
  atomic energy  EATOM  =     18662.21924712
  Solvation  Ediel_sol  =         0.00000000
  ---------------------------------------------------
  free energy    TOTEN  =       -48.66899182 eV

  energy without entropy =      -48.67703936  energy(sigma->0) =      -48.67167434


--------------------------------------------------------------------------------------------------------




--------------------------------------- Iteration      1(  14)  ---------------------------------------


    POTLOK:  cpu time    1.1729: real time    1.1733
    SETDIJ:  cpu time    0.0180: real time    0.0180
    EDDIAG:  cpu time    1.1152: real time    1.1157
  RMM-DIIS:  cpu time    7.0040: real time    7.0072
    ORTHCH:  cpu time    0.0557: real time    0.0557
       DOS:  cpu time    0.0004: real time    0.0004
    CHARGE:  cpu time    0.6746: real time    0.6750
    MIXING:  cpu time    0.0289: real time    0.0289
    --------------------------------------------
      LOOP:  cpu time   10.0697: real time   10.0741

 eigenvalue-minimisations  :   421
 total energy-change (2. order) :-0.1259830E-02  (-0.3040576E-03)
 number of electron     153.0000002 magnetization       1.0000000
 augmentation part       92.4735518 magnetization       0.0795000

 Broyden mixing:
  rms(total) = 0.10516E-01    rms(broyden)= 0.10516E-01
  rms(prec ) = 0.16298E-01
  weight for this iteration     100.00

 eigenvalues of (default mixing * dielectric matrix)
  average eigenvalue GAMMA=   1.1478
  2.4257  2.4257  1.3074  1.0800  0.7430  0.7430  0.6527  0.5013  0.4511

 Free energy of the ion-electron system (eV)
  ---------------------------------------------------
  alpha Z        PSCENC =        41.16232785
  Ewald energy   TEWEN  =     15949.05112669
  -Hartree energ DENC   =    -32930.22797510
  -exchange      EXHF   =         0.00000000
  -V(xc)+E(xc)   XCENC  =       614.93578391
  PAW double counting   =     17558.61133088   -18955.87155645
  entropy T*S    EENTRO =         0.00807222
  eigenvalues    EBANDS =      -988.55860876
  atomic energy  EATOM  =     18662.21924712
  Solvation  Ediel_sol  =         0.00000000
  ---------------------------------------------------
  free energy    TOTEN  =       -48.67025165 eV

  energy without entropy =      -48.67832387  energy(sigma->0) =      -48.67294239


--------------------------------------------------------------------------------------------------------




--------------------------------------- Iteration      1(  15)  ---------------------------------------


    POTLOK:  cpu time    1.1739: real time    1.1773
    SETDIJ:  cpu time    0.0175: real time    0.0175
    EDDIAG:  cpu time    1.1160: real time    1.1167
  RMM-DIIS:  cpu time    6.8472: real time    6.8499
    ORTHCH:  cpu time    0.0578: real time    0.0578
       DOS:  cpu time    0.0004: real time    0.0004
    CHARGE:  cpu time    0.6732: real time    0.6735
    MIXING:  cpu time    0.0294: real time    0.0294
    --------------------------------------------
      LOOP:  cpu time    9.9155: real time    9.9225

 eigenvalue-minimisations  :   402
 total energy-change (2. order) :-0.1167868E-02  (-0.1372413E-03)
 number of electron     153.0000002 magnetization       1.0000000
 augmentation part       92.4691922 magnetization       0.0798774

 Broyden mixing:
  rms(total) = 0.53056E-02    rms(broyden)= 0.53054E-02
  rms(prec ) = 0.96984E-02
  weight for this iteration     100.00

 eigenvalues of (default mixing * dielectric matrix)
  average eigenvalue GAMMA=   1.1912
  2.7047  2.7047  1.3638  1.3638  0.7482  0.7482  0.7732  0.5664  0.4531  0.4859

 Free energy of the ion-electron system (eV)
  ---------------------------------------------------
  alpha Z        PSCENC =        41.16232785
  Ewald energy   TEWEN  =     15949.05112669
  -Hartree energ DENC   =    -32933.46813462
  -exchange      EXHF   =         0.00000000
  -V(xc)+E(xc)   XCENC  =       614.96756438
  PAW double counting   =     17553.58840953   -18950.73738806
  entropy T*S    EENTRO =         0.00805862
  eigenvalues    EBANDS =      -985.46263102
  atomic energy  EATOM  =     18662.21924712
  Solvation  Ediel_sol  =         0.00000000
  ---------------------------------------------------
  free energy    TOTEN  =       -48.67141952 eV

  energy without entropy =      -48.67947814  energy(sigma->0) =      -48.67410573


--------------------------------------------------------------------------------------------------------




--------------------------------------- Iteration      1(  16)  ---------------------------------------


    POTLOK:  cpu time    1.1737: real time    1.1751
    SETDIJ:  cpu time    0.0171: real time    0.0171
    EDDIAG:  cpu time    1.1140: real time    1.1151
  RMM-DIIS:  cpu time    6.3429: real time    6.3461
    ORTHCH:  cpu time    0.0575: real time    0.0575
       DOS:  cpu time    0.0004: real time    0.0004
    CHARGE:  cpu time    0.6753: real time    0.6755
    MIXING:  cpu time    0.0300: real time    0.0304
    --------------------------------------------
      LOOP:  cpu time    9.4110: real time    9.4171

 eigenvalue-minimisations  :   393
 total energy-change (2. order) :-0.1727939E-02  (-0.9922541E-04)
 number of electron     153.0000002 magnetization       1.0000000
 augmentation part       92.4624986 magnetization       0.0799264

 Broyden mixing:
  rms(total) = 0.51405E-02    rms(broyden)= 0.51401E-02
  rms(prec ) = 0.74979E-02
  weight for this iteration     100.00

 eigenvalues of (default mixing * dielectric matrix)
  average eigenvalue GAMMA=   1.2426
  3.3299  2.6320  1.5129  1.5129  0.9969  0.7566  0.7566  0.7061  0.4493  0.5151
  0.4998

 Free energy of the ion-electron system (eV)
  ---------------------------------------------------
  alpha Z        PSCENC =        41.16232785
  Ewald energy   TEWEN  =     15949.05112669
  -Hartree energ DENC   =    -32936.35911725
  -exchange      EXHF   =         0.00000000
  -V(xc)+E(xc)   XCENC  =       614.99654613
  PAW double counting   =     17549.68688677   -18946.79953731
  entropy T*S    EENTRO =         0.00808990
  eigenvalues    EBANDS =      -982.63871736
  atomic energy  EATOM  =     18662.21924712
  Solvation  Ediel_sol  =         0.00000000
  ---------------------------------------------------
  free energy    TOTEN  =       -48.67314746 eV

  energy without entropy =      -48.68123736  energy(sigma->0) =      -48.67584410


--------------------------------------------------------------------------------------------------------




--------------------------------------- Iteration      1(  17)  ---------------------------------------


    POTLOK:  cpu time    1.1740: real time    1.1746
    SETDIJ:  cpu time    0.0171: real time    0.0171
    EDDIAG:  cpu time    1.1158: real time    1.1165
  RMM-DIIS:  cpu time    6.9983: real time    7.0176
    ORTHCH:  cpu time    0.0575: real time    0.0575
       DOS:  cpu time    0.0005: real time    0.0005
    CHARGE:  cpu time    0.6747: real time    0.6751
    MIXING:  cpu time    0.0315: real time    0.0315
    --------------------------------------------
      LOOP:  cpu time   10.0693: real time   10.0903

 eigenvalue-minimisations  :   398
 total energy-change (2. order) :-0.1576867E-02  (-0.4713182E-04)
 number of electron     153.0000002 magnetization       1.0000000
 augmentation part       92.4639947 magnetization       0.0798094

 Broyden mixing:
  rms(total) = 0.22641E-02    rms(broyden)= 0.22640E-02
  rms(prec ) = 0.38886E-02
  weight for this iteration     100.00

 eigenvalues of (default mixing * dielectric matrix)
  average eigenvalue GAMMA=   1.3275
  4.3419  2.5888  2.0450  1.3515  1.1879  0.7735  0.7735  0.7509  0.6567  0.5271
  0.4497  0.4833

 Free energy of the ion-electron system (eV)
  ---------------------------------------------------
  alpha Z        PSCENC =        41.16232785
  Ewald energy   TEWEN  =     15949.05112669
  -Hartree energ DENC   =    -32938.05378531
  -exchange      EXHF   =         0.00000000
  -V(xc)+E(xc)   XCENC  =       615.00481039
  PAW double counting   =     17547.96298833   -18945.04983568
  entropy T*S    EENTRO =         0.00809035
  eigenvalues    EBANDS =      -980.97969406
  atomic energy  EATOM  =     18662.21924712
  Solvation  Ediel_sol  =         0.00000000
  ---------------------------------------------------
  free energy    TOTEN  =       -48.67472433 eV

  energy without entropy =      -48.68281468  energy(sigma->0) =      -48.67742111


--------------------------------------------------------------------------------------------------------




--------------------------------------- Iteration      1(  18)  ---------------------------------------


    POTLOK:  cpu time    1.1751: real time    1.1755
    SETDIJ:  cpu time    0.0167: real time    0.0167
    EDDIAG:  cpu time    1.1150: real time    1.1154
  RMM-DIIS:  cpu time    6.7270: real time    6.7295
    ORTHCH:  cpu time    0.0573: real time    0.0573
       DOS:  cpu time    0.0004: real time    0.0004
    CHARGE:  cpu time    0.6744: real time    0.6746
    MIXING:  cpu time    0.0328: real time    0.0329
    --------------------------------------------
      LOOP:  cpu time    9.7988: real time    9.8023

 eigenvalue-minimisations  :   407
 total energy-change (2. order) :-0.8675163E-03  (-0.2012045E-04)
 number of electron     153.0000002 magnetization       1.0000000
 augmentation part       92.4632453 magnetization       0.0799252

 Broyden mixing:
  rms(total) = 0.14773E-02    rms(broyden)= 0.14773E-02
  rms(prec ) = 0.26697E-02
  weight for this iteration     100.00

 eigenvalues of (default mixing * dielectric matrix)
  average eigenvalue GAMMA=   1.3785
  5.1803  2.6637  2.2132  1.3241  1.3241  0.8412  0.8412  0.7508  0.7508  0.5839
  0.5182  0.4500  0.4795

 Free energy of the ion-electron system (eV)
  ---------------------------------------------------
  alpha Z        PSCENC =        41.16232785
  Ewald energy   TEWEN  =     15949.05112669
  -Hartree energ DENC   =    -32938.98986703
  -exchange      EXHF   =         0.00000000
  -V(xc)+E(xc)   XCENC  =       615.00713371
  PAW double counting   =     17547.94835280   -18945.05226527
  entropy T*S    EENTRO =         0.00809263
  eigenvalues    EBANDS =      -980.02974034
  atomic energy  EATOM  =     18662.21924712
  Solvation  Ediel_sol  =         0.00000000
  ---------------------------------------------------
  free energy    TOTEN  =       -48.67559185 eV

  energy without entropy =      -48.68368447  energy(sigma->0) =      -48.67828939


--------------------------------------------------------------------------------------------------------




--------------------------------------- Iteration      1(  19)  ---------------------------------------


    POTLOK:  cpu time    1.1753: real time    1.1792
    SETDIJ:  cpu time    0.0175: real time    0.0175
    EDDIAG:  cpu time    1.1157: real time    1.1162
  RMM-DIIS:  cpu time    7.2154: real time    7.2181
    ORTHCH:  cpu time    0.0575: real time    0.0575
       DOS:  cpu time    0.0004: real time    0.0004
    CHARGE:  cpu time    0.6743: real time    0.6747
    MIXING:  cpu time    0.0338: real time    0.0338
    --------------------------------------------
      LOOP:  cpu time   10.2900: real time   10.2975

 eigenvalue-minimisations  :   441
 total energy-change (2. order) :-0.8039036E-03  (-0.1125199E-04)
 number of electron     153.0000002 magnetization       1.0000000
 augmentation part       92.4645780 magnetization       0.0800140

 Broyden mixing:
  rms(total) = 0.11831E-02    rms(broyden)= 0.11830E-02
  rms(prec ) = 0.19132E-02
  weight for this iteration     100.00

 eigenvalues of (default mixing * dielectric matrix)
  average eigenvalue GAMMA=   1.4346
  5.8598  2.7473  2.2270  1.4814  1.4814  1.2721  0.8285  0.7548  0.7548  0.6839
  0.4496  0.5496  0.5133  0.4808

 Free energy of the ion-electron system (eV)
  ---------------------------------------------------
  alpha Z        PSCENC =        41.16232785
  Ewald energy   TEWEN  =     15949.05112669
  -Hartree energ DENC   =    -32939.38874292
  -exchange      EXHF   =         0.00000000
  -V(xc)+E(xc)   XCENC  =       615.00421079
  PAW double counting   =     17548.08329077   -18945.18347327
  entropy T*S    EENTRO =         0.00808894
  eigenvalues    EBANDS =      -979.63247172
  atomic energy  EATOM  =     18662.21924712
  Solvation  Ediel_sol  =         0.00000000
  ---------------------------------------------------
  free energy    TOTEN  =       -48.67639575 eV

  energy without entropy =      -48.68448469  energy(sigma->0) =      -48.67909206


--------------------------------------------------------------------------------------------------------




--------------------------------------- Iteration      1(  20)  ---------------------------------------


    POTLOK:  cpu time    1.1754: real time    1.1765
    SETDIJ:  cpu time    0.0176: real time    0.0176
    EDDIAG:  cpu time    1.1146: real time    1.1155
  RMM-DIIS:  cpu time    6.8948: real time    6.8976
    ORTHCH:  cpu time    0.0575: real time    0.0575
       DOS:  cpu time    0.0004: real time    0.0004
    CHARGE:  cpu time    0.6751: real time    0.6755
    MIXING:  cpu time    0.0357: real time    0.0357
    --------------------------------------------
      LOOP:  cpu time    9.9712: real time    9.9762

 eigenvalue-minimisations  :   401
 total energy-change (2. order) :-0.5236534E-03  (-0.4571373E-05)
 number of electron     153.0000002 magnetization       1.0000000
 augmentation part       92.4646520 magnetization       0.0799684

 Broyden mixing:
  rms(total) = 0.64064E-03    rms(broyden)= 0.64062E-03
  rms(prec ) = 0.11422E-02
  weight for this iteration     100.00

 eigenvalues of (default mixing * dielectric matrix)
  average eigenvalue GAMMA=   1.4640
  6.3272  2.8784  2.3389  2.0547  1.2883  1.2883  0.8525  0.8525  0.7442  0.7442
  0.6197  0.4496  0.5212  0.5212  0.4799

 Free energy of the ion-electron system (eV)
  ---------------------------------------------------
  alpha Z        PSCENC =        41.16232785
  Ewald energy   TEWEN  =     15949.05112669
  -Hartree energ DENC   =    -32939.55555407
  -exchange      EXHF   =         0.00000000
  -V(xc)+E(xc)   XCENC  =       615.00308647
  PAW double counting   =     17548.44162258   -18945.55037819
  entropy T*S    EENTRO =         0.00808716
  eigenvalues    EBANDS =      -979.45648502
  atomic energy  EATOM  =     18662.21924712
  Solvation  Ediel_sol  =         0.00000000
  ---------------------------------------------------
  free energy    TOTEN  =       -48.67691940 eV

  energy without entropy =      -48.68500657  energy(sigma->0) =      -48.67961512


--------------------------------------------------------------------------------------------------------




--------------------------------------- Iteration      1(  21)  ---------------------------------------


    POTLOK:  cpu time    1.1738: real time    1.1745
    SETDIJ:  cpu time    0.0170: real time    0.0172
    EDDIAG:  cpu time    1.1146: real time    1.1152
  RMM-DIIS:  cpu time    6.6613: real time    6.6639
    ORTHCH:  cpu time    0.0573: real time    0.0573
       DOS:  cpu time    0.0005: real time    0.0005
    CHARGE:  cpu time    0.6734: real time    0.6736
    MIXING:  cpu time    0.0368: real time    0.0368
    --------------------------------------------
      LOOP:  cpu time    9.7347: real time    9.7390

 eigenvalue-minimisations  :   402
 total energy-change (2. order) :-0.3663670E-03  (-0.2544832E-05)
 number of electron     153.0000002 magnetization       1.0000000
 augmentation part       92.4650796 magnetization       0.0799189

 Broyden mixing:
  rms(total) = 0.60076E-03    rms(broyden)= 0.60074E-03
  rms(prec ) = 0.91355E-03
  weight for this iteration     100.00

 eigenvalues of (default mixing * dielectric matrix)
  average eigenvalue GAMMA=   1.5073
  6.6747  3.3392  2.5009  2.1525  1.3825  1.3825  0.9592  0.9592  0.7508  0.7508
  0.6926  0.6010  0.4497  0.4789  0.5212  0.5212

 Free energy of the ion-electron system (eV)
  ---------------------------------------------------
  alpha Z        PSCENC =        41.16232785
  Ewald energy   TEWEN  =     15949.05112669
  -Hartree energ DENC   =    -32939.57947151
  -exchange      EXHF   =         0.00000000
  -V(xc)+E(xc)   XCENC  =       615.00220011
  PAW double counting   =     17548.64359608   -18945.75452093
  entropy T*S    EENTRO =         0.00808468
  eigenvalues    EBANDS =      -979.42987585
  atomic energy  EATOM  =     18662.21924712
  Solvation  Ediel_sol  =         0.00000000
  ---------------------------------------------------
  free energy    TOTEN  =       -48.67728577 eV

  energy without entropy =      -48.68537045  energy(sigma->0) =      -48.67998066


--------------------------------------------------------------------------------------------------------




--------------------------------------- Iteration      1(  22)  ---------------------------------------


    POTLOK:  cpu time    1.1728: real time    1.1738
    SETDIJ:  cpu time    0.0173: real time    0.0173
    EDDIAG:  cpu time    1.1158: real time    1.1164
  RMM-DIIS:  cpu time    6.5383: real time    6.5408
    ORTHCH:  cpu time    0.0576: real time    0.0576
       DOS:  cpu time    0.0004: real time    0.0004
    CHARGE:  cpu time    0.6729: real time    0.6732
    MIXING:  cpu time    0.0390: real time    0.0390
    --------------------------------------------
      LOOP:  cpu time    9.6141: real time    9.6185

 eigenvalue-minimisations  :   403
 total energy-change (2. order) :-0.2596877E-03  (-0.1981521E-05)
 number of electron     153.0000002 magnetization       1.0000000
 augmentation part       92.4645125 magnetization       0.0799021

 Broyden mixing:
  rms(total) = 0.29193E-03    rms(broyden)= 0.29190E-03
  rms(prec ) = 0.50689E-03
  weight for this iteration     100.00

 eigenvalues of (default mixing * dielectric matrix)
  average eigenvalue GAMMA=   1.5597
  7.1489  4.0294  2.5051  2.1054  1.7466  1.2861  1.2861  0.8627  0.8627  0.7516
  0.7516  0.6466  0.4496  0.5713  0.4793  0.5161  0.5161

 Free energy of the ion-electron system (eV)
  ---------------------------------------------------
  alpha Z        PSCENC =        41.16232785
  Ewald energy   TEWEN  =     15949.05112669
  -Hartree energ DENC   =    -32939.66874682
  -exchange      EXHF   =         0.00000000
  -V(xc)+E(xc)   XCENC  =       615.00220073
  PAW double counting   =     17548.81269796   -18945.92990039
  entropy T*S    EENTRO =         0.00808747
  eigenvalues    EBANDS =      -979.33458606
  atomic energy  EATOM  =     18662.21924712
  Solvation  Ediel_sol  =         0.00000000
  ---------------------------------------------------
  free energy    TOTEN  =       -48.67754546 eV

  energy without entropy =      -48.68563293  energy(sigma->0) =      -48.68024128


--------------------------------------------------------------------------------------------------------




--------------------------------------- Iteration      1(  23)  ---------------------------------------


    POTLOK:  cpu time    1.1748: real time    1.1752
    SETDIJ:  cpu time    0.0169: real time    0.0169
    EDDIAG:  cpu time    1.1141: real time    1.1145
  RMM-DIIS:  cpu time    7.1296: real time    7.1321
    ORTHCH:  cpu time    0.0580: real time    0.0580
       DOS:  cpu time    0.0004: real time    0.0004
    CHARGE:  cpu time    0.6692: real time    0.6696
    MIXING:  cpu time    0.0423: real time    0.0423
    --------------------------------------------
      LOOP:  cpu time   10.2052: real time   10.2089

 eigenvalue-minimisations  :   427
 total energy-change (2. order) :-0.1223525E-03  (-0.7372751E-06)
 number of electron     153.0000002 magnetization       1.0000000
 augmentation part       92.4642665 magnetization       0.0799324

 Broyden mixing:
  rms(total) = 0.21312E-03    rms(broyden)= 0.21312E-03
  rms(prec ) = 0.34496E-03
  weight for this iteration     100.00

 eigenvalues of (default mixing * dielectric matrix)
  average eigenvalue GAMMA=   1.5714
  7.4547  4.2670  2.4749  2.2501  1.8680  1.3187  1.3187  0.9573  0.9573  0.7575
  0.7575  0.7409  0.6545  0.4495  0.5608  0.4784  0.5101  0.5101

 Free energy of the ion-electron system (eV)
  ---------------------------------------------------
  alpha Z        PSCENC =        41.16232785
  Ewald energy   TEWEN  =     15949.05112669
  -Hartree energ DENC   =    -32939.72522645
  -exchange      EXHF   =         0.00000000
  -V(xc)+E(xc)   XCENC  =       615.00209500
  PAW double counting   =     17548.77794975   -18945.89460550
  entropy T*S    EENTRO =         0.00808718
  eigenvalues    EBANDS =      -979.27866944
  atomic energy  EATOM  =     18662.21924712
  Solvation  Ediel_sol  =         0.00000000
  ---------------------------------------------------
  free energy    TOTEN  =       -48.67766781 eV

  energy without entropy =      -48.68575499  energy(sigma->0) =      -48.68036354


--------------------------------------------------------------------------------------------------------




--------------------------------------- Iteration      1(  24)  ---------------------------------------


    POTLOK:  cpu time    1.1752: real time    1.1761
    SETDIJ:  cpu time    0.0173: real time    0.0173
    EDDIAG:  cpu time    1.1159: real time    1.1168
  RMM-DIIS:  cpu time    6.7988: real time    6.8012
    ORTHCH:  cpu time    0.0570: real time    0.0570
       DOS:  cpu time    0.0004: real time    0.0004
    CHARGE:  cpu time    0.6704: real time    0.6707
    MIXING:  cpu time    0.0440: real time    0.0440
    --------------------------------------------
      LOOP:  cpu time    9.8790: real time    9.8835

 eigenvalue-minimisations  :   393
 total energy-change (2. order) :-0.9915063E-04  (-0.7317287E-06)
 number of electron     153.0000002 magnetization       1.0000000
 augmentation part       92.4643495 magnetization       0.0799336

 Broyden mixing:
  rms(total) = 0.14471E-03    rms(broyden)= 0.14470E-03
  rms(prec ) = 0.23200E-03
  weight for this iteration     100.00

 eigenvalues of (default mixing * dielectric matrix)
  average eigenvalue GAMMA=   1.6020
  7.7745  4.6473  2.5212  2.5212  1.8548  1.4451  1.4451  1.1350  0.8835  0.8835
  0.7612  0.7612  0.6829  0.6159  0.4495  0.5493  0.4786  0.5140  0.5140

 Free energy of the ion-electron system (eV)
  ---------------------------------------------------
  alpha Z        PSCENC =        41.16232785
  Ewald energy   TEWEN  =     15949.05112669
  -Hartree energ DENC   =    -32939.73133127
  -exchange      EXHF   =         0.00000000
  -V(xc)+E(xc)   XCENC  =       615.00201354
  PAW double counting   =     17548.67601226   -18945.78927192
  entropy T*S    EENTRO =         0.00808708
  eigenvalues    EBANDS =      -979.27597831
  atomic energy  EATOM  =     18662.21924712
  Solvation  Ediel_sol  =         0.00000000
  ---------------------------------------------------
  free energy    TOTEN  =       -48.67776696 eV

  energy without entropy =      -48.68585404  energy(sigma->0) =      -48.68046265


--------------------------------------------------------------------------------------------------------




--------------------------------------- Iteration      1(  25)  ---------------------------------------


    POTLOK:  cpu time    1.1735: real time    1.1738
    SETDIJ:  cpu time    0.0328: real time    0.0328
    EDDIAG:  cpu time    1.1145: real time    1.1152
  RMM-DIIS:  cpu time    6.4522: real time    6.4545
    ORTHCH:  cpu time    0.0573: real time    0.0573
       DOS:  cpu time    0.0004: real time    0.0004
    CHARGE:  cpu time    0.6696: real time    0.6700
    MIXING:  cpu time    0.0466: real time    0.0466
    --------------------------------------------
      LOOP:  cpu time    9.5467: real time    9.5506

 eigenvalue-minimisations  :   391
 total energy-change (2. order) :-0.6317736E-04  (-0.5752208E-06)
 number of electron     153.0000002 magnetization       1.0000000
 augmentation part       92.4645418 magnetization       0.0799382

 Broyden mixing:
  rms(total) = 0.10065E-03    rms(broyden)= 0.10063E-03
  rms(prec ) = 0.15439E-03
  weight for this iteration     100.00

 eigenvalues of (default mixing * dielectric matrix)
  average eigenvalue GAMMA=   1.6369
  7.9740  5.0989  2.6726  2.6726  1.8614  1.8614  1.3054  1.3054  0.9627  0.9627
  0.7621  0.7621  0.7154  0.7154  0.4496  0.5903  0.5649  0.4784  0.5119  0.5119

 Free energy of the ion-electron system (eV)
  ---------------------------------------------------
  alpha Z        PSCENC =        41.16232785
  Ewald energy   TEWEN  =     15949.05112669
  -Hartree energ DENC   =    -32939.72083808
  -exchange      EXHF   =         0.00000000
  -V(xc)+E(xc)   XCENC  =       615.00182815
  PAW double counting   =     17548.58296294   -18945.69238216
  entropy T*S    EENTRO =         0.00808668
  eigenvalues    EBANDS =      -979.29018932
  atomic energy  EATOM  =     18662.21924712
  Solvation  Ediel_sol  =         0.00000000
  ---------------------------------------------------
  free energy    TOTEN  =       -48.67783014 eV

  energy without entropy =      -48.68591682  energy(sigma->0) =      -48.68052570


--------------------------------------------------------------------------------------------------------




--------------------------------------- Iteration      1(  26)  ---------------------------------------


    POTLOK:  cpu time    1.1733: real time    1.1764
    SETDIJ:  cpu time    0.0178: real time    0.0178
    EDDIAG:  cpu time    1.1159: real time    1.1163
  RMM-DIIS:  cpu time    6.2463: real time    6.2485
    ORTHCH:  cpu time    0.0566: real time    0.0566
       DOS:  cpu time    0.0005: real time    0.0005
    CHARGE:  cpu time    0.6693: real time    0.6696
    MIXING:  cpu time    0.0498: real time    0.0497
    --------------------------------------------
      LOOP:  cpu time    9.3294: real time    9.3354

 eigenvalue-minimisations  :   359
 total energy-change (2. order) :-0.2782534E-04  (-0.2699810E-06)
 number of electron     153.0000002 magnetization       1.0000000
 augmentation part       92.4646846 magnetization       0.0799384

 Broyden mixing:
  rms(total) = 0.79684E-04    rms(broyden)= 0.79682E-04
  rms(prec ) = 0.11009E-03
  weight for this iteration     100.00

 eigenvalues of (default mixing * dielectric matrix)
  average eigenvalue GAMMA=   1.6462
  8.1077  5.4611  3.0649  2.5454  2.0572  1.8091  1.3706  1.3706  0.9990  0.9990
  0.7808  0.7808  0.7374  0.7374  0.6207  0.6207  0.4495  0.5565  0.4784  0.5114
  0.5114

 Free energy of the ion-electron system (eV)
  ---------------------------------------------------
  alpha Z        PSCENC =        41.16232785
  Ewald energy   TEWEN  =     15949.05112669
  -Hartree energ DENC   =    -32939.71797855
  -exchange      EXHF   =         0.00000000
  -V(xc)+E(xc)   XCENC  =       615.00166959
  PAW double counting   =     17548.55850673   -18945.66638969
  entropy T*S    EENTRO =         0.00808688
  eigenvalues    EBANDS =      -979.29445458
  atomic energy  EATOM  =     18662.21924712
  Solvation  Ediel_sol  =         0.00000000
  ---------------------------------------------------
  free energy    TOTEN  =       -48.67785796 eV

  energy without entropy =      -48.68594484  energy(sigma->0) =      -48.68055359


--------------------------------------------------------------------------------------------------------




--------------------------------------- Iteration      1(  27)  ---------------------------------------


    POTLOK:  cpu time    1.1733: real time    1.1737
    SETDIJ:  cpu time    0.0178: real time    0.0178
    EDDIAG:  cpu time    1.1152: real time    1.1158
  RMM-DIIS:  cpu time    4.6652: real time    4.6671
    ORTHCH:  cpu time    0.0566: real time    0.0565
       DOS:  cpu time    0.0005: real time    0.0005
    CHARGE:  cpu time    0.6701: real time    0.6705
    MIXING:  cpu time    0.0531: real time    0.0531
    --------------------------------------------
      LOOP:  cpu time    7.7518: real time    7.7550

 eigenvalue-minimisations  :   273
 total energy-change (2. order) :-0.1044403E-04  (-0.9919124E-07)
 number of electron     153.0000002 magnetization       1.0000000
 augmentation part       92.4644753 magnetization       0.0799304

 Broyden mixing:
  rms(total) = 0.49310E-04    rms(broyden)= 0.49305E-04
  rms(prec ) = 0.73425E-04
  weight for this iteration     100.00

 eigenvalues of (default mixing * dielectric matrix)
  average eigenvalue GAMMA=   1.6389
  8.1446  5.7081  3.2017  2.4847  2.2064  1.7454  1.4231  1.4231  1.1594  0.9395
  0.9395  0.7633  0.7633  0.7715  0.7075  0.4495  0.5846  0.5846  0.4786  0.5113
  0.5113  0.5545

 Free energy of the ion-electron system (eV)
  ---------------------------------------------------
  alpha Z        PSCENC =        41.16232785
  Ewald energy   TEWEN  =     15949.05112669
  -Hartree energ DENC   =    -32939.72609490
  -exchange      EXHF   =         0.00000000
  -V(xc)+E(xc)   XCENC  =       615.00185343
  PAW double counting   =     17548.56465820   -18945.67439942
  entropy T*S    EENTRO =         0.00808697
  eigenvalues    EBANDS =      -979.28467434
  atomic energy  EATOM  =     18662.21924712
  Solvation  Ediel_sol  =         0.00000000
  ---------------------------------------------------
  free energy    TOTEN  =       -48.67786841 eV

  energy without entropy =      -48.68595537  energy(sigma->0) =      -48.68056406


--------------------------------------------------------------------------------------------------------




--------------------------------------- Iteration      1(  28)  ---------------------------------------


    POTLOK:  cpu time    1.1726: real time    1.1738
    SETDIJ:  cpu time    0.0179: real time    0.0179
    EDDIAG:  cpu time    1.1163: real time    1.1169
  RMM-DIIS:  cpu time    4.3868: real time    4.3885
    ORTHCH:  cpu time    0.0563: real time    0.0563
       DOS:  cpu time    0.0004: real time    0.0004
    CHARGE:  cpu time    0.6679: real time    0.6683
    MIXING:  cpu time    0.0576: real time    0.0576
[...]
     66      -4.8893      1.00000
     67      -4.8640      1.00000
     68      -4.8545      1.00000
     69      -4.8415      1.00000
     70      -4.8017      1.00000
     71      -4.7988      1.00000
     72      -4.7441      1.00000
     73      -4.6983      1.00000
     74      -4.5346      1.00000
     75      -4.1620      1.00000
     76      -4.0352      1.00000
     77      -3.5910      1.00000
     78      -3.0119     -0.00000
     79      -2.8937     -0.00000
     80      -2.5970     -0.00000
     81      -2.3727     -0.00000
     82      -1.9555     -0.00000
     83      -1.9049     -0.00000
     84      -1.8338     -0.00000
     85      -1.4588     -0.00000
     86      -1.1186     -0.00000
     87      -0.9641     -0.00000
     88      -0.7304      0.00000
     89      -0.4187      0.00000
     90      -0.2578      0.00000
     91      -0.0693      0.00000
     92       0.0458      0.00000

 spin component 2

 k-point     1 :       0.0000    0.0000    0.0000
  band No.  band energies     occupation 
      1     -28.4362      1.00000
      2     -13.8175      1.00000
      3     -11.2083      1.00000
      4     -11.1216      1.00000
      5     -10.7926      1.00000
      6     -10.0153      1.00000
      7      -8.4192      1.00000
      8      -8.0474      1.00000
      9      -7.6143      1.00000
     10      -7.3419      1.00000
     11      -7.2538      1.00000
     12      -7.1963      1.00000
     13      -7.0757      1.00000
     14      -7.0141      1.00000
     15      -6.8251      1.00000
     16      -6.7762      1.00000
     17      -6.7002      1.00000
     18      -6.5915      1.00000
     19      -6.5054      1.00000
     20      -6.4797      1.00000
     21      -6.4305      1.00000
     22      -6.4212      1.00000
     23      -6.3686      1.00000
     24      -6.3548      1.00000
     25      -6.3336      1.00000
     26      -6.2348      1.00000
     27      -6.1874      1.00000
     28      -6.1701      1.00000
     29      -6.1446      1.00000
     30      -6.1233      1.00000
     31      -6.0572      1.00000
     32      -6.0191      1.00000
     33      -5.9802      1.00000
     34      -5.9372      1.00000
     35      -5.8739      1.00000
     36      -5.7832      1.00000
     37      -5.6954      1.00000
     38      -5.6502      1.00000
     39      -5.6194      1.00000
     40      -5.5759      1.00000
     41      -5.5256      1.00000
     42      -5.4736      1.00000
     43      -5.4412      1.00000
     44      -5.4048      1.00000
     45      -5.3619      1.00000
     46      -5.3419      1.00000
     47      -5.3202      1.00000
     48      -5.3038      1.00000
     49      -5.2934      1.00000
     50      -5.2680      1.00000
     51      -5.2327      1.00000
     52      -5.1893      1.00000
     53      -5.1715      1.00000
     54      -5.1448      1.00000
     55      -5.1353      1.00000
     56      -5.1017      1.00000
     57      -5.0916      1.00000
     58      -5.0831      1.00000
     59      -5.0770      1.00000
     60      -5.0303      1.00000
     61      -5.0150      1.00000
     62      -4.9642      1.00000
     63      -4.9554      1.00000
     64      -4.9157      1.00000
     65      -4.8765      1.00000
     66      -4.8673      1.00000
     67      -4.8314      1.00000
     68      -4.8270      1.00000
     69      -4.8063      1.00000
     70      -4.7719      1.00000
     71      -4.7616      1.00000
     72      -4.7201      1.00000
     73      -4.6677      1.00000
     74      -4.4936      1.00000
     75      -4.0955      1.01889
     76      -4.0030      0.98111
     77      -3.3823     -0.00000
     78      -2.9534     -0.00000
     79      -2.8405     -0.00000
     80      -2.5247     -0.00000
     81      -2.2822     -0.00000
     82      -1.9257     -0.00000
     83      -1.8122     -0.00000
     84      -1.7759     -0.00000
     85      -1.3581     -0.00000
     86      -0.9853      0.00000
     87      -0.8891      0.00000
     88      -0.6651      0.00000
     89      -0.3053      0.00000
     90      -0.2031      0.00000
     91      -0.0192      0.00000
     92       0.1009      0.00000


--------------------------------------------------------------------------------------------------------


 soft charge-density along one line, spin component           1
         0         1         2         3         4         5         6         7         8         9
 total charge-density along one line
 
 soft charge-density along one line, spin component           2
         0         1         2         3         4         5         6         7         8         9
 total charge-density along one line
 
 pseudopotential strength for first ion, spin component:           1
-10.530   0.002  -0.019   0.001  -0.011   1.030  -0.002   0.017
  0.002 -10.504  -0.007   0.010   0.005  -0.002   1.011   0.005
 -0.019  -0.007 -10.483   0.003  -0.013   0.017   0.005   0.994
  0.001   0.010   0.003 -10.485  -0.004  -0.001  -0.009  -0.002
 -0.011   0.005  -0.013  -0.004 -10.511   0.008  -0.004   0.011
  1.030  -0.002   0.017  -0.001   0.008   6.283   0.001  -0.013
 -0.002   1.011   0.005  -0.009  -0.004   0.001   6.294  -0.004
  0.017   0.005   0.994  -0.002   0.011  -0.013  -0.004   6.307
 -0.001  -0.009  -0.002   0.994   0.003   0.001   0.009   0.001
  0.008  -0.004   0.011   0.003   1.017  -0.005   0.003  -0.008
 -0.008   0.001  -0.006  -0.000  -0.004   0.005  -0.000  -0.000
 -0.015   0.002  -0.010  -0.000  -0.008   0.010   0.000  -0.000
 -0.012   0.000   0.005  -0.000   0.009   0.007   0.000  -0.004
 -0.000  -0.007   0.000  -0.011   0.000   0.001   0.005   0.000
 -0.006  -0.000   0.007   0.000  -0.012   0.003   0.001  -0.005
 -0.012   0.000   0.005  -0.001   0.011   0.007   0.001  -0.004
 -0.001  -0.007   0.000  -0.011  -0.000   0.001   0.004   0.000
 -0.006  -0.001   0.008   0.000  -0.013   0.002   0.001  -0.005
 pseudopotential strength for first ion, spin component:           2
-10.485   0.000  -0.010  -0.008   0.003   0.994  -0.001   0.008
  0.000 -10.490  -0.008   0.009   0.003  -0.001   0.998   0.006
 -0.010  -0.008 -10.469   0.001  -0.009   0.008   0.006   0.981
 -0.008   0.009   0.001 -10.469  -0.007   0.006  -0.008  -0.001
  0.003   0.003  -0.009  -0.007 -10.495  -0.003  -0.003   0.007
  0.994  -0.001   0.008   0.006  -0.003   6.306   0.001  -0.005
 -0.001   0.998   0.006  -0.008  -0.003   0.001   6.301  -0.004
  0.008   0.006   0.981  -0.001   0.007  -0.005  -0.004   6.313
  0.006  -0.008  -0.001   0.982   0.005  -0.004   0.006   0.001
 -0.003  -0.003   0.007   0.005   1.002   0.002   0.002  -0.005
 -0.003   0.002  -0.003  -0.000  -0.003   0.001   0.000  -0.001
 -0.006   0.003  -0.005  -0.000  -0.005   0.001   0.000  -0.003
 -0.013   0.000   0.005   0.000   0.009   0.011  -0.001  -0.005
  0.000  -0.008   0.001  -0.013   0.000  -0.000   0.007  -0.001
 -0.009   0.000   0.008   0.001  -0.013   0.008  -0.000  -0.007
 -0.015   0.001   0.006   0.000   0.010   0.012  -0.001  -0.006
  0.000  -0.009   0.001  -0.014   0.001  -0.000   0.008  -0.002
 -0.011   0.000   0.009   0.002  -0.015   0.009  -0.000  -0.008
 total augmentation occupancy for first ion, spin component:           1
  1.931   0.006  -0.007   0.002  -0.004  -0.011  -0.002   0.008  -0.000   0.004  -0.021   0.014   0.031  -0.001   0.037  -0.018
  0.006   1.926  -0.007   0.008   0.000  -0.002  -0.019   0.005  -0.002  -0.000  -0.004  -0.002  -0.001   0.041  -0.004   0.000
 -0.007  -0.007   1.945   0.003  -0.003   0.008   0.005  -0.027  -0.003   0.004  -0.015   0.010  -0.011   0.000  -0.016   0.006
  0.002   0.008   0.003   1.938  -0.006  -0.000  -0.002  -0.003  -0.024   0.004   0.009   0.001   0.006   0.052   0.001  -0.000
 -0.004   0.000  -0.003  -0.006   1.937   0.004  -0.001   0.004   0.004  -0.016  -0.011   0.006  -0.010   0.009   0.032   0.012
 -0.011  -0.002   0.008  -0.000   0.004   0.014   0.000   0.002   0.001   0.001  -0.030   0.000   0.018   0.001   0.010  -0.001
 -0.002  -0.019   0.005  -0.002  -0.001   0.000   0.008   0.000   0.001  -0.001   0.011  -0.001  -0.000   0.013   0.002  -0.000
  0.008   0.005  -0.027  -0.003   0.004   0.002   0.000   0.007  -0.000   0.001  -0.038   0.005  -0.006  -0.002  -0.006   0.001
 -0.000  -0.002  -0.003  -0.024   0.004   0.001   0.001  -0.000   0.008  -0.001  -0.004   0.001  -0.000   0.018  -0.001  -0.000
  0.004  -0.000   0.004   0.004  -0.016   0.001  -0.001   0.001  -0.001   0.012  -0.018   0.001  -0.019  -0.003   0.020   0.001
 -0.021  -0.004  -0.015   0.009  -0.011  -0.030   0.011  -0.038  -0.004  -0.018   1.634  -0.114   0.126  -0.002   0.162  -0.017
  0.014  -0.002   0.010   0.001   0.006   0.000  -0.001   0.005   0.001   0.001  -0.114   0.013  -0.018   0.001  -0.024   0.002
  0.031  -0.001  -0.011   0.006  -0.010   0.018  -0.000  -0.006  -0.000  -0.019   0.126  -0.018   0.183   0.005  -0.042  -0.011
 -0.001   0.041   0.000   0.052   0.009   0.001   0.013  -0.002   0.018  -0.003  -0.002   0.001   0.005   0.087  -0.006  -0.001
  0.037  -0.004  -0.016   0.001   0.032   0.010   0.002  -0.006  -0.001   0.020   0.162  -0.024  -0.042  -0.006   0.139   0.001
 -0.018   0.000   0.006  -0.000   0.012  -0.001  -0.000   0.001  -0.000   0.001  -0.017   0.002  -0.011  -0.001   0.001   0.001
 -0.000  -0.014   0.000  -0.020   0.000  -0.000  -0.001   0.000  -0.001   0.000   0.001  -0.000  -0.001  -0.006   0.001   0.000
 -0.013  -0.000   0.009   0.000  -0.018  -0.000  -0.000   0.001   0.000  -0.001  -0.023   0.002   0.001   0.000  -0.010   0.000
 total augmentation occupancy for first ion, spin component:           2
  0.019  -0.002   0.003  -0.005   0.008  -0.003   0.000  -0.002   0.001  -0.002   0.037   0.007  -0.012   0.006  -0.018  -0.001
 -0.002   0.001  -0.000   0.002  -0.001   0.000   0.002  -0.000   0.001   0.000  -0.004  -0.001   0.002  -0.003   0.002   0.000
  0.003  -0.000   0.002  -0.001   0.001  -0.002  -0.000   0.002   0.000  -0.001   0.006   0.001  -0.000   0.003  -0.001   0.000
 -0.005   0.002  -0.001   0.003  -0.002   0.001   0.001   0.000   0.002   0.000  -0.011  -0.002   0.003  -0.006   0.006   0.000
  0.008  -0.001   0.001  -0.002   0.003  -0.002   0.000  -0.001   0.000   0.002   0.015   0.003  -0.002   0.002  -0.010  -0.000
 -0.003   0.000  -0.002   0.001  -0.002   0.001  -0.000   0.000  -0.000   0.000  -0.008  -0.001   0.002  -0.002   0.004   0.000
  0.000   0.002  -0.000   0.001   0.000  -0.000  -0.000   0.000  -0.000  -0.000   0.000   0.000  -0.000   0.000  -0.000  -0.000
 -0.002  -0.000   0.002   0.000  -0.001   0.000   0.000  -0.000  -0.000   0.000  -0.002  -0.000   0.001  -0.000   0.001   0.000
  0.001   0.001   0.000   0.002   0.000  -0.000  -0.000  -0.000  -0.000  -0.000   0.002   0.000  -0.001   0.000  -0.001   0.000
 -0.002   0.000  -0.001   0.000   0.002   0.000  -0.000   0.000  -0.000  -0.000  -0.003  -0.000   0.002  -0.001   0.001  -0.000
  0.037  -0.004   0.006  -0.011   0.015  -0.008   0.000  -0.002   0.002  -0.003   0.092   0.005  -0.024   0.015  -0.039  -0.000
  0.007  -0.001   0.001  -0.002   0.003  -0.001   0.000  -0.000   0.000  -0.000   0.005   0.001  -0.001   0.001  -0.002  -0.000
 -0.012   0.002  -0.000   0.003  -0.002   0.002  -0.000   0.001  -0.001   0.002  -0.024  -0.001   0.005  -0.003   0.006   0.000
  0.006  -0.003   0.003  -0.006   0.002  -0.002   0.000  -0.000   0.000  -0.001   0.015   0.001  -0.003   0.002  -0.005  -0.000
 -0.018   0.002  -0.001   0.006  -0.010   0.004  -0.000   0.001  -0.001   0.001  -0.039  -0.002   0.006  -0.005   0.013   0.000
 -0.001   0.000   0.000   0.000  -0.000   0.000  -0.000   0.000   0.000  -0.000  -0.000  -0.000   0.000  -0.000   0.000   0.000
  0.000  -0.001   0.000  -0.001   0.000   0.000  -0.000  -0.000   0.000  -0.000  -0.000   0.000   0.000   0.000  -0.000  -0.000
 -0.001   0.000   0.000   0.001  -0.001   0.000   0.000   0.000  -0.000   0.000  -0.000  -0.000   0.000  -0.000   0.000   0.000


------------------------ aborting loop because EDIFF is reached ----------------------------------------


    CHARGE:  cpu time    0.6676: real time    0.6680
    FORLOC:  cpu time    0.0662: real time    0.0662
    FORNL :  cpu time    1.5318: real time    1.5320
    STRESS:  cpu time    6.0819: real time    6.0840
    FORCOR:  cpu time    1.1808: real time    1.1811
    FORHAR:  cpu time    0.1916: real time    0.1917
    MIXING:  cpu time    0.1203: real time    0.1203
    OFIELD:  cpu time    0.0001: real time    0.0001

  FORCE on cell =-STRESS in cart. coord.  units (eV):
  Direction    XX          YY          ZZ          XY          YZ          ZX
  --------------------------------------------------------------------------------------
  Alpha Z    41.16233    41.16233    41.16233
  Ewald    9984.99536  7208.57693 -1244.53708  -734.24056   391.46301    23.66405
  Hartree 15142.59104 12686.09777  5111.04211  -683.62434   349.82615   -27.57395
  E(xc)    -875.90804  -877.31708  -878.93220     0.03713     0.05568     0.32515
  Local  -26522.63715-21319.78191 -5299.70018  1422.76466  -739.76490    10.93083
  n-local  -334.30937  -325.32066  -331.93200    -2.73708    -0.25581    -0.50647
  augment  1222.91045  1225.24517  1231.90132    -0.07519    -0.44903    -1.25251
  Kinetic  1335.88962  1360.81155  1367.20806    -3.13092    -1.24007    -5.45985
  Fock        0.00000     0.00000     0.00000     0.00000     0.00000     0.00000
  -------------------------------------------------------------------------------------
  Total      -5.30576    -0.52591    -3.78765    -1.00630    -0.36497     0.12725
  in kB      -2.51875    -0.24966    -1.79807    -0.47771    -0.17326     0.06041
  external pressure =       -1.52 kB  Pullay stress =        0.00 kB


 VOLUME and BASIS-vectors are now :
 -----------------------------------------------------------------------------
  energy-cutoff  :      600.00
  volume of cell :     3375.00
      direct lattice vectors                 reciprocal lattice vectors
    15.000000000  0.000000000  0.000000000     0.066666667  0.000000000  0.000000000
     0.000000000 15.000000000  0.000000000     0.000000000  0.066666667  0.000000000
     0.000000000  0.000000000 15.000000000     0.000000000  0.000000000  0.066666667

  length of vectors
    15.000000000 15.000000000 15.000000000     0.066666667  0.066666667  0.066666667


 FORCES acting on ions
    electron-ion (+dipol)            ewald-force                    non-local-force                 convergence-correction
 -----------------------------------------------------------------------------------------------
   0.106E+04 0.693E+03 -.641E+02   -.105E+04 -.690E+03 0.641E+02   -.429E+01 -.326E+01 -.116E+00   0.213E-04 0.306E-04 -.571E-06
   0.471E+03 -.340E+03 0.896E+03   -.469E+03 0.337E+03 -.896E+03   -.231E+01 0.267E+01 0.570E+00   0.117E-04 -.214E-04 0.231E-04
   0.300E+03 0.125E+04 -.175E+03   -.297E+03 -.124E+04 0.173E+03   -.240E+01 -.880E+01 0.201E+01   0.733E-05 0.183E-04 -.376E-05
   -.848E+03 -.130E+03 0.885E+03   0.846E+03 0.129E+03 -.880E+03   0.191E+01 0.102E+01 -.456E+01   -.335E-04 0.148E-05 0.234E-04
   -.811E+03 0.995E+03 0.126E+03   0.806E+03 -.989E+03 -.125E+03   0.474E+01 -.559E+01 -.844E+00   -.986E-05 0.143E-04 -.271E-05
   -.171E+03 0.513E+03 -.935E+03   0.169E+03 -.510E+03 0.934E+03   0.154E+01 -.381E+01 0.198E+00   -.178E-04 0.349E-04 -.135E-04
   0.196E+03 0.622E+03 0.120E+04   -.194E+03 -.618E+03 -.119E+04   -.137E+01 -.497E+01 -.625E+01   0.821E-05 0.280E-04 0.277E-04
   0.123E+04 -.340E+03 0.148E+03   -.122E+04 0.337E+03 -.145E+03   -.878E+01 0.318E+01 -.315E+01   0.127E-04 -.258E-05 -.537E-05
   0.565E+03 -.204E+03 -.122E+04   -.561E+03 0.204E+03 0.121E+04   -.355E+01 0.372E+00 0.731E+01   0.210E-04 -.290E-06 -.341E-04
   0.446E+03 -.124E+04 -.149E+03   -.443E+03 0.123E+04 0.148E+03   -.315E+01 0.714E+01 0.147E+01   0.401E-05 -.151E-04 0.790E-05
   -.459E+03 -.102E+04 0.706E+03   0.454E+03 0.102E+04 -.699E+03   0.437E+01 0.628E+01 -.664E+01   -.869E-05 -.165E-04 0.181E-04
   -.868E+03 -.111E+01 -.337E+03   0.866E+03 0.193E+00 0.333E+03   0.244E+01 0.679E+00 0.381E+01   0.492E-05 0.548E-05 0.801E-05
   -.588E+03 -.765E+03 -.816E+03   0.585E+03 0.761E+03 0.814E+03   0.365E+01 0.413E+01 0.231E+01   -.237E-04 -.205E-04 -.157E-04
   -.845E+02 0.219E+02 -.114E+03   0.646E+02 -.249E+02 0.112E+03   0.201E+02 0.315E+01 0.242E+01   0.516E-05 0.449E-06 0.943E-06
   -.391E+03 -.432E+02 -.142E+03   0.448E+03 0.518E+02 0.151E+03   -.578E+02 -.881E+01 -.933E+01   0.279E-05 -.962E-06 -.297E-05
 -----------------------------------------------------------------------------------------------
   0.449E+02 0.662E+01 0.108E+02   0.455E-12 -.711E-13 0.000E+00   -.449E+02 -.662E+01 -.108E+02   0.559E-05 0.560E-04 0.306E-04
 
 
 POSITION                                       TOTAL-FORCE (eV/Angst)
 -----------------------------------------------------------------------------------
      4.38487      6.29638      8.40083         0.280324     -0.092745     -0.107012
      5.66902      8.18325      7.34854        -0.477381      0.306116      0.275078
      5.91693      4.37566      8.37879         0.043163      0.189779      0.105812
      8.00682      7.54230      7.17075         0.058746      0.155963      0.292819
      8.18478      5.18061      7.98840         0.124318      0.394686     -0.123936
      6.70974      6.63356      9.22049         0.128842     -0.934908     -0.354224
      6.24141      5.99292      6.59396        -0.009421     -0.219689      0.549564
      3.35301      8.45156      8.29289         0.085768      0.372967     -0.172144
      4.97089      8.18516      9.96180         0.292519      0.065538     -0.378016
      5.28020     10.25610      8.56531        -0.088144     -0.297254     -0.087742
      7.28515      9.99969      7.05315        -0.139339     -0.274065      0.402203
      9.49253      7.29504      9.01841         0.115936     -0.238274      0.304746
      7.21009      8.86483      9.23098         0.442660      0.551145     -0.308310
     11.21890      7.40446      9.84459         0.203935      0.232582     -0.245691
     12.35630      7.57596     10.02880        -1.061926     -0.211840     -0.153147
 -----------------------------------------------------------------------------------
    total drift:                                0.001346      0.004278      0.000552


--------------------------------------------------------------------------------------------------------



  FREE ENERGIE OF THE ION-ELECTRON SYSTEM (eV)
  ---------------------------------------------------
  free  energy   TOTEN  =       -48.67788089 eV

  energy  without entropy=      -48.68596758  energy(sigma->0) =      -48.68057645
 


--------------------------------------------------------------------------------------------------------


    POTLOK:  cpu time    1.1942: real time    1.1944


--------------------------------------------------------------------------------------------------------


     LOOP+:  cpu time  356.7557: real time  356.9957
    4ORBIT:  cpu time    0.0000: real time    0.0000

 total amount of memory used by VASP MPI-rank0   158680. kBytes
=======================================================================

   base      :      30000. kBytes
   nonl-proj :      12601. kBytes
   fftplans  :      27994. kBytes
   grid      :      74150. kBytes
   one-center:         93. kBytes
   wavefun   :      13842. kBytes
 
  
  
 General timing and accounting informations for this job:
 ========================================================
  
                  Total CPU time used (sec):      360.711
                            User time (sec):      347.372
                          System time (sec):       13.339
                         Elapsed time (sec):      360.981
  
                   Maximum memory used (kb):      281096.
                   Average memory used (kb):           0.
  
                          Minor page faults:       303957
                          Major page faults:            0
                 Voluntary context switches:          651
