<?xml version="1.0" encoding="ISO-8859-1"?>
<modeling>
 <generator>
  <i name="program" type="string">vasp </i>
  <i name="version" type="string">5.4.4.18Apr17-6-g9f103f2a35  </i>
  <i name="subversion" type="string">(build May 08 2019 13:49:07) complex            parallel </i>
  <i name="platform" type="string">LinuxIFC </i>
  <i name="date" type="string">2019 11 13 </i>
  <i name="time" type="string">14:48:40 </i>
 </generator>
 <incar>
  <i type="string" name="SYSTEM"> CuCO</i>
  <i type="int" name="ISTART">     0</i>
  <i type="string" name="PREC">accurate</i>
  <i type="string" name="ALGO"> Fast</i>
  <i type="int" name="ISPIN">     2</i>
  <i type="int" name="INIWAV">     1</i>
  <i type="int" name="NELM">   300</i>
  <i type="int" name="NELMIN">     3</i>
  <i type="int" name="IBRION">    -1</i>
  <i name="EDIFF">      0.00000010</i>
  <i name="EDIFFG">     -0.00100000</i>
  <i type="int" name="NSW">     0</i>
  <i type="int" name="ISYM">     0</i>
  <i name="ENCUT">    600.00000000</i>
  <i name="NUPDOWN">      1.00000000</i>
  <i type="logical" name="LREAL"> F  </i>
  <i type="int" name="ISMEAR">     1</i>
  <i name="SIGMA">      0.10000000</i>
  <i name="KSPACING">      0.50000000</i>
  <i type="logical" name="KGAMMA"> F  </i>
  <i type="logical" name="LWAVE"> F  </i>
  <i type="logical" name="LCHARG"> F  </i>
  <v type="int" name="KPOINT_BSE">    -1     0     0     0</v>
  <i type="int" name="NELM">   300</i>
  <i type="string" name="GGA"> PE</i>
 </incar>
 <structure name="primitive_cell" >
  <crystal>
   <varray name="basis" >
    <v>      15.00000000       0.00000000       0.00000000 </v>
    <v>       0.00000000      15.00000000       0.00000000 </v>
    <v>       0.00000000       0.00000000      15.00000000 </v>
   </varray>
   <i name="volume">   3375.00000000 </i>
   <varray name="rec_basis" >
    <v>       0.06666667       0.00000000       0.00000000 </v>
    <v>       0.00000000       0.06666667       0.00000000 </v>
    <v>       0.00000000       0.00000000       0.06666667 </v>
   </varray>
  </crystal>
  <varray name="positions" >
   <v>       0.29232467       0.41975867      -0.43994467 </v>
   <v>       0.22353400      -0.43656267      -0.44714067 </v>
   <v>       0.39446200       0.29171067      -0.44141400 </v>
   <v>       0.44731600       0.44223733      -0.38530067 </v>
   <v>       0.37793467      -0.45445000       0.48990267 </v>
   <v>       0.33139267      -0.45432267      -0.33588000 </v>
   <v>       0.41609400       0.39952800       0.43959733 </v>
   <v>       0.48067267      -0.40901133      -0.38460133 </v>
   <v>      -0.45434800       0.34537400      -0.46744000 </v>
   <v>      -0.46621200      -0.49718000       0.47805000 </v>
   <v>       0.35201333      -0.31626000      -0.42897933 </v>
   <v>       0.48567667      -0.33335400       0.47021000 </v>
   <v>      -0.36716467       0.48633600      -0.39877267 </v>
   <v>      -0.25207333       0.49363067      -0.34369400 </v>
   <v>      -0.17624667      -0.49493600      -0.33141333 </v>
  </varray>
 </structure>
 <varray name="primitive_index" >
  <v type="int" >        1 </v>
  <v type="int" >        8 </v>
  <v type="int" >        3 </v>
  <v type="int" >        6 </v>
  <v type="int" >        2 </v>
  <v type="int" >        9 </v>
  <v type="int" >        7 </v>
  <v type="int" >       13 </v>
  <v type="int" >        5 </v>
  <v type="int" >        4 </v>
  <v type="int" >       10 </v>
  <v type="int" >       11 </v>
  <v type="int" >       12 </v>
  <v type="int" >       14 </v>
  <v type="int" >       15 </v>
 </varray>
 <kpoints>
  <generation param="Monkhorst-Pack">
   <v type="int" name="divisions">       1        1        1 </v>
   <v name="usershift">      0.00000000       0.00000000       0.00000000 </v>
   <v name="genvec1">      1.00000000       0.00000000       0.00000000 </v>
   <v name="genvec2">      0.00000000       1.00000000       0.00000000 </v>
   <v name="genvec3">      0.00000000       0.00000000       1.00000000 </v>
   <v name="shift">      0.00000000       0.00000000       0.00000000 </v>
  </generation>
  <varray name="kpointlist" >
   <v>       0.00000000       0.00000000       0.00000000 </v>
  </varray>
  <varray name="weights" >
   <v>       1.00000000 </v>
  </varray>
 </kpoints>
 <parameters>
  <separator name="general" >
   <i type="string" name="SYSTEM">CuCO</i>
   <i type="logical" name="LCOMPAT"> F  </i>
  </separator>
  <separator name="electronic" >
   <i type="string" name="PREC">accura</i>
   <i name="ENMAX">    600.00000000</i>
   <i name="ENAUG">    644.87300000</i>
   <i name="EDIFF">      0.00000010</i>
   <i type="int" name="IALGO">    68</i>
   <i type="int" name="IWAVPR">    10</i>
   <i type="int" name="NBANDS">    92</i>
   <i name="NELECT">    153.00000000</i>
   <i type="int" name="TURBO">     0</i>
   <i type="int" name="IRESTART">     0</i>
   <i type="int" name="NREBOOT">     0</i>
   <i type="int" name="NMIN">     0</i>
   <i name="EREF">      0.00000000</i>
   <separator name="electronic smearing" >
    <i type="int" name="ISMEAR">     1</i>
    <i name="SIGMA">      0.10000000</i>
    <i name="KSPACING">      0.50000000</i>
    <i type="logical" name="KGAMMA"> F  </i>
   </separator>
   <separator name="electronic projectors" >
    <i type="logical" name="LREAL"> F  </i>
    <v name="ROPT">      0.00000000      0.00000000      0.00000000</v>
    <i type="int" name="LMAXPAW">  -100</i>
    <i type="int" name="LMAXMIX">     2</i>
    <i type="logical" name="NLSPLINE"> F  </i>
   </separator>
   <separator name="electronic startup" >
    <i type="int" name="ISTART">     0</i>
    <i type="int" name="ICHARG">     2</i>
    <i type="int" name="INIWAV">     1</i>
   </separator>
   <separator name="electronic spin" >
    <i type="int" name="ISPIN">     2</i>
    <i type="logical" name="LNONCOLLINEAR"> F  </i>
    <v name="MAGMOM">      0.06666667      0.06666667      0.06666667      0.06666667      0.06666667      0.06666667      0.06666667      0.06666667      0.06666667      0.06666667      0.06666667      0.06666667      0.06666667      0.06666667      0.06666667</v>
    <i name="NUPDOWN">      1.00000000</i>
    <i type="logical" name="LSORBIT"> F  </i>
    <v name="SAXIS">      0.00000000      0.00000000      1.00000000</v>
    <i type="logical" name="LSPIRAL"> F  </i>
    <v name="QSPIRAL">      0.00000000      0.00000000      0.00000000</v>
    <i type="logical" name="LZEROZ"> F  </i>
   </separator>
   <separator name="electronic exchange-correlation" >
    <i type="logical" name="LASPH"> F  </i>
    <i type="logical" name="LMETAGGA"> F  </i>
   </separator>
   <separator name="electronic convergence" >
    <i type="int" name="NELM">   300</i>
    <i type="int" name="NELMDL">    -5</i>
    <i type="int" name="NELMIN">     3</i>
    <i name="ENINI">    600.00000000</i>
    <separator name="electronic convergence detail" >
     <i type="logical" name="LDIAG"> T  </i>
     <i type="logical" name="LSUBROT"> F  </i>
     <i name="WEIMIN">      0.00000000</i>
     <i name="EBREAK">      0.00000000</i>
     <i name="DEPER">      0.30000000</i>
     <i type="int" name="NRMM">     4</i>
     <i name="TIME">      0.40000000</i>
    </separator>
   </separator>
   <separator name="electronic mixer" >
    <i name="AMIX">      0.40000000</i>
    <i name="BMIX">      1.00000000</i>
    <i name="AMIN">      0.10000000</i>
    <i name="AMIX_MAG">      1.60000000</i>
    <i name="BMIX_MAG">      1.00000000</i>
    <separator name="electronic mixer details" >
     <i type="int" name="IMIX">     4</i>
     <i type="logical" name="MIXFIRST"> F  </i>
     <i type="int" name="MAXMIX">   -45</i>
     <i name="WC">    100.00000000</i>
     <i type="int" name="INIMIX">     1</i>
     <i type="int" name="MIXPRE">     1</i>
     <i type="int" name="MREMOVE">     5</i>
    </separator>
   </separator>
   <separator name="electronic dipolcorrection" >
    <i type="logical" name="LDIPOL"> F  </i>
    <i type="logical" name="LMONO"> F  </i>
    <i type="int" name="IDIPOL">     0</i>
    <i name="EPSILON">      1.00000000</i>
    <v name="DIPOL">   -100.00000000   -100.00000000   -100.00000000</v>
    <i name="EFIELD">      0.00000000</i>
   </separator>
  </separator>
  <separator name="grids" >
   <i type="int" name="NGX">   120</i>
   <i type="int" name="NGY">   120</i>
   <i type="int" name="NGZ">   120</i>
   <i type="int" name="NGXF">   240</i>
   <i type="int" name="NGYF">   240</i>
   <i type="int" name="NGZF">   240</i>
   <i type="logical" name="ADDGRID"> F  </i>
  </separator>
  <separator name="ionic" >
   <i type="int" name="NSW">     0</i>
   <i type="int" name="IBRION">    -1</i>
   <i type="int" name="MDALGO">     0</i>
   <i type="int" name="ISIF">     2</i>
   <i name="PSTRESS">      0.00000000</i>
   <i name="EDIFFG">     -0.00100000</i>
   <i type="int" name="NFREE">     0</i>
   <i name="POTIM">      0.50000000</i>
   <i name="SMASS">     -3.00000000</i>
   <i name="SCALEE">      1.00000000</i>
  </separator>
  <separator name="ionic md" >
   <i name="TEBEG">      0.00010000</i>
   <i name="TEEND">      0.00010000</i>
   <i type="int" name="NBLOCK">     1</i>
   <i type="int" name="KBLOCK">     1</i>
   <i type="int" name="NPACO">   256</i>
   <i name="APACO">     16.00000000</i>
  </separator>
  <separator name="symmetry" >
   <i type="int" name="ISYM">     0</i>
   <i name="SYMPREC">      0.00001000</i>
  </separator>
  <separator name="dos" >
   <i type="int" name="LORBIT">     0</i>
   <v name="RWIGS">     -1.00000000     -1.00000000     -1.00000000</v>
   <i type="int" name="NEDOS">   301</i>
   <i name="EMIN">     10.00000000</i>
   <i name="EMAX">    -10.00000000</i>
   <i name="EFERMI">      0.00000000</i>
  </separator>
  <separator name="writing" >
   <i type="int" name="NWRITE">     2</i>
   <i type="logical" name="LWAVE"> F  </i>
   <i type="logical" name="LDOWNSAMPLE"> F  </i>
   <i type="logical" name="LCHARG"> F  </i>
   <i type="logical" name="LPARD"> F  </i>
   <i type="logical" name="LVTOT"> F  </i>
   <i type="logical" name="LVHAR"> F  </i>
   <i type="logical" name="LELF"> F  </i>
   <i type="logical" name="LOPTICS"> F  </i>
   <v name="STM">      0.00000000      0.00000000      0.00000000      0.00000000      0.00000000      0.00000000      0.00000000</v>
  </separator>
  <separator name="performance" >
   <i type="int" name="NPAR">     4</i>
   <i type="int" name="NSIM">     4</i>
   <i type="int" name="NBLK">    -1</i>
   <i type="logical" name="LPLANE"> T  </i>
   <i type="logical" name="LSCALAPACK"> T  </i>
   <i type="logical" name="LSCAAWARE"> F  </i>
   <i type="logical" name="LSCALU"> F  </i>
   <i type="logical" name="LASYNC"> F  </i>
   <i type="logical" name="LORBITALREAL"> F  </i>
  </separator>
  <separator name="miscellaneous" >
   <i type="int" name="IDIOT">     3</i>
   <i type="int" name="ISPECIAL">     0</i>
   <i type="logical" name="LMUSIC"> F  </i>
   <v name="POMASS">     63.54600000     12.01100000     16.00000000</v>
   <v name="DARWINR">      0.00000000      0.00000000      0.00000000</v>
   <v name="DARWINV">      1.00000000      1.00000000      1.00000000</v>
   <i type="logical" name="LCORR"> T  </i>
  </separator>
  <i type="logical" name="GGA_COMPAT"> T  </i>
  <i type="logical" name="LBERRY"> F  </i>
  <i type="int" name="ICORELEVEL">     0</i>
  <i type="logical" name="LDAU"> F  </i>
  <i type="int" name="I_CONSTRAINED_M">     0</i>
  <separator name="electronic exchange-correlation" >
   <i type="string" name="GGA">PE</i>
   <i type="int" name="VOSKOWN">     0</i>
   <i type="logical" name="LHFCALC"> F  </i>
   <i type="string" name="PRECFOCK"></i>
   <i type="logical" name="LSYMGRAD"> F  </i>
   <i type="logical" name="LHFONE"> F  </i>
   <i type="logical" name="LRHFCALC"> F  </i>
   <i type="logical" name="LTHOMAS"> F  </i>
   <i type="logical" name="LMODELHF"> F  </i>
   <i name="ENCUT4O">     -1.00000000</i>
   <i type="int" name="EXXOEP">     0</i>
   <i type="int" name="FOURORBIT">     0</i>
   <i name="AEXX">      0.00000000</i>
   <i name="HFALPHA">      0.00000000</i>
   <i name="MCALPHA">      0.00000000</i>
   <i name="ALDAX">      1.00000000</i>
   <i name="AGGAX">      1.00000000</i>
   <i name="ALDAC">      1.00000000</i>
   <i name="AGGAC">      1.00000000</i>
   <i type="int" name="NKREDX">     1</i>
   <i type="int" name="NKREDY">     1</i>
   <i type="int" name="NKREDZ">     1</i>
   <i type="logical" name="SHIFTRED"> F  </i>
   <i type="logical" name="ODDONLY"> F  </i>
   <i type="logical" name="EVENONLY"> F  </i>
   <i type="int" name="LMAXFOCK">     0</i>
   <i type="int" name="NMAXFOCKAE">     0</i>
   <i type="logical" name="LFOCKAEDFT"> F  </i>
   <i name="HFSCREEN">      0.00000000</i>
   <i name="HFSCREENC">      0.00000000</i>
   <i type="int" name="NBANDSGWLOW">     0</i>
  </separator>
  <separator name="vdW DFT" >
   <i type="logical" name="LUSE_VDW"> F  </i>
   <i name="Zab_VDW">     -0.84910000</i>
   <i name="PARAM1">      0.12340000</i>
   <i name="PARAM2">      1.00000000</i>
   <i name="PARAM3">      0.00000000</i>
  </separator>
  <separator name="model GW" >
   <i type="int" name="MODEL_GW">     0</i>
   <i name="MODEL_EPS0">    135.00000000</i>
   <i name="MODEL_ALPHA">      1.00000000</i>
  </separator>
  <separator name="linear response parameters" >
   <i type="logical" name="LEPSILON"> F  </i>
   <i type="logical" name="LRPA"> F  </i>
   <i type="logical" name="LNABLA"> F  </i>
   <i type="logical" name="LVEL"> F  </i>
   <i type="int" name="KINTER">     0</i>
   <i name="CSHIFT">      0.10000000</i>
   <i name="OMEGAMAX">     -1.00000000</i>
   <i name="DEG_THRESHOLD">      0.00200000</i>
   <i name="RTIME">     -0.10000000</i>
   <i name="WPLASMAI">      0.00000000</i>
   <v name="DFIELD">      0.00000000      0.00000000      0.00000000</v>
   <v name="WPLASMA">      0.00000000      0.00000000      0.00000000      0.00000000      0.00000000      0.00000000      0.00000000      0.00000000      0.00000000</v>
  </separator>
  <separator name="orbital magnetization" >
   <i type="logical" name="NUCIND"> F  </i>
   <v name="MAGPOS">      0.00000000      0.00000000      0.00000000</v>
   <i type="logical" name="LNICSALL"> T  </i>
   <i type="logical" name="ORBITALMAG"> F  </i>
   <i type="logical" name="LMAGBLOCH"> F  </i>
   <i type="logical" name="LCHIMAG"> F  </i>
   <i type="logical" name="LGAUGE"> T  </i>
   <i type="int" name="MAGATOM">     0</i>
   <v name="MAGDIPOL">      0.00000000      0.00000000      0.00000000</v>
   <v name="AVECCONST">      0.00000000      0.00000000      0.00000000</v>
  </separator>
  <separator name="response functions" >
   <i type="logical" name="LADDER"> F  </i>
   <i type="logical" name="LRPAFORCE"> F  </i>
   <i type="logical" name="LFXC"> F  </i>
   <i type="logical" name="LHARTREE"> T  </i>
   <i type="int" name="IBSE">     0</i>
   <v type="int" name="KPOINT">    -1     0     0     0</v>
   <i type="logical" name="LTCTE"> F  </i>
   <i type="logical" name="LTETE"> F  </i>
   <i type="logical" name="LTRIPLET"> F  </i>
   <i type="logical" name="LFXCEPS"> F  </i>
   <i type="logical" name="LFXHEG"> F  </i>
   <i type="int" name="NATURALO">     2</i>
   <i type="logical" name="L2ORDER"> F  </i>
   <i type="logical" name="LMP2LT"> F  </i>
   <i type="logical" name="LUSEW"> F  </i>
   <i name="ENCUTGW">     -2.00000000</i>
   <i name="ENCUTGWSOFT">     -2.00000000</i>
   <i name="ENCUTLF">     -1.00000000</i>
   <i type="int" name="LMAXMP2">    -1</i>
   <i name="SCISSOR">      0.00000000</i>
   <i type="int" name="NOMEGA">     0</i>
   <i type="int" name="NOMEGAR">     0</i>
   <i type="int" name="NBANDSGW">    -1</i>
   <i type="int" name="NBANDSO">    -1</i>
   <i type="int" name="NBANDSV">    -1</i>
   <i type="int" name="NELM">   300</i>
   <i type="int" name="NELMHF">     1</i>
   <i type="int" name="DIM">     3</i>
   <i type="int" name="ANTIRES">     0</i>
   <i name="OMEGAMAX">    -30.00000000</i>
   <i name="OMEGAMIN">    -30.00000000</i>
   <i name="OMEGATL">   -200.00000000</i>
   <i type="int" name="OMEGAGRID">   140</i>
   <i name="CSHIFT">     -0.10000000</i>
   <i type="logical" name="SELFENERGY"> F  </i>
   <i type="logical" name="LSPECTRAL"> F  </i>
   <i type="logical" name="LSPECTRALGW"> F  </i>
   <i type="logical" name="LSINGLES"> F  </i>
   <i type="logical" name="LFERMIGW"> F  </i>
   <i type="logical" name="ODDONLYGW"> F  </i>
   <i type="logical" name="EVENONLYGW"> F  </i>
   <i type="int" name="NKREDLFX">     1</i>
   <i type="int" name="NKREDLFY">     1</i>
   <i type="int" name="NKREDLFZ">     1</i>
   <i type="int" name="MAXMEM">  2800</i>
   <i type="int" name="TELESCOPE">     0</i>
   <i type="int" name="TAUPAR">     1</i>
   <i type="int" name="OMEGAPAR">    -1</i>
   <i name="LAMBDA">      1.00000000</i>
  </separator>
  <separator name="External order field" >
   <i name="OFIELD_KAPPA">      0.00000000</i>
   <v name="OFIELD_K">      0.00000000      0.00000000      0.00000000</v>
   <i name="OFIELD_Q6_NEAR">      0.00000000</i>
   <i name="OFIELD_Q6_FAR">      0.00000000</i>
   <i name="OFIELD_A">      0.00000000</i>
  </separator>
 </parameters>
 <atominfo>
  <atoms>      15 </atoms>
  <types>       3 </types>
  <array name="atoms" >
   <dimension dim="1">ion</dimension>
   <field type="string">element</field>
   <field type="int">atomtype</field>
   <set>
    <rc><c>Cu</c><c>   1</c></rc>
    <rc><c>Cu</c><c>   1</c></rc>
    <rc><c>Cu</c><c>   1</c></rc>
    <rc><c>Cu</c><c>   1</c></rc>
    <rc><c>Cu</c><c>   1</c></rc>
    <rc><c>Cu</c><c>   1</c></rc>
    <rc><c>Cu</c><c>   1</c></rc>
    <rc><c>Cu</c><c>   1</c></rc>
    <rc><c>Cu</c><c>   1</c></rc>
    <rc><c>Cu</c><c>   1</c></rc>
    <rc><c>Cu</c><c>   1</c></rc>
    <rc><c>Cu</c><c>   1</c></rc>
    <rc><c>Cu</c><c>   1</c></rc>
    <rc><c>C </c><c>   2</c></rc>
    <rc><c>O </c><c>   3</c></rc>
   </set>
  </array>
  <array name="atomtypes" >
   <dimension dim="1">type</dimension>
   <field type="int">atomspertype</field>
   <field type="string">element</field>
   <field>mass</field>
   <field>valence</field>
   <field type="string">pseudopotential</field>
   <set>
    <rc><c>  13</c><c>Cu</c><c>     63.54600000</c><c>     11.00000000</c><c>  PAW_PBE Cu 22Jun2005                  </c></rc>
    <rc><c>   1</c><c>C </c><c>     12.01100000</c><c>      4.00000000</c><c>  PAW_PBE C 08Apr2002                   </c></rc>
    <rc><c>   1</c><c>O </c><c>     16.00000000</c><c>      6.00000000</c><c>  PAW_PBE O 08Apr2002                   </c></rc>
   </set>
  </array>
 </atominfo>
 <structure name="initialpos" >
  <crystal>
   <varray name="basis" >
    <v>      15.00000000       0.00000000       0.00000000 </v>
    <v>       0.00000000      15.00000000       0.00000000 </v>
    <v>       0.00000000       0.00000000      15.00000000 </v>
   </varray>
   <i name="volume">   3375.00000000 </i>
   <varray name="rec_basis" >
    <v>       0.06666667       0.00000000       0.00000000 </v>
    <v>       0.00000000       0.06666667       0.00000000 </v>
    <v>       0.00000000       0.00000000       0.06666667 </v>
   </varray>
  </crystal>
  <varray name="positions" >
   <v>       0.29232467       0.41975867       0.56005533 </v>
   <v>       0.37793467       0.54555000       0.48990267 </v>
   <v>       0.39446200       0.29171067       0.55858600 </v>
   <v>       0.53378800       0.50282000       0.47805000 </v>
   <v>       0.54565200       0.34537400       0.53256000 </v>
   <v>       0.44731600       0.44223733       0.61469933 </v>
   <v>       0.41609400       0.39952800       0.43959733 </v>
   <v>       0.22353400       0.56343733       0.55285933 </v>
   <v>       0.33139267       0.54567733       0.66412000 </v>
   <v>       0.35201333       0.68374000       0.57102067 </v>
   <v>       0.48567667       0.66664600       0.47021000 </v>
   <v>       0.63283533       0.48633600       0.60122733 </v>
   <v>       0.48067267       0.59098867       0.61539867 </v>
   <v>       0.74792667       0.49363067       0.65630600 </v>
   <v>       0.82375333       0.50506400       0.66858667 </v>
  </varray>
 </structure>
 <calculation>
  <scstep>
   <time name="dav">    7.51    7.52</time>
   <time name="total">    8.72    8.73</time>
   <energy>
    <i name="alphaZ">     41.16232785 </i>
    <i name="ewald">  15949.05112669 </i>
    <i name="hartreedc"> -32980.65460576 </i>
    <i name="XCdc">    622.79490910 </i>
    <i name="pawpsdc">  16421.75059358 </i>
    <i name="pawaedc"> -17800.06104309 </i>
    <i name="eentropy">      0.00008126 </i>
    <i name="bandstr">    197.63025762 </i>
    <i name="atom">  18662.21924712 </i>
    <i name="e_fr_energy">   1113.89289437 </i>
    <i name="e_wo_entrp">   1113.89281311 </i>
    <i name="e_0_energy">   1113.89286728 </i>
   </energy>
  </scstep>
  <scstep>
   <time name="dav">    7.40    7.41</time>
   <time name="total">    7.40    7.41</time>
   <energy>
    <i name="e_fr_energy">     88.34734388 </i>
    <i name="e_wo_entrp">     88.34154575 </i>
    <i name="e_0_energy">     88.34541117 </i>
   </energy>
  </scstep>
  <scstep>
   <time name="dav">   11.58   11.59</time>
   <time name="total">   11.58   11.59</time>
   <energy>
    <i name="e_fr_energy">    -32.31314155 </i>
    <i name="e_wo_entrp">    -32.31971119 </i>
    <i name="e_0_energy">    -32.31533143 </i>
   </energy>
  </scstep>
  <scstep>
   <time name="dav">   10.42   10.43</time>
   <time name="total">   10.42   10.43</time>
   <energy>
    <i name="e_fr_energy">    -55.13272892 </i>
    <i name="e_wo_entrp">    -55.14143651 </i>
    <i name="e_0_energy">    -55.13563145 </i>
   </energy>
  </scstep>
  <scstep>
   <time name="dav">   11.82   11.83</time>
   <time name="total">   12.53   12.54</time>
   <energy>
    <i name="e_fr_energy">    -56.68427722 </i>
    <i name="e_wo_entrp">    -56.69389609 </i>
    <i name="e_0_energy">    -56.68748351 </i>
   </energy>
  </scstep>
  <scstep>
   <time name="diag">    1.12    1.12</time>
   <time name="diis">    7.57    7.58</time>
   <time name="orth">    0.06    0.06</time>
   <time name="total">   10.63   10.64</time>
   <energy>
    <i name="e_fr_energy">    -55.70067436 </i>
    <i name="e_wo_entrp">    -55.70745617 </i>
    <i name="e_0_energy">    -55.70293496 </i>
   </energy>
  </scstep>
  <scstep>
   <time name="diag">    1.12    1.12</time>
   <time name="diis">    6.43    6.43</time>
   <time name="orth">    0.06    0.06</time>
   <time name="total">    9.49    9.50</time>
   <energy>
    <i name="e_fr_energy">    -49.03861405 </i>
    <i name="e_wo_entrp">    -49.04565317 </i>
    <i name="e_0_energy">    -49.04096042 </i>
   </energy>
  </scstep>
  <scstep>
   <time name="diag">    1.12    1.12</time>
   <time name="diis">    6.83    6.84</time>
   <time name="orth">    0.06    0.06</time>
   <time name="total">    9.90    9.90</time>
   <energy>
    <i name="e_fr_energy">    -48.79422400 </i>
    <i name="e_wo_entrp">    -48.80199873 </i>
    <i name="e_0_energy">    -48.79681557 </i>
   </energy>
  </scstep>
  <scstep>
   <time name="diag">    1.12    1.12</time>
   <time name="diis">    7.14    7.14</time>
   <time name="orth">    0.06    0.06</time>
   <time name="total">   10.21   10.21</time>
   <energy>
    <i name="e_fr_energy">    -48.74387815 </i>
    <i name="e_wo_entrp">    -48.75175814 </i>
    <i name="e_0_energy">    -48.74650481 </i>
   </energy>
  </scstep>
  <scstep>
   <time name="diag">    1.12    1.12</time>
   <time name="diis">    7.05    7.05</time>
   <time name="orth">    0.06    0.06</time>
   <time name="total">   10.12   10.12</time>
   <energy>
    <i name="e_fr_energy">    -48.68284807 </i>
    <i name="e_wo_entrp">    -48.69068594 </i>
    <i name="e_0_energy">    -48.68546070 </i>
   </energy>
  </scstep>
  <scstep>
   <time name="diag">    1.12    1.12</time>
   <time name="diis">    6.91    6.91</time>
   <time name="orth">    0.06    0.06</time>
   <time name="total">    9.97    9.98</time>
   <energy>
    <i name="e_fr_energy">    -48.67205460 </i>
    <i name="e_wo_entrp">    -48.68021785 </i>
    <i name="e_0_energy">    -48.67477568 </i>
   </energy>
  </scstep>
  <scstep>
   <time name="diag">    1.11    1.12</time>
   <time name="diis">    6.70    6.70</time>
   <time name="orth">    0.06    0.06</time>
   <time name="total">    9.76    9.77</time>
   <energy>
    <i name="e_fr_energy">    -48.66988587 </i>
    <i name="e_wo_entrp">    -48.67791607 </i>
    <i name="e_0_energy">    -48.67256260 </i>
   </energy>
  </scstep>
  <scstep>
   <time name="diag">    1.11    1.11</time>
   <time name="diis">    7.12    7.13</time>
   <time name="orth">    0.06    0.06</time>
   <time name="total">   10.19   10.19</time>
   <energy>
    <i name="e_fr_energy">    -48.66899182 </i>
    <i name="e_wo_entrp">    -48.67703936 </i>
    <i name="e_0_energy">    -48.67167434 </i>
   </energy>
  </scstep>
  <scstep>
   <time name="diag">    1.12    1.12</time>
   <time name="diis">    7.00    7.01</time>
   <time name="orth">    0.06    0.06</time>
   <time name="total">   10.07   10.07</time>
   <energy>
    <i name="e_fr_energy">    -48.67025165 </i>
    <i name="e_wo_entrp">    -48.67832387 </i>
    <i name="e_0_energy">    -48.67294239 </i>
   </energy>
  </scstep>
  <scstep>
   <time name="diag">    1.12    1.12</time>
   <time name="diis">    6.85    6.85</time>
   <time name="orth">    0.06    0.06</time>
   <time name="total">    9.92    9.92</time>
   <energy>
    <i name="e_fr_energy">    -48.67141952 </i>
    <i name="e_wo_entrp">    -48.67947814 </i>
    <i name="e_0_energy">    -48.67410573 </i>
   </energy>
  </scstep>
  <scstep>
   <time name="diag">    1.11    1.12</time>
   <time name="diis">    6.34    6.35</time>
   <time name="orth">    0.06    0.06</time>
   <time name="total">    9.41    9.42</time>
   <energy>
    <i name="e_fr_energy">    -48.67314746 </i>
    <i name="e_wo_entrp">    -48.68123736 </i>
    <i name="e_0_energy">    -48.67584410 </i>
   </energy>
  </scstep>
  <scstep>
   <time name="diag">    1.12    1.12</time>
   <time name="diis">    7.00    7.02</time>
   <time name="orth">    0.06    0.06</time>
   <time name="total">   10.07   10.09</time>
   <energy>
    <i name="e_fr_energy">    -48.67472433 </i>
    <i name="e_wo_entrp">    -48.68281468 </i>
    <i name="e_0_energy">    -48.67742111 </i>
   </energy>
  </scstep>
  <scstep>
   <time name="diag">    1.12    1.12</time>
   <time name="diis">    6.73    6.73</time>
   <time name="orth">    0.06    0.06</time>
   <time name="total">    9.80    9.80</time>
   <energy>
    <i name="e_fr_energy">    -48.67559185 </i>
    <i name="e_wo_entrp">    -48.68368447 </i>
    <i name="e_0_energy">    -48.67828939 </i>
   </energy>
  </scstep>
  <scstep>
   <time name="diag">    1.12    1.12</time>
   <time name="diis">    7.22    7.22</time>
   <time name="orth">    0.06    0.06</time>
   <time name="total">   10.29   10.30</time>
   <energy>
    <i name="e_fr_energy">    -48.67639575 </i>
    <i name="e_wo_entrp">    -48.68448469 </i>
    <i name="e_0_energy">    -48.67909206 </i>
   </energy>
  </scstep>
  <scstep>
   <time name="diag">    1.11    1.12</time>
   <time name="diis">    6.89    6.90</time>
   <time name="orth">    0.06    0.06</time>
   <time name="total">    9.97    9.98</time>
   <energy>
    <i name="e_fr_energy">    -48.67691940 </i>
    <i name="e_wo_entrp">    -48.68500657 </i>
    <i name="e_0_energy">    -48.67961512 </i>
   </energy>
  </scstep>
  <scstep>
   <time name="diag">    1.11    1.12</time>
   <time name="diis">    6.66    6.66</time>
   <time name="orth">    0.06    0.06</time>
   <time name="total">    9.73    9.74</time>
   <energy>
    <i name="e_fr_energy">    -48.67728577 </i>
    <i name="e_wo_entrp">    -48.68537045 </i>
    <i name="e_0_energy">    -48.67998066 </i>
   </energy>
  </scstep>
  <scstep>
   <time name="diag">    1.12    1.12</time>
   <time name="diis">    6.54    6.54</time>
   <time name="orth">    0.06    0.06</time>
   <time name="total">    9.61    9.62</time>
   <energy>
    <i name="e_fr_energy">    -48.67754546 </i>
    <i name="e_wo_entrp">    -48.68563293 </i>
    <i name="e_0_energy">    -48.68024128 </i>
   </energy>
  </scstep>
  <scstep>
   <time name="diag">    1.11    1.11</time>
   <time name="diis">    7.13    7.13</time>
   <time name="orth">    0.06    0.06</time>
   <time name="total">   10.21   10.21</time>
   <energy>
    <i name="e_fr_energy">    -48.67766781 </i>
    <i name="e_wo_entrp">    -48.68575499 </i>
    <i name="e_0_energy">    -48.68036354 </i>
   </energy>
  </scstep>
  <scstep>
   <time name="diag">    1.12    1.12</time>
   <time name="diis">    6.80    6.80</time>
   <time name="orth">    0.06    0.06</time>
   <time name="total">    9.88    9.88</time>
   <energy>
    <i name="e_fr_energy">    -48.67776696 </i>
    <i name="e_wo_entrp">    -48.68585404 </i>
    <i name="e_0_energy">    -48.68046265 </i>
   </energy>
  </scstep>
  <scstep>
   <time name="diag">    1.11    1.12</time>
   <time name="diis">    6.45    6.45</time>
   <time name="orth">    0.06    0.06</time>
   <time name="total">    9.55    9.55</time>
   <energy>
    <i name="e_fr_energy">    -48.67783014 </i>
    <i name="e_wo_entrp">    -48.68591682 </i>
    <i name="e_0_energy">    -48.68052570 </i>
   </energy>
  </scstep>
  <scstep>
   <time name="diag">    1.12    1.12</time>
   <time name="diis">    6.25    6.25</time>
   <time name="orth">    0.06    0.06</time>
   <time name="total">    9.33    9.34</time>
   <energy>
    <i name="e_fr_energy">    -48.67785796 </i>
    <i name="e_wo_entrp">    -48.68594484 </i>
    <i name="e_0_energy">    -48.68055359 </i>
   </energy>
  </scstep>
  <scstep>
   <time name="diag">    1.12    1.12</time>
   <time name="diis">    4.67    4.67</time>
   <time name="orth">    0.06    0.06</time>
   <time name="total">    7.75    7.75</time>
   <energy>
    <i name="e_fr_energy">    -48.67786841 </i>
    <i name="e_wo_entrp">    -48.68595537 </i>
    <i name="e_0_energy">    -48.68056406 </i>
   </energy>
  </scstep>
  <scstep>
   <time name="diag">    1.12    1.12</time>
   <time name="diis">    4.39    4.39</time>
   <time name="orth">    0.06    0.06</time>
   <time name="total">    7.48    7.48</time>
   <energy>
    <i name="e_fr_energy">    -48.67787401 </i>
    <i name="e_wo_entrp">    -48.68596081 </i>
    <i name="e_0_energy">    -48.68056961 </i>
   </energy>
  </scstep>
  <scstep>
   <time name="diag">    1.11    1.12</time>
   <time name="diis">    4.63    4.63</time>
   <time name="orth">    0.06    0.06</time>
   <time name="total">    7.72    7.72</time>
   <energy>
    <i name="e_fr_energy">    -48.67787683 </i>
    <i name="e_wo_entrp">    -48.68596357 </i>
    <i name="e_0_energy">    -48.68057241 </i>
   </energy>
  </scstep>
  <scstep>
   <time name="diag">    1.11    1.11</time>
   <time name="diis">    4.82    4.83</time>
   <time name="orth">    0.06    0.06</time>
   <time name="total">    7.93    7.93</time>
   <energy>
    <i name="e_fr_energy">    -48.67787801 </i>
    <i name="e_wo_entrp">    -48.68596468 </i>
    <i name="e_0_energy">    -48.68057357 </i>
   </energy>
  </scstep>
  <scstep>
   <time name="diag">    1.12    1.12</time>
   <time name="diis">    4.30    4.30</time>
   <time name="orth">    0.06    0.06</time>
   <time name="total">    7.41    7.41</time>
   <energy>
    <i name="e_fr_energy">    -48.67787880 </i>
    <i name="e_wo_entrp">    -48.68596550 </i>
    <i name="e_0_energy">    -48.68057437 </i>
   </energy>
  </scstep>
  <scstep>
   <time name="diag">    1.12    1.12</time>
   <time name="diis">    4.47    4.47</time>
   <time name="orth">    0.06    0.06</time>
   <time name="total">    7.59    7.60</time>
   <energy>
    <i name="e_fr_energy">    -48.67787939 </i>
    <i name="e_wo_entrp">    -48.68596609 </i>
    <i name="e_0_energy">    -48.68057496 </i>
   </energy>
  </scstep>
  <scstep>
   <time name="diag">    1.12    1.12</time>
   <time name="diis">    4.56    4.56</time>
   <time name="orth">    0.06    0.06</time>
   <time name="total">    7.68    7.69</time>
   <energy>
    <i name="e_fr_energy">    -48.67787995 </i>
    <i name="e_wo_entrp">    -48.68596666 </i>
    <i name="e_0_energy">    -48.68057552 </i>
   </energy>
  </scstep>
  <scstep>
   <time name="diag">    1.12    1.12</time>
   <time name="diis">    3.98    3.98</time>
   <time name="orth">    0.06    0.06</time>
   <time name="total">    7.11    7.12</time>
   <energy>
    <i name="e_fr_energy">    -48.67788029 </i>
    <i name="e_wo_entrp">    -48.68596701 </i>
    <i name="e_0_energy">    -48.68057586 </i>
   </energy>
  </scstep>
  <scstep>
   <time name="diag">    1.12    1.12</time>
   <time name="diis">    3.97    3.97</time>
   <time name="orth">    0.06    0.06</time>
   <time name="total">    7.11    7.11</time>
   <energy>
    <i name="e_fr_energy">    -48.67788057 </i>
    <i name="e_wo_entrp">    -48.68596728 </i>
    <i name="e_0_energy">    -48.68057614 </i>
   </energy>
  </scstep>
  <scstep>
   <time name="diag">    1.12    1.12</time>
   <time name="diis">    3.67    3.67</time>
   <time name="orth">    0.06    0.06</time>
   <time name="total">    6.82    6.82</time>
   <energy>
    <i name="e_fr_energy">    -48.67788074 </i>
    <i name="e_wo_entrp">    -48.68596745 </i>
    <i name="e_0_energy">    -48.68057631 </i>
   </energy>
  </scstep>
  <scstep>
   <time name="diag">    1.12    1.12</time>
   <time name="diis">    3.48    3.48</time>
   <time name="orth">    0.06    0.06</time>
   <time name="total">    6.63    6.63</time>
   <energy>
    <i name="e_fr_energy">    -48.67788086 </i>
    <i name="e_wo_entrp">    -48.68596755 </i>
    <i name="e_0_energy">    -48.68057642 </i>
   </energy>
  </scstep>
  <scstep>
   <time name="diag">    1.12    1.12</time>
   <time name="diis">    3.35    3.35</time>
   <time name="orth">    0.06    0.06</time>
   <time name="total">    5.72    5.72</time>
   <energy>
    <i name="alphaZ">     41.16232785 </i>
    <i name="ewald">  15949.05112669 </i>
    <i name="hartreedc"> -32939.73108709 </i>
    <i name="XCdc">    615.00179744 </i>
    <i name="pawpsdc">  17548.57661854 </i>
    <i name="pawaedc"> -18945.68735762 </i>
    <i name="eentropy">      0.00808670 </i>
    <i name="bandstr">   -979.27864051 </i>
    <i name="atom">  18662.21924712 </i>
    <i name="e_fr_energy">    -48.67788089 </i>
    <i name="e_wo_entrp">    -48.68596758 </i>
    <i name="e_0_energy">    -48.68057645 </i>
   </energy>
  </scstep>
  <structure>
   <crystal>
    <varray name="basis" >
     <v>      15.00000000       0.00000000       0.00000000 </v>
     <v>       0.00000000      15.00000000       0.00000000 </v>
     <v>       0.00000000       0.00000000      15.00000000 </v>
    </varray>
    <i name="volume">   3375.00000000 </i>
    <varray name="rec_basis" >
     <v>       0.06666667       0.00000000       0.00000000 </v>
     <v>       0.00000000       0.06666667       0.00000000 </v>
     <v>       0.00000000       0.00000000       0.06666667 </v>
    </varray>
   </crystal>
   <varray name="positions" >
    <v>       0.29232467       0.41975867       0.56005533 </v>
    <v>       0.37793467       0.54555000       0.48990267 </v>
    <v>       0.39446200       0.29171067       0.55858600 </v>
    <v>       0.53378800       0.50282000       0.47805000 </v>
    <v>       0.54565200       0.34537400       0.53256000 </v>
    <v>       0.44731600       0.44223733       0.61469933 </v>
    <v>       0.41609400       0.39952800       0.43959733 </v>
    <v>       0.22353400       0.56343733       0.55285933 </v>
    <v>       0.33139267       0.54567733       0.66412000 </v>
    <v>       0.35201333       0.68374000       0.57102067 </v>
    <v>       0.48567667       0.66664600       0.47021000 </v>
    <v>       0.63283533       0.48633600       0.60122733 </v>
    <v>       0.48067267       0.59098867       0.61539867 </v>
    <v>       0.74792667       0.49363067       0.65630600 </v>
    <v>       0.82375333       0.50506400       0.66858667 </v>
   </varray>
  </structure>
  <varray name="forces" >
   <v>       0.28032436      -0.09274473      -0.10701160 </v>
   <v>      -0.47738089       0.30611590       0.27507751 </v>
   <v>       0.04316287       0.18977950       0.10581203 </v>
   <v>       0.05874577       0.15596287       0.29281865 </v>
   <v>       0.12431810       0.39468638      -0.12393579 </v>
   <v>       0.12884221      -0.93490845      -0.35422433 </v>
   <v>      -0.00942132      -0.21968934       0.54956396 </v>
   <v>       0.08576787       0.37296661      -0.17214375 </v>
   <v>       0.29251934       0.06553819      -0.37801575 </v>
   <v>      -0.08814409      -0.29725424      -0.08774172 </v>
   <v>      -0.13933889      -0.27406513       0.40220256 </v>
   <v>       0.11593561      -0.23827405       0.30474575 </v>
   <v>       0.44266024       0.55114496      -0.30830963 </v>
   <v>       0.20393477       0.23258168      -0.24569114 </v>
   <v>      -1.06192595      -0.21184016      -0.15314675 </v>
  </varray>
  <varray name="stress" >
   <v>      -2.51874836      -0.47770959       0.06040663 </v>
   <v>      -0.47770959      -0.24965758      -0.17326036 </v>
   <v>       0.06040663      -0.17326037      -1.79806895 </v>
  </varray>
  <energy>
   <i name="e_fr_energy">    -48.67788089 </i>
   <i name="e_wo_entrp">    -48.68057645 </i>
   <i name="e_0_energy">      0.00808670 </i>
  </energy>
  <time name="totalsc">  356.76  357.00</time>
  <eigenvalues>
   <array>
    <dimension dim="1">band</dimension>
    <dimension dim="2">kpoint</dimension>
    <dimension dim="3">spin</dimension>
    <field>eigene</field>
    <field>occ</field>
    <set>
     <set comment="spin 1">
      <set comment="kpoint 1">
       <r>  -28.4578    1.0000 </r>
       <r>  -13.8568    1.0000 </r>
       <r>  -11.2513    1.0000 </r>
       <r>  -11.1385    1.0000 </r>
       <r>  -10.8514    1.0000 </r>
       <r>  -10.0555    1.0000 </r>
       <r>   -8.4431    1.0000 </r>
       <r>   -8.0941    1.0000 </r>
       <r>   -7.6546    1.0000 </r>
       <r>   -7.3638    1.0000 </r>
       <r>   -7.2853    1.0000 </r>
       <r>   -7.2459    1.0000 </r>
       <r>   -7.1090    1.0000 </r>
       <r>   -7.0402    1.0000 </r>
       <r>   -6.8647    1.0000 </r>
       <r>   -6.8053    1.0000 </r>
       <r>   -6.7243    1.0000 </r>
       <r>   -6.6212    1.0000 </r>
       <r>   -6.5284    1.0000 </r>
       <r>   -6.5047    1.0000 </r>
       <r>   -6.4513    1.0000 </r>
       <r>   -6.4429    1.0000 </r>
       <r>   -6.3926    1.0000 </r>
       <r>   -6.3813    1.0000 </r>
       <r>   -6.3633    1.0000 </r>
       <r>   -6.2568    1.0000 </r>
       <r>   -6.2122    1.0000 </r>
       <r>   -6.1934    1.0000 </r>
       <r>   -6.1639    1.0000 </r>
       <r>   -6.1485    1.0000 </r>
       <r>   -6.0821    1.0000 </r>
       <r>   -6.0474    1.0000 </r>
       <r>   -6.0024    1.0000 </r>
       <r>   -5.9546    1.0000 </r>
       <r>   -5.8993    1.0000 </r>
       <r>   -5.8076    1.0000 </r>
       <r>   -5.7262    1.0000 </r>
       <r>   -5.6715    1.0000 </r>
       <r>   -5.6426    1.0000 </r>
       <r>   -5.6016    1.0000 </r>
       <r>   -5.5481    1.0000 </r>
       <r>   -5.5072    1.0000 </r>
       <r>   -5.4663    1.0000 </r>
       <r>   -5.4307    1.0000 </r>
       <r>   -5.3863    1.0000 </r>
       <r>   -5.3787    1.0000 </r>
       <r>   -5.3474    1.0000 </r>
       <r>   -5.3299    1.0000 </r>
       <r>   -5.3141    1.0000 </r>
       <r>   -5.2993    1.0000 </r>
       <r>   -5.2594    1.0000 </r>
       <r>   -5.2154    1.0000 </r>
       <r>   -5.2014    1.0000 </r>
       <r>   -5.1682    1.0000 </r>
       <r>   -5.1593    1.0000 </r>
       <r>   -5.1308    1.0000 </r>
       <r>   -5.1122    1.0000 </r>
       <r>   -5.1009    1.0000 </r>
       <r>   -5.0956    1.0000 </r>
       <r>   -5.0540    1.0000 </r>
       <r>   -5.0476    1.0000 </r>
       <r>   -4.9878    1.0000 </r>
       <r>   -4.9715    1.0000 </r>
       <r>   -4.9477    1.0000 </r>
       <r>   -4.9076    1.0000 </r>
       <r>   -4.8893    1.0000 </r>
       <r>   -4.8640    1.0000 </r>
       <r>   -4.8545    1.0000 </r>
       <r>   -4.8415    1.0000 </r>
       <r>   -4.8017    1.0000 </r>
       <r>   -4.7988    1.0000 </r>
       <r>   -4.7441    1.0000 </r>
       <r>   -4.6983    1.0000 </r>
       <r>   -4.5346    1.0000 </r>
       <r>   -4.1620    1.0000 </r>
       <r>   -4.0352    1.0000 </r>
       <r>   -3.5910    1.0000 </r>
       <r>   -3.0119   -0.0000 </r>
       <r>   -2.8937   -0.0000 </r>
       <r>   -2.5970   -0.0000 </r>
       <r>   -2.3727   -0.0000 </r>
       <r>   -1.9555   -0.0000 </r>
       <r>   -1.9049   -0.0000 </r>
       <r>   -1.8338   -0.0000 </r>
       <r>   -1.4588   -0.0000 </r>
       <r>   -1.1186   -0.0000 </r>
       <r>   -0.9641   -0.0000 </r>
       <r>   -0.7304    0.0000 </r>
       <r>   -0.4187    0.0000 </r>
       <r>   -0.2578    0.0000 </r>
       <r>   -0.0693    0.0000 </r>
       <r>    0.0458    0.0000 </r>
      </set>
     </set>
     <set comment="spin 2">
      <set comment="kpoint 1">
       <r>  -28.4362    1.0000 </r>
       <r>  -13.8175    1.0000 </r>
       <r>  -11.2083    1.0000 </r>
       <r>  -11.1216    1.0000 </r>
       <r>  -10.7926    1.0000 </r>
       <r>  -10.0153    1.0000 </r>
       <r>   -8.4192    1.0000 </r>
       <r>   -8.0474    1.0000 </r>
       <r>   -7.6143    1.0000 </r>
       <r>   -7.3419    1.0000 </r>
       <r>   -7.2538    1.0000 </r>
       <r>   -7.1963    1.0000 </r>
       <r>   -7.0757    1.0000 </r>
       <r>   -7.0141    1.0000 </r>
       <r>   -6.8251    1.0000 </r>
       <r>   -6.7762    1.0000 </r>
       <r>   -6.7002    1.0000 </r>
       <r>   -6.5915    1.0000 </r>
       <r>   -6.5054    1.0000 </r>
       <r>   -6.4797    1.0000 </r>
       <r>   -6.4305    1.0000 </r>
       <r>   -6.4212    1.0000 </r>
       <r>   -6.3686    1.0000 </r>
       <r>   -6.3548    1.0000 </r>
       <r>   -6.3336    1.0000 </r>
       <r>   -6.2348    1.0000 </r>
       <r>   -6.1874    1.0000 </r>
       <r>   -6.1701    1.0000 </r>
       <r>   -6.1446    1.0000 </r>
       <r>   -6.1233    1.0000 </r>
       <r>   -6.0572    1.0000 </r>
       <r>   -6.0191    1.0000 </r>
       <r>   -5.9802    1.0000 </r>
       <r>   -5.9372    1.0000 </r>
       <r>   -5.8739    1.0000 </r>
       <r>   -5.7832    1.0000 </r>
       <r>   -5.6954    1.0000 </r>
       <r>   -5.6502    1.0000 </r>
       <r>   -5.6194    1.0000 </r>
       <r>   -5.5759    1.0000 </r>
       <r>   -5.5256    1.0000 </r>
       <r>   -5.4736    1.0000 </r>
       <r>   -5.4412    1.0000 </r>
       <r>   -5.4048    1.0000 </r>
       <r>   -5.3619    1.0000 </r>
       <r>   -5.3419    1.0000 </r>
       <r>   -5.3202    1.0000 </r>
       <r>   -5.3038    1.0000 </r>
       <r>   -5.2934    1.0000 </r>
       <r>   -5.2680    1.0000 </r>
       <r>   -5.2327    1.0000 </r>
       <r>   -5.1893    1.0000 </r>
       <r>   -5.1715    1.0000 </r>
       <r>   -5.1448    1.0000 </r>
       <r>   -5.1353    1.0000 </r>
       <r>   -5.1017    1.0000 </r>
       <r>   -5.0916    1.0000 </r>
       <r>   -5.0831    1.0000 </r>
       <r>   -5.0770    1.0000 </r>
       <r>   -5.0303    1.0000 </r>
       <r>   -5.0150    1.0000 </r>
       <r>   -4.9642    1.0000 </r>
       <r>   -4.9554    1.0000 </r>
       <r>   -4.9157    1.0000 </r>
       <r>   -4.8765    1.0000 </r>
       <r>   -4.8673    1.0000 </r>
       <r>   -4.8314    1.0000 </r>
       <r>   -4.8270    1.0000 </r>
       <r>   -4.8063    1.0000 </r>
       <r>   -4.7719    1.0000 </r>
       <r>   -4.7616    1.0000 </r>
       <r>   -4.7201    1.0000 </r>
       <r>   -4.6677    1.0000 </r>
       <r>   -4.4936    1.0000 </r>
       <r>   -4.0955    1.0189 </r>
       <r>   -4.0030    0.9811 </r>
       <r>   -3.3823   -0.0000 </r>
       <r>   -2.9534   -0.0000 </r>
       <r>   -2.8405   -0.0000 </r>
       <r>   -2.5247   -0.0000 </r>
       <r>   -2.2822   -0.0000 </r>
       <r>   -1.9257   -0.0000 </r>
       <r>   -1.8122   -0.0000 </r>
       <r>   -1.7759   -0.0000 </r>
       <r>   -1.3581   -0.0000 </r>
       <r>   -0.9853    0.0000 </r>
       <r>   -0.8891    0.0000 </r>
       <r>   -0.6651    0.0000 </r>
       <r>   -0.3053    0.0000 </r>
       <r>   -0.2031    0.0000 </r>
       <r>   -0.0192    0.0000 </r>
       <r>    0.1009    0.0000 </r>
      </set>
     </set>
    </set>
   </array>
  </eigenvalues>
  <separator name="orbital magnetization" >
   <v name="MAGDIPOLOUT">      0.00000000      0.00000000      0.00000000</v>
  </separator>
  <dos>
   <i name="efermi">     -3.92630066 </i>
   <total>
    <array>
     <dimension dim="1">gridpoints</dimension>
     <dimension dim="2">spin</dimension>
     <field>energy</field>
     <field>total</field>
     <field>integrated</field>
     <set>
      <set comment="spin 1">
       <r>   -29.8858     0.0000     0.0000 </r>
       <r>   -29.7810     0.0000     0.0000 </r>
       <r>   -29.6763     0.0000     0.0000 </r>
       <r>   -29.5716     0.0000     0.0000 </r>
       <r>   -29.4669     0.0000     0.0000 </r>
       <r>   -29.3622    -0.0000    -0.0000 </r>
       <r>   -29.2575    -0.0000    -0.0000 </r>
       <r>   -29.1528    -0.0000    -0.0000 </r>
       <r>   -29.0480    -0.0000    -0.0000 </r>
       <r>   -28.9433    -0.0000    -0.0000 </r>
       <r>   -28.8386    -0.0000    -0.0000 </r>
       <r>   -28.7339    -0.0064    -0.0007 </r>
       <r>   -28.6292    -0.3367    -0.0359 </r>
       <r>   -28.5245     1.3442     0.1048 </r>
       <r>   -28.4197    14.2364     1.5956 </r>
       <r>   -28.3150     4.4483     2.0614 </r>
       <r>   -28.2103    -0.5618     2.0026 </r>
       <r>   -28.1056    -0.0246     2.0000 </r>
       <r>   -28.0009    -0.0001     2.0000 </r>
       <r>   -27.8962    -0.0000     2.0000 </r>
       <r>   -27.7915    -0.0000     2.0000 </r>
       <r>   -27.6867     0.0000     2.0000 </r>
       <r>   -27.5820     0.0000     2.0000 </r>
       <r>   -27.4773     0.0000     2.0000 </r>
       <r>   -27.3726     0.0000     2.0000 </r>
       <r>   -27.2679     0.0000     2.0000 </r>
       <r>   -27.1632     0.0000     2.0000 </r>
       <r>   -27.0584     0.0000     2.0000 </r>
       <r>   -26.9537     0.0000     2.0000 </r>
       <r>   -26.8490     0.0000     2.0000 </r>
       <r>   -26.7443     0.0000     2.0000 </r>
       <r>   -26.6396     0.0000     2.0000 </r>
       <r>   -26.5349     0.0000     2.0000 </r>
       <r>   -26.4302     0.0000     2.0000 </r>
       <r>   -26.3254     0.0000     2.0000 </r>
       <r>   -26.2207     0.0000     2.0000 </r>
       <r>   -26.1160     0.0000     2.0000 </r>
       <r>   -26.0113     0.0000     2.0000 </r>
       <r>   -25.9066     0.0000     2.0000 </r>
       <r>   -25.8019     0.0000     2.0000 </r>
       <r>   -25.6971     0.0000     2.0000 </r>
       <r>   -25.5924     0.0000     2.0000 </r>
       <r>   -25.4877     0.0000     2.0000 </r>
       <r>   -25.3830     0.0000     2.0000 </r>
       <r>   -25.2783     0.0000     2.0000 </r>
       <r>   -25.1736     0.0000     2.0000 </r>
       <r>   -25.0689     0.0000     2.0000 </r>
       <r>   -24.9641     0.0000     2.0000 </r>
       <r>   -24.8594     0.0000     2.0000 </r>
       <r>   -24.7547     0.0000     2.0000 </r>
       <r>   -24.6500     0.0000     2.0000 </r>
       <r>   -24.5453     0.0000     2.0000 </r>
       <r>   -24.4406     0.0000     2.0000 </r>
       <r>   -24.3358     0.0000     2.0000 </r>
       <r>   -24.2311     0.0000     2.0000 </r>
       <r>   -24.1264     0.0000     2.0000 </r>
       <r>   -24.0217     0.0000     2.0000 </r>
       <r>   -23.9170     0.0000     2.0000 </r>
       <r>   -23.8123     0.0000     2.0000 </r>
       <r>   -23.7076     0.0000     2.0000 </r>
       <r>   -23.6028     0.0000     2.0000 </r>
       <r>   -23.4981     0.0000     2.0000 </r>
       <r>   -23.3934     0.0000     2.0000 </r>
       <r>   -23.2887     0.0000     2.0000 </r>
       <r>   -23.1840     0.0000     2.0000 </r>
       <r>   -23.0793     0.0000     2.0000 </r>
       <r>   -22.9745     0.0000     2.0000 </r>
       <r>   -22.8698     0.0000     2.0000 </r>
       <r>   -22.7651     0.0000     2.0000 </r>
       <r>   -22.6604     0.0000     2.0000 </r>
       <r>   -22.5557     0.0000     2.0000 </r>
       <r>   -22.4510     0.0000     2.0000 </r>
       <r>   -22.3463     0.0000     2.0000 </r>
       <r>   -22.2415     0.0000     2.0000 </r>
       <r>   -22.1368     0.0000     2.0000 </r>
       <r>   -22.0321     0.0000     2.0000 </r>
       <r>   -21.9274     0.0000     2.0000 </r>
       <r>   -21.8227     0.0000     2.0000 </r>
       <r>   -21.7180     0.0000     2.0000 </r>
       <r>   -21.6132     0.0000     2.0000 </r>
       <r>   -21.5085     0.0000     2.0000 </r>
       <r>   -21.4038     0.0000     2.0000 </r>
       <r>   -21.2991     0.0000     2.0000 </r>
       <r>   -21.1944     0.0000     2.0000 </r>
       <r>   -21.0897     0.0000     2.0000 </r>
       <r>   -20.9850     0.0000     2.0000 </r>
       <r>   -20.8802     0.0000     2.0000 </r>
       <r>   -20.7755     0.0000     2.0000 </r>
       <r>   -20.6708     0.0000     2.0000 </r>
       <r>   -20.5661     0.0000     2.0000 </r>
       <r>   -20.4614     0.0000     2.0000 </r>
       <r>   -20.3567     0.0000     2.0000 </r>
       <r>   -20.2519     0.0000     2.0000 </r>
       <r>   -20.1472     0.0000     2.0000 </r>
       <r>   -20.0425     0.0000     2.0000 </r>
       <r>   -19.9378     0.0000     2.0000 </r>
       <r>   -19.8331     0.0000     2.0000 </r>
       <r>   -19.7284     0.0000     2.0000 </r>
       <r>   -19.6237     0.0000     2.0000 </r>
       <r>   -19.5189     0.0000     2.0000 </r>
       <r>   -19.4142     0.0000     2.0000 </r>
       <r>   -19.3095     0.0000     2.0000 </r>
       <r>   -19.2048     0.0000     2.0000 </r>
       <r>   -19.1001     0.0000     2.0000 </r>
       <r>   -18.9954     0.0000     2.0000 </r>
       <r>   -18.8906     0.0000     2.0000 </r>
       <r>   -18.7859     0.0000     2.0000 </r>
       <r>   -18.6812     0.0000     2.0000 </r>
       <r>   -18.5765     0.0000     2.0000 </r>
       <r>   -18.4718     0.0000     2.0000 </r>
       <r>   -18.3671     0.0000     2.0000 </r>
       <r>   -18.2624     0.0000     2.0000 </r>
       <r>   -18.1576     0.0000     2.0000 </r>
       <r>   -18.0529     0.0000     2.0000 </r>
       <r>   -17.9482     0.0000     2.0000 </r>
       <r>   -17.8435     0.0000     2.0000 </r>
       <r>   -17.7388     0.0000     2.0000 </r>
       <r>   -17.6341     0.0000     2.0000 </r>
       <r>   -17.5293     0.0000     2.0000 </r>
       <r>   -17.4246     0.0000     2.0000 </r>
       <r>   -17.3199     0.0000     2.0000 </r>
       <r>   -17.2152     0.0000     2.0000 </r>
       <r>   -17.1105     0.0000     2.0000 </r>
       <r>   -17.0058     0.0000     2.0000 </r>
       <r>   -16.9010     0.0000     2.0000 </r>
       <r>   -16.7963     0.0000     2.0000 </r>
       <r>   -16.6916     0.0000     2.0000 </r>
       <r>   -16.5869     0.0000     2.0000 </r>
       <r>   -16.4822     0.0000     2.0000 </r>
       <r>   -16.3775     0.0000     2.0000 </r>
       <r>   -16.2728     0.0000     2.0000 </r>
       <r>   -16.1680     0.0000     2.0000 </r>
       <r>   -16.0633     0.0000     2.0000 </r>
       <r>   -15.9586     0.0000     2.0000 </r>
       <r>   -15.8539     0.0000     2.0000 </r>
       <r>   -15.7492     0.0000     2.0000 </r>
       <r>   -15.6445     0.0000     2.0000 </r>
       <r>   -15.5397     0.0000     2.0000 </r>
       <r>   -15.4350     0.0000     2.0000 </r>
       <r>   -15.3303     0.0000     2.0000 </r>
       <r>   -15.2256     0.0000     2.0000 </r>
       <r>   -15.1209     0.0000     2.0000 </r>
       <r>   -15.0162     0.0000     2.0000 </r>
       <r>   -14.9115     0.0000     2.0000 </r>
       <r>   -14.8067     0.0000     2.0000 </r>
       <r>   -14.7020    -0.0000     2.0000 </r>
       <r>   -14.5973    -0.0000     2.0000 </r>
       <r>   -14.4926    -0.0000     2.0000 </r>
       <r>   -14.3879    -0.0000     2.0000 </r>
       <r>   -14.2832    -0.0000     2.0000 </r>
       <r>   -14.1784    -0.0005     1.9999 </r>
       <r>   -14.0737    -0.0846     1.9911 </r>
       <r>   -13.9690    -0.5568     1.9328 </r>
       <r>   -13.8643     8.9815     2.8733 </r>
       <r>   -13.7596    11.1795     4.0440 </r>
       <r>   -13.6549    -0.2764     4.0150 </r>
       <r>   -13.5502    -0.1422     4.0001 </r>
       <r>   -13.4454    -0.0012     4.0000 </r>
       <r>   -13.3407    -0.0000     4.0000 </r>
       <r>   -13.2360    -0.0000     4.0000 </r>
       <r>   -13.1313     0.0000     4.0000 </r>
       <r>   -13.0266     0.0000     4.0000 </r>
       <r>   -12.9219     0.0000     4.0000 </r>
       <r>   -12.8171     0.0000     4.0000 </r>
       <r>   -12.7124     0.0000     4.0000 </r>
       <r>   -12.6077     0.0000     4.0000 </r>
       <r>   -12.5030     0.0000     4.0000 </r>
       <r>   -12.3983     0.0000     4.0000 </r>
       <r>   -12.2936     0.0000     4.0000 </r>
       <r>   -12.1889     0.0000     4.0000 </r>
       <r>   -12.0841    -0.0000     4.0000 </r>
       <r>   -11.9794    -0.0000     4.0000 </r>
       <r>   -11.8747    -0.0000     4.0000 </r>
       <r>   -11.7700    -0.0000     4.0000 </r>
       <r>   -11.6653    -0.0000     4.0000 </r>
       <r>   -11.5606    -0.0011     3.9999 </r>
       <r>   -11.4558    -0.1310     3.9862 </r>
       <r>   -11.3511    -0.4440     3.9397 </r>
       <r>   -11.2464    10.3115     5.0194 </r>
       <r>   -11.1417    19.0147     7.0106 </r>
       <r>   -11.0370     9.8147     8.0383 </r>
       <r>   -10.9323    -0.0935     8.0285 </r>
       <r>   -10.8276    13.0121     9.3911 </r>
       <r>   -10.7228     6.4820    10.0699 </r>
       <r>   -10.6181    -0.6220    10.0047 </r>
       <r>   -10.5134    -0.0450    10.0000 </r>
       <r>   -10.4087    -0.0002    10.0000 </r>
       <r>   -10.3040    -0.0236     9.9975 </r>
       <r>   -10.1993    -0.5555     9.9394 </r>
       <r>   -10.0945     4.3205    10.3918 </r>
       <r>    -9.9898    14.2859    11.8877 </r>
       <r>    -9.8851     1.4231    12.0368 </r>
       <r>    -9.7804    -0.3443    12.0007 </r>
       <r>    -9.6757    -0.0067    12.0000 </r>
       <r>    -9.5710    -0.0000    12.0000 </r>
       <r>    -9.4663    -0.0000    12.0000 </r>
       <r>    -9.3615    -0.0000    12.0000 </r>
       <r>    -9.2568    -0.0000    12.0000 </r>
       <r>    -9.1521    -0.0000    12.0000 </r>
       <r>    -9.0474    -0.0000    12.0000 </r>
       <r>    -8.9427    -0.0000    12.0000 </r>
       <r>    -8.8380    -0.0000    12.0000 </r>
       <r>    -8.7332    -0.0031    11.9997 </r>
       <r>    -8.6285    -0.2342    11.9752 </r>
       <r>    -8.5238     0.3914    12.0161 </r>
       <r>    -8.4191    13.1488    13.3930 </r>
       <r>    -8.3144     6.3881    14.0620 </r>
       <r>    -8.2097    -1.2085    13.9354 </r>
       <r>    -8.1050     8.4248    14.8176 </r>
       <r>    -8.0002    11.6263    16.0351 </r>
       <r>    -7.8955    -0.2079    16.0133 </r>
       <r>    -7.7908    -0.7568    15.9340 </r>
       <r>    -7.6861     5.3541    16.4947 </r>
       <r>    -7.5814    13.7269    17.9321 </r>
       <r>    -7.4767     0.0430    17.9366 </r>
       <r>    -7.3719     8.0592    18.7805 </r>
       <r>    -7.2672    30.1398    21.9367 </r>
       <r>    -7.1625    21.9393    24.2340 </r>
       <r>    -7.0578    21.3297    26.4676 </r>
       <r>    -6.9531    14.4653    27.9823 </r>
       <r>    -6.8484    15.0418    29.5574 </r>
       <r>    -6.7437    28.2950    32.5204 </r>
       <r>    -6.6389    19.6410    34.5771 </r>
       <r>    -6.5342    25.8722    37.2863 </r>
       <r>    -6.4295    58.0529    43.3653 </r>
       <r>    -6.3248    57.3869    49.3746 </r>
       <r>    -6.2201    37.6766    53.3199 </r>
       <r>    -6.1154    61.6375    59.7743 </r>
       <r>    -6.0106    46.5383    64.6476 </r>
       <r>    -5.9059    38.4432    68.6732 </r>
       <r>    -5.8012    23.5325    71.1374 </r>
       <r>    -5.6965    29.7094    74.2485 </r>
       <r>    -5.5918    46.8711    79.1566 </r>
       <r>    -5.4871    45.1909    83.8888 </r>
       <r>    -5.3824    62.8059    90.4655 </r>
       <r>    -5.2776    85.1629    99.3834 </r>
       <r>    -5.1729    77.2312   107.4707 </r>
       <r>    -5.0682   100.0822   117.9508 </r>
       <r>    -4.9635    72.4009   125.5323 </r>
       <r>    -4.8588    84.5429   134.3853 </r>
       <r>    -4.7541    79.4035   142.7000 </r>
       <r>    -4.6493    30.1333   145.8555 </r>
       <r>    -4.5446    10.0155   146.9042 </r>
       <r>    -4.4399    10.8335   148.0387 </r>
       <r>    -4.3352    -0.5438   147.9817 </r>
       <r>    -4.2305     0.8707   148.0729 </r>
       <r>    -4.1258    14.0734   149.5466 </r>
       <r>    -4.0211    16.7404   151.2996 </r>
       <r>    -3.9163     7.3885   152.0733 </r>
       <r>    -3.8116    -0.7074   151.9992 </r>
       <r>    -3.7069    -0.6551   151.9306 </r>
       <r>    -3.6022     8.4182   152.8121 </r>
       <r>    -3.4975    11.6699   154.0341 </r>
       <r>    -3.3928    -0.1642   154.0169 </r>
       <r>    -3.2880    -0.1663   153.9995 </r>
       <r>    -3.1833    -0.3405   153.9638 </r>
       <r>    -3.0786     1.0986   154.0789 </r>
       <r>    -2.9739    14.6499   155.6129 </r>
       <r>    -2.8692    17.6527   157.4614 </r>
       <r>    -2.7645     5.4570   158.0329 </r>
       <r>    -2.6598     1.0292   158.1407 </r>
       <r>    -2.5550    14.1190   159.6191 </r>
       <r>    -2.4503     4.5039   160.0908 </r>
       <r>    -2.3456    12.9100   161.4426 </r>
       <r>    -2.2409     5.9732   162.0681 </r>
       <r>    -2.1362    -0.9326   161.9705 </r>
       <r>    -2.0315    -0.1516   161.9546 </r>
       <r>    -1.9267    20.2334   164.0733 </r>
       <r>    -1.8220    30.4283   167.2597 </r>
       <r>    -1.7173     7.9809   168.0954 </r>
       <r>    -1.6126    -1.3310   167.9560 </r>
       <r>    -1.5079     3.0020   168.2704 </r>
       <r>    -1.4032    14.5960   169.7988 </r>
       <r>    -1.2985     2.0819   170.0168 </r>
       <r>    -1.1937     0.2445   170.0424 </r>
       <r>    -1.0890    13.0217   171.4060 </r>
       <r>    -0.9843    12.6510   172.7307 </r>
       <r>    -0.8796    11.6348   173.9491 </r>
       <r>    -0.7749     3.7854   174.3455 </r>
       <r>    -0.6702    14.2727   175.8400 </r>
       <r>    -0.5654     1.3687   175.9834 </r>
       <r>    -0.4607     3.4014   176.3395 </r>
       <r>    -0.3560    14.1032   177.8164 </r>
       <r>    -0.2513    12.4611   179.1212 </r>
       <r>    -0.1466     9.1683   180.0813 </r>
       <r>    -0.0419    12.9762   181.4401 </r>
       <r>     0.0628    18.2567   183.3519 </r>
       <r>     0.1676     6.9057   184.0750 </r>
       <r>     0.2723    -0.6566   184.0062 </r>
       <r>     0.3770    -0.0592   184.0000 </r>
       <r>     0.4817    -0.0003   184.0000 </r>
       <r>     0.5864    -0.0000   184.0000 </r>
       <r>     0.6911    -0.0000   184.0000 </r>
       <r>     0.7959     0.0000   184.0000 </r>
       <r>     0.9006     0.0000   184.0000 </r>
       <r>     1.0053     0.0000   184.0000 </r>
       <r>     1.1100     0.0000   184.0000 </r>
       <r>     1.2147     0.0000   184.0000 </r>
       <r>     1.3194     0.0000   184.0000 </r>
       <r>     1.4241     0.0000   184.0000 </r>
       <r>     1.5289     0.0000   184.0000 </r>
      </set>
      <set comment="spin 2">
       <r>   -29.8858     0.0000     0.0000 </r>
       <r>   -29.7810     0.0000     0.0000 </r>
       <r>   -29.6763     0.0000     0.0000 </r>
       <r>   -29.5716     0.0000     0.0000 </r>
       <r>   -29.4669     0.0000     0.0000 </r>
       <r>   -29.3622     0.0000     0.0000 </r>
       <r>   -29.2575    -0.0000    -0.0000 </r>
       <r>   -29.1528    -0.0000    -0.0000 </r>
       <r>   -29.0480    -0.0000    -0.0000 </r>
       <r>   -28.9433    -0.0000    -0.0000 </r>
       <r>   -28.8386    -0.0000    -0.0000 </r>
       <r>   -28.7339    -0.0020    -0.0002 </r>
       <r>   -28.6292    -0.1883    -0.0199 </r>
       <r>   -28.5245     0.0324    -0.0165 </r>
       <r>   -28.4197    12.3277     1.2744 </r>
       <r>   -28.3150     7.6064     2.0709 </r>
       <r>   -28.2103    -0.6161     2.0064 </r>
       <r>   -28.1056    -0.0604     2.0000 </r>
       <r>   -28.0009    -0.0003     2.0000 </r>
       <r>   -27.8962    -0.0000     2.0000 </r>
       <r>   -27.7915    -0.0000     2.0000 </r>
       <r>   -27.6867     0.0000     2.0000 </r>
       <r>   -27.5820     0.0000     2.0000 </r>
       <r>   -27.4773     0.0000     2.0000 </r>
       <r>   -27.3726     0.0000     2.0000 </r>
       <r>   -27.2679     0.0000     2.0000 </r>
       <r>   -27.1632     0.0000     2.0000 </r>
       <r>   -27.0584     0.0000     2.0000 </r>
       <r>   -26.9537     0.0000     2.0000 </r>
       <r>   -26.8490     0.0000     2.0000 </r>
       <r>   -26.7443     0.0000     2.0000 </r>
       <r>   -26.6396     0.0000     2.0000 </r>
       <r>   -26.5349     0.0000     2.0000 </r>
       <r>   -26.4302     0.0000     2.0000 </r>
       <r>   -26.3254     0.0000     2.0000 </r>
       <r>   -26.2207     0.0000     2.0000 </r>
       <r>   -26.1160     0.0000     2.0000 </r>
       <r>   -26.0113     0.0000     2.0000 </r>
       <r>   -25.9066     0.0000     2.0000 </r>
       <r>   -25.8019     0.0000     2.0000 </r>
       <r>   -25.6971     0.0000     2.0000 </r>
       <r>   -25.5924     0.0000     2.0000 </r>
       <r>   -25.4877     0.0000     2.0000 </r>
       <r>   -25.3830     0.0000     2.0000 </r>
       <r>   -25.2783     0.0000     2.0000 </r>
       <r>   -25.1736     0.0000     2.0000 </r>
       <r>   -25.0689     0.0000     2.0000 </r>
       <r>   -24.9641     0.0000     2.0000 </r>
       <r>   -24.8594     0.0000     2.0000 </r>
       <r>   -24.7547     0.0000     2.0000 </r>
       <r>   -24.6500     0.0000     2.0000 </r>
       <r>   -24.5453     0.0000     2.0000 </r>
       <r>   -24.4406     0.0000     2.0000 </r>
       <r>   -24.3358     0.0000     2.0000 </r>
       <r>   -24.2311     0.0000     2.0000 </r>
       <r>   -24.1264     0.0000     2.0000 </r>
       <r>   -24.0217     0.0000     2.0000 </r>
       <r>   -23.9170     0.0000     2.0000 </r>
       <r>   -23.8123     0.0000     2.0000 </r>
       <r>   -23.7076     0.0000     2.0000 </r>
       <r>   -23.6028     0.0000     2.0000 </r>
       <r>   -23.4981     0.0000     2.0000 </r>
       <r>   -23.3934     0.0000     2.0000 </r>
       <r>   -23.2887     0.0000     2.0000 </r>
       <r>   -23.1840     0.0000     2.0000 </r>
       <r>   -23.0793     0.0000     2.0000 </r>
       <r>   -22.9745     0.0000     2.0000 </r>
       <r>   -22.8698     0.0000     2.0000 </r>
       <r>   -22.7651     0.0000     2.0000 </r>
       <r>   -22.6604     0.0000     2.0000 </r>
       <r>   -22.5557     0.0000     2.0000 </r>
       <r>   -22.4510     0.0000     2.0000 </r>
       <r>   -22.3463     0.0000     2.0000 </r>
       <r>   -22.2415     0.0000     2.0000 </r>
       <r>   -22.1368     0.0000     2.0000 </r>
       <r>   -22.0321     0.0000     2.0000 </r>
       <r>   -21.9274     0.0000     2.0000 </r>
       <r>   -21.8227     0.0000     2.0000 </r>
       <r>   -21.7180     0.0000     2.0000 </r>
       <r>   -21.6132     0.0000     2.0000 </r>
       <r>   -21.5085     0.0000     2.0000 </r>
       <r>   -21.4038     0.0000     2.0000 </r>
       <r>   -21.2991     0.0000     2.0000 </r>
       <r>   -21.1944     0.0000     2.0000 </r>
       <r>   -21.0897     0.0000     2.0000 </r>
       <r>   -20.9850     0.0000     2.0000 </r>
       <r>   -20.8802     0.0000     2.0000 </r>
       <r>   -20.7755     0.0000     2.0000 </r>
       <r>   -20.6708     0.0000     2.0000 </r>
       <r>   -20.5661     0.0000     2.0000 </r>
       <r>   -20.4614     0.0000     2.0000 </r>
       <r>   -20.3567     0.0000     2.0000 </r>
       <r>   -20.2519     0.0000     2.0000 </r>
       <r>   -20.1472     0.0000     2.0000 </r>
       <r>   -20.0425     0.0000     2.0000 </r>
       <r>   -19.9378     0.0000     2.0000 </r>
       <r>   -19.8331     0.0000     2.0000 </r>
       <r>   -19.7284     0.0000     2.0000 </r>
       <r>   -19.6237     0.0000     2.0000 </r>
       <r>   -19.5189     0.0000     2.0000 </r>
       <r>   -19.4142     0.0000     2.0000 </r>
       <r>   -19.3095     0.0000     2.0000 </r>
       <r>   -19.2048     0.0000     2.0000 </r>
       <r>   -19.1001     0.0000     2.0000 </r>
       <r>   -18.9954     0.0000     2.0000 </r>
       <r>   -18.8906     0.0000     2.0000 </r>
       <r>   -18.7859     0.0000     2.0000 </r>
       <r>   -18.6812     0.0000     2.0000 </r>
       <r>   -18.5765     0.0000     2.0000 </r>
       <r>   -18.4718     0.0000     2.0000 </r>
       <r>   -18.3671     0.0000     2.0000 </r>
       <r>   -18.2624     0.0000     2.0000 </r>
       <r>   -18.1576     0.0000     2.0000 </r>
       <r>   -18.0529     0.0000     2.0000 </r>
       <r>   -17.9482     0.0000     2.0000 </r>
       <r>   -17.8435     0.0000     2.0000 </r>
       <r>   -17.7388     0.0000     2.0000 </r>
       <r>   -17.6341     0.0000     2.0000 </r>
       <r>   -17.5293     0.0000     2.0000 </r>
       <r>   -17.4246     0.0000     2.0000 </r>
       <r>   -17.3199     0.0000     2.0000 </r>
       <r>   -17.2152     0.0000     2.0000 </r>
       <r>   -17.1105     0.0000     2.0000 </r>
       <r>   -17.0058     0.0000     2.0000 </r>
       <r>   -16.9010     0.0000     2.0000 </r>
       <r>   -16.7963     0.0000     2.0000 </r>
       <r>   -16.6916     0.0000     2.0000 </r>
       <r>   -16.5869     0.0000     2.0000 </r>
       <r>   -16.4822     0.0000     2.0000 </r>
       <r>   -16.3775     0.0000     2.0000 </r>
       <r>   -16.2728     0.0000     2.0000 </r>
       <r>   -16.1680     0.0000     2.0000 </r>
       <r>   -16.0633     0.0000     2.0000 </r>
       <r>   -15.9586     0.0000     2.0000 </r>
       <r>   -15.8539     0.0000     2.0000 </r>
       <r>   -15.7492     0.0000     2.0000 </r>
       <r>   -15.6445     0.0000     2.0000 </r>
       <r>   -15.5397     0.0000     2.0000 </r>
       <r>   -15.4350     0.0000     2.0000 </r>
       <r>   -15.3303     0.0000     2.0000 </r>
       <r>   -15.2256     0.0000     2.0000 </r>
       <r>   -15.1209     0.0000     2.0000 </r>
       <r>   -15.0162     0.0000     2.0000 </r>
       <r>   -14.9115     0.0000     2.0000 </r>
       <r>   -14.8067     0.0000     2.0000 </r>
       <r>   -14.7020    -0.0000     2.0000 </r>
       <r>   -14.5973    -0.0000     2.0000 </r>
       <r>   -14.4926    -0.0000     2.0000 </r>
       <r>   -14.3879    -0.0000     2.0000 </r>
       <r>   -14.2832    -0.0000     2.0000 </r>
       <r>   -14.1784    -0.0000     2.0000 </r>
       <r>   -14.0737    -0.0167     1.9983 </r>
       <r>   -13.9690    -0.4988     1.9460 </r>
       <r>   -13.8643     3.3469     2.2965 </r>
       <r>   -13.7596    14.5615     3.8213 </r>
       <r>   -13.6549     2.1234     4.0437 </r>
       <r>   -13.5502    -0.4072     4.0010 </r>
       <r>   -13.4454    -0.0098     4.0000 </r>
       <r>   -13.3407    -0.0000     4.0000 </r>
       <r>   -13.2360    -0.0000     4.0000 </r>
       <r>   -13.1313    -0.0000     4.0000 </r>
       <r>   -13.0266     0.0000     4.0000 </r>
       <r>   -12.9219     0.0000     4.0000 </r>
       <r>   -12.8171     0.0000     4.0000 </r>
       <r>   -12.7124     0.0000     4.0000 </r>
       <r>   -12.6077     0.0000     4.0000 </r>
       <r>   -12.5030     0.0000     4.0000 </r>
       <r>   -12.3983     0.0000     4.0000 </r>
       <r>   -12.2936     0.0000     4.0000 </r>
       <r>   -12.1889     0.0000     4.0000 </r>
       <r>   -12.0841    -0.0000     4.0000 </r>
       <r>   -11.9794    -0.0000     4.0000 </r>
       <r>   -11.8747    -0.0000     4.0000 </r>
       <r>   -11.7700    -0.0000     4.0000 </r>
       <r>   -11.6653    -0.0000     4.0000 </r>
       <r>   -11.5606    -0.0001     4.0000 </r>
       <r>   -11.4558    -0.0248     3.9974 </r>
       <r>   -11.3511    -0.6137     3.9331 </r>
       <r>   -11.2464     3.8166     4.3328 </r>
       <r>   -11.1417    21.2895     6.5621 </r>
       <r>   -11.0370    14.0647     8.0349 </r>
       <r>   -10.9323    -0.7238     7.9591 </r>
       <r>   -10.8276     4.6514     8.4462 </r>
       <r>   -10.7228    14.0529     9.9178 </r>
       <r>   -10.6181     1.1035    10.0333 </r>
       <r>   -10.5134    -0.3127    10.0006 </r>
       <r>   -10.4087    -0.0055    10.0000 </r>
       <r>   -10.3040    -0.0033     9.9997 </r>
       <r>   -10.1993    -0.2444     9.9741 </r>
       <r>   -10.0945     0.4774    10.0241 </r>
       <r>    -9.9898    13.2989    11.4167 </r>
       <r>    -9.8851     6.2321    12.0693 </r>
       <r>    -9.7804    -0.6191    12.0044 </r>
       <r>    -9.6757    -0.0420    12.0000 </r>
       <r>    -9.5710    -0.0002    12.0000 </r>
       <r>    -9.4663    -0.0000    12.0000 </r>
       <r>    -9.3615    -0.0000    12.0000 </r>
       <r>    -9.2568    -0.0000    12.0000 </r>
       <r>    -9.1521    -0.0000    12.0000 </r>
       <r>    -9.0474    -0.0000    12.0000 </r>
       <r>    -8.9427    -0.0000    12.0000 </r>
       <r>    -8.8380    -0.0000    12.0000 </r>
       <r>    -8.7332    -0.0008    11.9999 </r>
       <r>    -8.6285    -0.1109    11.9883 </r>
       <r>    -8.5238    -0.4475    11.9414 </r>
       <r>    -8.4191    10.1250    13.0017 </r>
       <r>    -8.3144    10.0857    14.0578 </r>
       <r>    -8.2097    -0.8614    13.9676 </r>
       <r>    -8.1050     2.0494    14.1822 </r>
       <r>    -8.0002    14.5683    15.7077 </r>
       <r>    -7.8955     3.2984    16.0531 </r>
       <r>    -7.7908    -0.7933    15.9701 </r>
       <r>    -7.6861     0.9379    16.0683 </r>
       <r>    -7.5814    13.8825    17.5220 </r>
       <r>    -7.4767     4.4743    17.9905 </r>
       <r>    -7.3719     4.0629    18.4160 </r>
       <r>    -7.2672    22.5348    20.7757 </r>
       <r>    -7.1625    26.2695    23.5265 </r>
       <r>    -7.0578    20.8420    25.7090 </r>
       <r>    -6.9531    20.1574    27.8198 </r>
       <r>    -6.8484     8.1252    28.6706 </r>
       <r>    -6.7437    29.7354    31.7844 </r>
       <r>    -6.6389    22.0444    34.0928 </r>
       <r>    -6.5342    21.9824    36.3947 </r>
       <r>    -6.4295    51.2189    41.7581 </r>
       <r>    -6.3248    62.4520    48.2978 </r>
       <r>    -6.2201    36.7418    52.1452 </r>
       <r>    -6.1154    60.2078    58.4499 </r>
       <r>    -6.0106    48.7868    63.5586 </r>
       <r>    -5.9059    42.3105    67.9892 </r>
       <r>    -5.8012    24.8817    70.5947 </r>
       <r>    -5.6965    25.3344    73.2476 </r>
       <r>    -5.5918    45.7423    78.0375 </r>
       <r>    -5.4871    43.6478    82.6081 </r>
       <r>    -5.3824    54.6804    88.3340 </r>
       <r>    -5.2776    84.7275    97.2063 </r>
       <r>    -5.1729    76.6706   105.2348 </r>
       <r>    -5.0682   100.7393   115.7838 </r>
       <r>    -4.9635    77.4499   123.8940 </r>
       <r>    -4.8588    73.6111   131.6022 </r>
       <r>    -4.7541    87.4163   140.7560 </r>
       <r>    -4.6493    44.7358   145.4406 </r>
       <r>    -4.5446     8.8711   146.3695 </r>
       <r>    -4.4399    13.5284   147.7861 </r>
       <r>    -4.3352     2.4621   148.0440 </r>
       <r>    -4.2305    -1.1034   147.9284 </r>
       <r>    -4.1258     4.9050   148.4421 </r>
       <r>    -4.0211    21.0739   150.6488 </r>
       <r>    -3.9163    13.2840   152.0399 </r>
       <r>    -3.8116    -0.1766   152.0214 </r>
       <r>    -3.7069    -0.2022   152.0002 </r>
       <r>    -3.6022    -0.0780   151.9920 </r>
       <r>    -3.4975    -0.5837   151.9309 </r>
       <r>    -3.3928     8.5289   152.8240 </r>
       <r>    -3.2880    11.5757   154.0362 </r>
       <r>    -3.1833    -0.2394   154.0111 </r>
       <r>    -3.0786    -0.8166   153.9256 </r>
       <r>    -2.9739     6.3819   154.5939 </r>
       <r>    -2.8692    18.5481   156.5361 </r>
       <r>    -2.7645    13.7615   157.9772 </r>
       <r>    -2.6598    -0.1474   157.9618 </r>
       <r>    -2.5550     5.2437   158.5109 </r>
       <r>    -2.4503    13.3565   159.9095 </r>
       <r>    -2.3456     2.3943   160.1602 </r>
       <r>    -2.2409    14.1110   161.6378 </r>
       <r>    -2.1362     3.9121   162.0475 </r>
       <r>    -2.0315    -1.1033   161.9320 </r>
       <r>    -1.9267     8.8471   162.8584 </r>
       <r>    -1.8220    22.3281   165.1965 </r>
       <r>    -1.7173    25.6045   167.8777 </r>
       <r>    -1.6126     1.7166   168.0574 </r>
       <r>    -1.5079    -1.0676   167.9456 </r>
       <r>    -1.4032     3.5421   168.3165 </r>
       <r>    -1.2985    14.5189   169.8369 </r>
       <r>    -1.1937     1.8430   170.0299 </r>
       <r>    -1.0890    -0.9744   169.9279 </r>
       <r>    -0.9843    10.0337   170.9785 </r>
       <r>    -0.8796    21.3106   173.2101 </r>
       <r>    -0.7749     7.6841   174.0147 </r>
       <r>    -0.6702     8.6710   174.9227 </r>
       <r>    -0.5654    10.7470   176.0481 </r>
       <r>    -0.4607    -0.8236   175.9619 </r>
       <r>    -0.3560     2.2674   176.1993 </r>
       <r>    -0.2513    17.7432   178.0573 </r>
       <r>    -0.1466    16.4705   179.7820 </r>
       <r>    -0.0419     7.9268   180.6120 </r>
       <r>     0.0628    17.0338   182.3957 </r>
       <r>     0.1676    14.5475   183.9191 </r>
       <r>     0.2723     1.1185   184.0362 </r>
       <r>     0.3770    -0.3395   184.0007 </r>
       <r>     0.4817    -0.0064   184.0000 </r>
       <r>     0.5864    -0.0000   184.0000 </r>
       <r>     0.6911    -0.0000   184.0000 </r>
       <r>     0.7959    -0.0000   184.0000 </r>
       <r>     0.9006     0.0000   184.0000 </r>
       <r>     1.0053     0.0000   184.0000 </r>
       <r>     1.1100     0.0000   184.0000 </r>
       <r>     1.2147     0.0000   184.0000 </r>
       <r>     1.3194     0.0000   184.0000 </r>
       <r>     1.4241     0.0000   184.0000 </r>
       <r>     1.5289     0.0000   184.0000 </r>
      </set>
     </set>
    </array>
   </total>
  </dos>
 </calculation>
 <structure name="finalpos" >
  <crystal>
   <varray name="basis" >
    <v>      15.00000000       0.00000000       0.00000000 </v>
    <v>       0.00000000      15.00000000       0.00000000 </v>
    <v>       0.00000000       0.00000000      15.00000000 </v>
   </varray>
   <i name="volume">   3375.00000000 </i>
   <varray name="rec_basis" >
    <v>       0.06666667       0.00000000       0.00000000 </v>
    <v>       0.00000000       0.06666667       0.00000000 </v>
    <v>       0.00000000       0.00000000       0.06666667 </v>
   </varray>
  </crystal>
  <varray name="positions" >
   <v>       0.29232467       0.41975867       0.56005533 </v>
   <v>       0.37793467       0.54555000       0.48990267 </v>
   <v>       0.39446200       0.29171067       0.55858600 </v>
   <v>       0.53378800       0.50282000       0.47805000 </v>
   <v>       0.54565200       0.34537400       0.53256000 </v>
   <v>       0.44731600       0.44223733       0.61469933 </v>
   <v>       0.41609400       0.39952800       0.43959733 </v>
   <v>       0.22353400       0.56343733       0.55285933 </v>
   <v>       0.33139267       0.54567733       0.66412000 </v>
   <v>       0.35201333       0.68374000       0.57102067 </v>
   <v>       0.48567667       0.66664600       0.47021000 </v>
   <v>       0.63283533       0.48633600       0.60122733 </v>
   <v>       0.48067267       0.59098867       0.61539867 </v>
   <v>       0.74792667       0.49363067       0.65630600 </v>
   <v>       0.82375333       0.50506400       0.66858667 </v>
  </varray>
 </structure>
</modeling>
