<?xml version="1.0" encoding="ISO-8859-1"?>
<modeling>
 <generator>
  <i name="program" type="string">vasp </i>
  <i name="version" type="string">5.4.4.18Apr17-6-g9f103f2a35  </i>
  <i name="subversion" type="string">(build May 08 2019 13:49:07) complex            parallel </i>
  <i name="platform" type="string">LinuxIFC </i>
  <i name="date" type="string">2019 11 13 </i>
  <i name="time" type="string">14:30:55 </i>
 </generator>
 <incar>
  <i type="string" name="SYSTEM"> CuCO</i>
  <i type="int" name="ISTART">     0</i>
  <i type="string" name="PREC">accurate</i>
  <i type="string" name="ALGO"> Fast</i>
  <i type="int" name="ISPIN">     2</i>
  <i type="int" name="INIWAV">     1</i>
  <i type="int" name="NELM">   300</i>
  <i type="int" name="NELMIN">     3</i>
  <i type="int" name="IBRION">    -1</i>
  <i name="EDIFF">      0.00000010</i>
  <i name="EDIFFG">     -0.00100000</i>
  <i type="int" name="NSW">     0</i>
  <i type="int" name="ISYM">     0</i>
  <i name="ENCUT">    600.00000000</i>
  <i name="NUPDOWN">      1.00000000</i>
  <i type="logical" name="LREAL"> F  </i>
  <i type="int" name="ISMEAR">     1</i>
  <i name="SIGMA">      0.10000000</i>
  <i name="KSPACING">      0.50000000</i>
  <i type="logical" name="KGAMMA"> F  </i>
  <i type="logical" name="LWAVE"> F  </i>
  <i type="logical" name="LCHARG"> F  </i>
  <v type="int" name="KPOINT_BSE">    -1     0     0     0</v>
  <i type="int" name="NELM">   300</i>
  <i type="string" name="GGA"> PE</i>
 </incar>
 <structure name="primitive_cell" >
  <crystal>
   <varray name="basis" >
    <v>      15.00000000       0.00000000       0.00000000 </v>
    <v>       0.00000000      15.00000000       0.00000000 </v>
    <v>       0.00000000       0.00000000      15.00000000 </v>
   </varray>
   <i name="volume">   3375.00000000 </i>
   <varray name="rec_basis" >
    <v>       0.06666667       0.00000000       0.00000000 </v>
    <v>       0.00000000       0.06666667       0.00000000 </v>
    <v>       0.00000000       0.00000000       0.06666667 </v>
   </varray>
  </crystal>
  <varray name="positions" >
   <v>       0.29173467       0.42203200      -0.44611800 </v>
   <v>       0.22472133      -0.43223533      -0.45417267 </v>
   <v>       0.37600267      -0.45350400       0.49139800 </v>
   <v>       0.39056333       0.29064000      -0.43610200 </v>
   <v>       0.44318533       0.43766667      -0.38160600 </v>
   <v>       0.33816133      -0.45514067      -0.34382533 </v>
   <v>       0.41963333       0.40119333       0.44443533 </v>
   <v>       0.48192133      -0.40318867      -0.38171933 </v>
   <v>      -0.45410000       0.34505400      -0.47128067 </v>
   <v>      -0.46253933      -0.49695000       0.48495400 </v>
   <v>       0.35101533      -0.31469333      -0.43215333 </v>
   <v>       0.48391667      -0.33831467       0.47317667 </v>
   <v>      -0.36910933       0.48073000      -0.39269400 </v>
   <v>      -0.25611333       0.49777400      -0.35171467 </v>
   <v>      -0.17882000      -0.49599733      -0.34924933 </v>
  </varray>
 </structure>
 <varray name="primitive_index" >
  <v type="int" >        1 </v>
  <v type="int" >        8 </v>
  <v type="int" >        2 </v>
  <v type="int" >        3 </v>
  <v type="int" >        6 </v>
  <v type="int" >        9 </v>
  <v type="int" >        7 </v>
  <v type="int" >       13 </v>
  <v type="int" >        5 </v>
  <v type="int" >        4 </v>
  <v type="int" >       10 </v>
  <v type="int" >       11 </v>
  <v type="int" >       12 </v>
  <v type="int" >       14 </v>
  <v type="int" >       15 </v>
 </varray>
 <kpoints>
  <generation param="Monkhorst-Pack">
   <v type="int" name="divisions">       1        1        1 </v>
   <v name="usershift">      0.00000000       0.00000000       0.00000000 </v>
   <v name="genvec1">      1.00000000       0.00000000       0.00000000 </v>
   <v name="genvec2">      0.00000000       1.00000000       0.00000000 </v>
   <v name="genvec3">      0.00000000       0.00000000       1.00000000 </v>
   <v name="shift">      0.00000000       0.00000000       0.00000000 </v>
  </generation>
  <varray name="kpointlist" >
   <v>       0.00000000       0.00000000       0.00000000 </v>
  </varray>
  <varray name="weights" >
   <v>       1.00000000 </v>
  </varray>
 </kpoints>
 <parameters>
  <separator name="general" >
   <i type="string" name="SYSTEM">CuCO</i>
   <i type="logical" name="LCOMPAT"> F  </i>
  </separator>
  <separator name="electronic" >
   <i type="string" name="PREC">accura</i>
   <i name="ENMAX">    600.00000000</i>
   <i name="ENAUG">    644.87300000</i>
   <i name="EDIFF">      0.00000010</i>
   <i type="int" name="IALGO">    68</i>
   <i type="int" name="IWAVPR">    10</i>
   <i type="int" name="NBANDS">    92</i>
   <i name="NELECT">    153.00000000</i>
   <i type="int" name="TURBO">     0</i>
   <i type="int" name="IRESTART">     0</i>
   <i type="int" name="NREBOOT">     0</i>
   <i type="int" name="NMIN">     0</i>
   <i name="EREF">      0.00000000</i>
   <separator name="electronic smearing" >
    <i type="int" name="ISMEAR">     1</i>
    <i name="SIGMA">      0.10000000</i>
    <i name="KSPACING">      0.50000000</i>
    <i type="logical" name="KGAMMA"> F  </i>
   </separator>
   <separator name="electronic projectors" >
    <i type="logical" name="LREAL"> F  </i>
    <v name="ROPT">      0.00000000      0.00000000      0.00000000</v>
    <i type="int" name="LMAXPAW">  -100</i>
    <i type="int" name="LMAXMIX">     2</i>
    <i type="logical" name="NLSPLINE"> F  </i>
   </separator>
   <separator name="electronic startup" >
    <i type="int" name="ISTART">     0</i>
    <i type="int" name="ICHARG">     2</i>
    <i type="int" name="INIWAV">     1</i>
   </separator>
   <separator name="electronic spin" >
    <i type="int" name="ISPIN">     2</i>
    <i type="logical" name="LNONCOLLINEAR"> F  </i>
    <v name="MAGMOM">      0.06666667      0.06666667      0.06666667      0.06666667      0.06666667      0.06666667      0.06666667      0.06666667      0.06666667      0.06666667      0.06666667      0.06666667      0.06666667      0.06666667      0.06666667</v>
    <i name="NUPDOWN">      1.00000000</i>
    <i type="logical" name="LSORBIT"> F  </i>
    <v name="SAXIS">      0.00000000      0.00000000      1.00000000</v>
    <i type="logical" name="LSPIRAL"> F  </i>
    <v name="QSPIRAL">      0.00000000      0.00000000      0.00000000</v>
    <i type="logical" name="LZEROZ"> F  </i>
   </separator>
   <separator name="electronic exchange-correlation" >
    <i type="logical" name="LASPH"> F  </i>
    <i type="logical" name="LMETAGGA"> F  </i>
   </separator>
   <separator name="electronic convergence" >
    <i type="int" name="NELM">   300</i>
    <i type="int" name="NELMDL">    -5</i>
    <i type="int" name="NELMIN">     3</i>
    <i name="ENINI">    600.00000000</i>
    <separator name="electronic convergence detail" >
     <i type="logical" name="LDIAG"> T  </i>
     <i type="logical" name="LSUBROT"> F  </i>
     <i name="WEIMIN">      0.00000000</i>
     <i name="EBREAK">      0.00000000</i>
     <i name="DEPER">      0.30000000</i>
     <i type="int" name="NRMM">     4</i>
     <i name="TIME">      0.40000000</i>
    </separator>
   </separator>
   <separator name="electronic mixer" >
    <i name="AMIX">      0.40000000</i>
    <i name="BMIX">      1.00000000</i>
    <i name="AMIN">      0.10000000</i>
    <i name="AMIX_MAG">      1.60000000</i>
    <i name="BMIX_MAG">      1.00000000</i>
    <separator name="electronic mixer details" >
     <i type="int" name="IMIX">     4</i>
     <i type="logical" name="MIXFIRST"> F  </i>
     <i type="int" name="MAXMIX">   -45</i>
     <i name="WC">    100.00000000</i>
     <i type="int" name="INIMIX">     1</i>
     <i type="int" name="MIXPRE">     1</i>
     <i type="int" name="MREMOVE">     5</i>
    </separator>
   </separator>
   <separator name="electronic dipolcorrection" >
    <i type="logical" name="LDIPOL"> F  </i>
    <i type="logical" name="LMONO"> F  </i>
    <i type="int" name="IDIPOL">     0</i>
    <i name="EPSILON">      1.00000000</i>
    <v name="DIPOL">   -100.00000000   -100.00000000   -100.00000000</v>
    <i name="EFIELD">      0.00000000</i>
   </separator>
  </separator>
  <separator name="grids" >
   <i type="int" name="NGX">   120</i>
   <i type="int" name="NGY">   120</i>
   <i type="int" name="NGZ">   120</i>
   <i type="int" name="NGXF">   240</i>
   <i type="int" name="NGYF">   240</i>
   <i type="int" name="NGZF">   240</i>
   <i type="logical" name="ADDGRID"> F  </i>
  </separator>
  <separator name="ionic" >
   <i type="int" name="NSW">     0</i>
   <i type="int" name="IBRION">    -1</i>
   <i type="int" name="MDALGO">     0</i>
   <i type="int" name="ISIF">     2</i>
   <i name="PSTRESS">      0.00000000</i>
   <i name="EDIFFG">     -0.00100000</i>
   <i type="int" name="NFREE">     0</i>
   <i name="POTIM">      0.50000000</i>
   <i name="SMASS">     -3.00000000</i>
   <i name="SCALEE">      1.00000000</i>
  </separator>
  <separator name="ionic md" >
   <i name="TEBEG">      0.00010000</i>
   <i name="TEEND">      0.00010000</i>
   <i type="int" name="NBLOCK">     1</i>
   <i type="int" name="KBLOCK">     1</i>
   <i type="int" name="NPACO">   256</i>
   <i name="APACO">     16.00000000</i>
  </separator>
  <separator name="symmetry" >
   <i type="int" name="ISYM">     0</i>
   <i name="SYMPREC">      0.00001000</i>
  </separator>
  <separator name="dos" >
   <i type="int" name="LORBIT">     0</i>
   <v name="RWIGS">     -1.00000000     -1.00000000     -1.00000000</v>
   <i type="int" name="NEDOS">   301</i>
   <i name="EMIN">     10.00000000</i>
   <i name="EMAX">    -10.00000000</i>
   <i name="EFERMI">      0.00000000</i>
  </separator>
  <separator name="writing" >
   <i type="int" name="NWRITE">     2</i>
   <i type="logical" name="LWAVE"> F  </i>
   <i type="logical" name="LDOWNSAMPLE"> F  </i>
   <i type="logical" name="LCHARG"> F  </i>
   <i type="logical" name="LPARD"> F  </i>
   <i type="logical" name="LVTOT"> F  </i>
   <i type="logical" name="LVHAR"> F  </i>
   <i type="logical" name="LELF"> F  </i>
   <i type="logical" name="LOPTICS"> F  </i>
   <v name="STM">      0.00000000      0.00000000      0.00000000      0.00000000      0.00000000      0.00000000      0.00000000</v>
  </separator>
  <separator name="performance" >
   <i type="int" name="NPAR">     4</i>
   <i type="int" name="NSIM">     4</i>
   <i type="int" name="NBLK">    -1</i>
   <i type="logical" name="LPLANE"> T  </i>
   <i type="logical" name="LSCALAPACK"> T  </i>
   <i type="logical" name="LSCAAWARE"> F  </i>
   <i type="logical" name="LSCALU"> F  </i>
   <i type="logical" name="LASYNC"> F  </i>
   <i type="logical" name="LORBITALREAL"> F  </i>
  </separator>
  <separator name="miscellaneous" >
   <i type="int" name="IDIOT">     3</i>
   <i type="int" name="ISPECIAL">     0</i>
   <i type="logical" name="LMUSIC"> F  </i>
   <v name="POMASS">     63.54600000     12.01100000     16.00000000</v>
   <v name="DARWINR">      0.00000000      0.00000000      0.00000000</v>
   <v name="DARWINV">      1.00000000      1.00000000      1.00000000</v>
   <i type="logical" name="LCORR"> T  </i>
  </separator>
  <i type="logical" name="GGA_COMPAT"> T  </i>
  <i type="logical" name="LBERRY"> F  </i>
  <i type="int" name="ICORELEVEL">     0</i>
  <i type="logical" name="LDAU"> F  </i>
  <i type="int" name="I_CONSTRAINED_M">     0</i>
  <separator name="electronic exchange-correlation" >
   <i type="string" name="GGA">PE</i>
   <i type="int" name="VOSKOWN">     0</i>
   <i type="logical" name="LHFCALC"> F  </i>
   <i type="string" name="PRECFOCK"></i>
   <i type="logical" name="LSYMGRAD"> F  </i>
   <i type="logical" name="LHFONE"> F  </i>
   <i type="logical" name="LRHFCALC"> F  </i>
   <i type="logical" name="LTHOMAS"> F  </i>
   <i type="logical" name="LMODELHF"> F  </i>
   <i name="ENCUT4O">     -1.00000000</i>
   <i type="int" name="EXXOEP">     0</i>
   <i type="int" name="FOURORBIT">     0</i>
   <i name="AEXX">      0.00000000</i>
   <i name="HFALPHA">      0.00000000</i>
   <i name="MCALPHA">      0.00000000</i>
   <i name="ALDAX">      1.00000000</i>
   <i name="AGGAX">      1.00000000</i>
   <i name="ALDAC">      1.00000000</i>
   <i name="AGGAC">      1.00000000</i>
   <i type="int" name="NKREDX">     1</i>
   <i type="int" name="NKREDY">     1</i>
   <i type="int" name="NKREDZ">     1</i>
   <i type="logical" name="SHIFTRED"> F  </i>
   <i type="logical" name="ODDONLY"> F  </i>
   <i type="logical" name="EVENONLY"> F  </i>
   <i type="int" name="LMAXFOCK">     0</i>
   <i type="int" name="NMAXFOCKAE">     0</i>
   <i type="logical" name="LFOCKAEDFT"> F  </i>
   <i name="HFSCREEN">      0.00000000</i>
   <i name="HFSCREENC">      0.00000000</i>
   <i type="int" name="NBANDSGWLOW">     0</i>
  </separator>
  <separator name="vdW DFT" >
   <i type="logical" name="LUSE_VDW"> F  </i>
   <i name="Zab_VDW">     -0.84910000</i>
   <i name="PARAM1">      0.12340000</i>
   <i name="PARAM2">      1.00000000</i>
   <i name="PARAM3">      0.00000000</i>
  </separator>
  <separator name="model GW" >
   <i type="int" name="MODEL_GW">     0</i>
   <i name="MODEL_EPS0">    135.00000000</i>
   <i name="MODEL_ALPHA">      1.00000000</i>
  </separator>
  <separator name="linear response parameters" >
   <i type="logical" name="LEPSILON"> F  </i>
   <i type="logical" name="LRPA"> F  </i>
   <i type="logical" name="LNABLA"> F  </i>
   <i type="logical" name="LVEL"> F  </i>
   <i type="int" name="KINTER">     0</i>
   <i name="CSHIFT">      0.10000000</i>
   <i name="OMEGAMAX">     -1.00000000</i>
   <i name="DEG_THRESHOLD">      0.00200000</i>
   <i name="RTIME">     -0.10000000</i>
   <i name="WPLASMAI">      0.00000000</i>
   <v name="DFIELD">      0.00000000      0.00000000      0.00000000</v>
   <v name="WPLASMA">      0.00000000      0.00000000      0.00000000      0.00000000      0.00000000      0.00000000      0.00000000      0.00000000      0.00000000</v>
  </separator>
  <separator name="orbital magnetization" >
   <i type="logical" name="NUCIND"> F  </i>
   <v name="MAGPOS">      0.00000000      0.00000000      0.00000000</v>
   <i type="logical" name="LNICSALL"> T  </i>
   <i type="logical" name="ORBITALMAG"> F  </i>
   <i type="logical" name="LMAGBLOCH"> F  </i>
   <i type="logical" name="LCHIMAG"> F  </i>
   <i type="logical" name="LGAUGE"> T  </i>
   <i type="int" name="MAGATOM">     0</i>
   <v name="MAGDIPOL">      0.00000000      0.00000000      0.00000000</v>
   <v name="AVECCONST">      0.00000000      0.00000000      0.00000000</v>
  </separator>
  <separator name="response functions" >
   <i type="logical" name="LADDER"> F  </i>
   <i type="logical" name="LRPAFORCE"> F  </i>
   <i type="logical" name="LFXC"> F  </i>
   <i type="logical" name="LHARTREE"> T  </i>
   <i type="int" name="IBSE">     0</i>
   <v type="int" name="KPOINT">    -1     0     0     0</v>
   <i type="logical" name="LTCTE"> F  </i>
   <i type="logical" name="LTETE"> F  </i>
   <i type="logical" name="LTRIPLET"> F  </i>
   <i type="logical" name="LFXCEPS"> F  </i>
   <i type="logical" name="LFXHEG"> F  </i>
   <i type="int" name="NATURALO">     2</i>
   <i type="logical" name="L2ORDER"> F  </i>
   <i type="logical" name="LMP2LT"> F  </i>
   <i type="logical" name="LUSEW"> F  </i>
   <i name="ENCUTGW">     -2.00000000</i>
   <i name="ENCUTGWSOFT">     -2.00000000</i>
   <i name="ENCUTLF">     -1.00000000</i>
   <i type="int" name="LMAXMP2">    -1</i>
   <i name="SCISSOR">      0.00000000</i>
   <i type="int" name="NOMEGA">     0</i>
   <i type="int" name="NOMEGAR">     0</i>
   <i type="int" name="NBANDSGW">    -1</i>
   <i type="int" name="NBANDSO">    -1</i>
   <i type="int" name="NBANDSV">    -1</i>
   <i type="int" name="NELM">   300</i>
   <i type="int" name="NELMHF">     1</i>
   <i type="int" name="DIM">     3</i>
   <i type="int" name="ANTIRES">     0</i>
   <i name="OMEGAMAX">    -30.00000000</i>
   <i name="OMEGAMIN">    -30.00000000</i>
   <i name="OMEGATL">   -200.00000000</i>
   <i type="int" name="OMEGAGRID">   140</i>
   <i name="CSHIFT">     -0.10000000</i>
   <i type="logical" name="SELFENERGY"> F  </i>
   <i type="logical" name="LSPECTRAL"> F  </i>
   <i type="logical" name="LSPECTRALGW"> F  </i>
   <i type="logical" name="LSINGLES"> F  </i>
   <i type="logical" name="LFERMIGW"> F  </i>
   <i type="logical" name="ODDONLYGW"> F  </i>
   <i type="logical" name="EVENONLYGW"> F  </i>
   <i type="int" name="NKREDLFX">     1</i>
   <i type="int" name="NKREDLFY">     1</i>
   <i type="int" name="NKREDLFZ">     1</i>
   <i type="int" name="MAXMEM">  2800</i>
   <i type="int" name="TELESCOPE">     0</i>
   <i type="int" name="TAUPAR">     1</i>
   <i type="int" name="OMEGAPAR">    -1</i>
   <i name="LAMBDA">      1.00000000</i>
  </separator>
  <separator name="External order field" >
   <i name="OFIELD_KAPPA">      0.00000000</i>
   <v name="OFIELD_K">      0.00000000      0.00000000      0.00000000</v>
   <i name="OFIELD_Q6_NEAR">      0.00000000</i>
   <i name="OFIELD_Q6_FAR">      0.00000000</i>
   <i name="OFIELD_A">      0.00000000</i>
  </separator>
 </parameters>
 <atominfo>
  <atoms>      15 </atoms>
  <types>       3 </types>
  <array name="atoms" >
   <dimension dim="1">ion</dimension>
   <field type="string">element</field>
   <field type="int">atomtype</field>
   <set>
    <rc><c>Cu</c><c>   1</c></rc>
    <rc><c>Cu</c><c>   1</c></rc>
    <rc><c>Cu</c><c>   1</c></rc>
    <rc><c>Cu</c><c>   1</c></rc>
    <rc><c>Cu</c><c>   1</c></rc>
    <rc><c>Cu</c><c>   1</c></rc>
    <rc><c>Cu</c><c>   1</c></rc>
    <rc><c>Cu</c><c>   1</c></rc>
    <rc><c>Cu</c><c>   1</c></rc>
    <rc><c>Cu</c><c>   1</c></rc>
    <rc><c>Cu</c><c>   1</c></rc>
    <rc><c>Cu</c><c>   1</c></rc>
    <rc><c>Cu</c><c>   1</c></rc>
    <rc><c>C </c><c>   2</c></rc>
    <rc><c>O </c><c>   3</c></rc>
   </set>
  </array>
  <array name="atomtypes" >
   <dimension dim="1">type</dimension>
   <field type="int">atomspertype</field>
   <field type="string">element</field>
   <field>mass</field>
   <field>valence</field>
   <field type="string">pseudopotential</field>
   <set>
    <rc><c>  13</c><c>Cu</c><c>     63.54600000</c><c>     11.00000000</c><c>  PAW_PBE Cu 22Jun2005                  </c></rc>
    <rc><c>   1</c><c>C </c><c>     12.01100000</c><c>      4.00000000</c><c>  PAW_PBE C 08Apr2002                   </c></rc>
    <rc><c>   1</c><c>O </c><c>     16.00000000</c><c>      6.00000000</c><c>  PAW_PBE O 08Apr2002                   </c></rc>
   </set>
  </array>
 </atominfo>
 <structure name="initialpos" >
  <crystal>
   <varray name="basis" >
    <v>      15.00000000       0.00000000       0.00000000 </v>
    <v>       0.00000000      15.00000000       0.00000000 </v>
    <v>       0.00000000       0.00000000      15.00000000 </v>
   </varray>
   <i name="volume">   3375.00000000 </i>
   <varray name="rec_basis" >
    <v>       0.06666667       0.00000000       0.00000000 </v>
    <v>       0.00000000       0.06666667       0.00000000 </v>
    <v>       0.00000000       0.00000000       0.06666667 </v>
   </varray>
  </crystal>
  <varray name="positions" >
   <v>       0.29173467       0.42203200       0.55388200 </v>
   <v>       0.37600267       0.54649600       0.49139800 </v>
   <v>       0.39056333       0.29064000       0.56389800 </v>
   <v>       0.53746067       0.50305000       0.48495400 </v>
   <v>       0.54590000       0.34505400       0.52871933 </v>
   <v>       0.44318533       0.43766667       0.61839400 </v>
   <v>       0.41963333       0.40119333       0.44443533 </v>
   <v>       0.22472133       0.56776467       0.54582733 </v>
   <v>       0.33816133       0.54485933       0.65617467 </v>
   <v>       0.35101533       0.68530667       0.56784667 </v>
   <v>       0.48391667       0.66168533       0.47317667 </v>
   <v>       0.63089067       0.48073000       0.60730600 </v>
   <v>       0.48192133       0.59681133       0.61828067 </v>
   <v>       0.74388667       0.49777400       0.64828533 </v>
   <v>       0.82118000       0.50400267       0.65075067 </v>
  </varray>
 </structure>
 <calculation>
  <scstep>
   <time name="dav">    7.58    7.59</time>
   <time name="total">    8.79    8.80</time>
   <energy>
    <i name="alphaZ">     41.16232785 </i>
    <i name="ewald">  16207.01739574 </i>
    <i name="hartreedc"> -33232.34347422 </i>
    <i name="XCdc">    623.24620827 </i>
    <i name="pawpsdc">  16421.75059358 </i>
    <i name="pawaedc"> -17800.06104309 </i>
    <i name="eentropy">      0.00893934 </i>
    <i name="bandstr">    194.49841484 </i>
    <i name="atom">  18662.21924712 </i>
    <i name="e_fr_energy">   1117.49860942 </i>
    <i name="e_wo_entrp">   1117.48967008 </i>
    <i name="e_0_energy">   1117.49562964 </i>
   </energy>
  </scstep>
  <scstep>
   <time name="dav">    7.45    7.45</time>
   <time name="total">    7.45    7.45</time>
   <energy>
    <i name="e_fr_energy">     90.03434814 </i>
    <i name="e_wo_entrp">     90.02757665 </i>
    <i name="e_0_energy">     90.03209098 </i>
   </energy>
  </scstep>
  <scstep>
   <time name="dav">   11.62   11.63</time>
   <time name="total">   11.62   11.63</time>
   <energy>
    <i name="e_fr_energy">    -33.00519717 </i>
    <i name="e_wo_entrp">    -33.01809579 </i>
    <i name="e_0_energy">    -33.00949671 </i>
   </energy>
  </scstep>
  <scstep>
   <time name="dav">   10.20   10.20</time>
   <time name="total">   10.20   10.21</time>
   <energy>
    <i name="e_fr_energy">    -55.59714468 </i>
    <i name="e_wo_entrp">    -55.60636465 </i>
    <i name="e_0_energy">    -55.60021800 </i>
   </energy>
  </scstep>
  <scstep>
   <time name="dav">   12.38   12.39</time>
   <time name="total">   13.06   13.07</time>
   <energy>
    <i name="e_fr_energy">    -57.30325248 </i>
    <i name="e_wo_entrp">    -57.31267214 </i>
    <i name="e_0_energy">    -57.30639237 </i>
   </energy>
  </scstep>
  <scstep>
   <time name="diag">    1.09    1.09</time>
   <time name="diis">    6.80    6.80</time>
   <time name="orth">    0.06    0.06</time>
   <time name="total">    9.83    9.84</time>
   <energy>
    <i name="e_fr_energy">    -56.81657876 </i>
    <i name="e_wo_entrp">    -56.82358996 </i>
    <i name="e_0_energy">    -56.81891583 </i>
   </energy>
  </scstep>
  <scstep>
   <time name="diag">    1.09    1.10</time>
   <time name="diis">    7.43    7.43</time>
   <time name="orth">    0.06    0.06</time>
   <time name="total">   10.47   10.47</time>
   <energy>
    <i name="e_fr_energy">    -49.24210497 </i>
    <i name="e_wo_entrp">    -49.25131422 </i>
    <i name="e_0_energy">    -49.24517472 </i>
   </energy>
  </scstep>
  <scstep>
   <time name="diag">    1.09    1.09</time>
   <time name="diis">    7.31    7.32</time>
   <time name="orth">    0.06    0.06</time>
   <time name="total">   10.33   10.34</time>
   <energy>
    <i name="e_fr_energy">    -48.96102490 </i>
    <i name="e_wo_entrp">    -48.97035410 </i>
    <i name="e_0_energy">    -48.96413464 </i>
   </energy>
  </scstep>
  <scstep>
   <time name="diag">    1.07    1.14</time>
   <time name="diis">    7.23    7.23</time>
   <time name="orth">    0.06    0.06</time>
   <time name="total">   10.27   10.35</time>
   <energy>
    <i name="e_fr_energy">    -48.91188220 </i>
    <i name="e_wo_entrp">    -48.92122401 </i>
    <i name="e_0_energy">    -48.91499614 </i>
   </energy>
  </scstep>
  <scstep>
   <time name="diag">    1.09    1.09</time>
   <time name="diis">    7.10    7.11</time>
   <time name="orth">    0.06    0.06</time>
   <time name="total">   10.17   10.17</time>
   <energy>
    <i name="e_fr_energy">    -48.84617645 </i>
    <i name="e_wo_entrp">    -48.85552536 </i>
    <i name="e_0_energy">    -48.84929275 </i>
   </energy>
  </scstep>
  <scstep>
   <time name="diag">    1.09    1.09</time>
   <time name="diis">    7.02    7.02</time>
   <time name="orth">    0.06    0.06</time>
   <time name="total">   10.07   10.08</time>
   <energy>
    <i name="e_fr_energy">    -48.83601383 </i>
    <i name="e_wo_entrp">    -48.84535037 </i>
    <i name="e_0_energy">    -48.83912601 </i>
   </energy>
  </scstep>
  <scstep>
   <time name="diag">    1.09    1.09</time>
   <time name="diis">    7.61    7.61</time>
   <time name="orth">    0.06    0.06</time>
   <time name="total">   10.67   10.67</time>
   <energy>
    <i name="e_fr_energy">    -48.83280351 </i>
    <i name="e_wo_entrp">    -48.84215289 </i>
    <i name="e_0_energy">    -48.83591997 </i>
   </energy>
  </scstep>
  <scstep>
   <time name="diag">    1.09    1.09</time>
   <time name="diis">    7.54    7.54</time>
   <time name="orth">    0.05    0.05</time>
   <time name="total">   10.60   10.60</time>
   <energy>
    <i name="e_fr_energy">    -48.83151966 </i>
    <i name="e_wo_entrp">    -48.84086852 </i>
    <i name="e_0_energy">    -48.83463595 </i>
   </energy>
  </scstep>
  <scstep>
   <time name="diag">    1.09    1.09</time>
   <time name="diis">    7.15    7.15</time>
   <time name="orth">    0.06    0.06</time>
   <time name="total">   10.21   10.21</time>
   <energy>
    <i name="e_fr_energy">    -48.83250180 </i>
    <i name="e_wo_entrp">    -48.84185156 </i>
    <i name="e_0_energy">    -48.83561838 </i>
   </energy>
  </scstep>
  <scstep>
   <time name="diag">    1.09    1.09</time>
   <time name="diis">    6.90    6.91</time>
   <time name="orth">    0.05    0.05</time>
   <time name="total">    9.97    9.97</time>
   <energy>
    <i name="e_fr_energy">    -48.83357295 </i>
    <i name="e_wo_entrp">    -48.84292318 </i>
    <i name="e_0_energy">    -48.83668969 </i>
   </energy>
  </scstep>
  <scstep>
   <time name="diag">    1.09    1.09</time>
   <time name="diis">    6.94    6.95</time>
   <time name="orth">    0.06    0.06</time>
   <time name="total">   10.01   10.01</time>
   <energy>
    <i name="e_fr_energy">    -48.83494869 </i>
    <i name="e_wo_entrp">    -48.84429743 </i>
    <i name="e_0_energy">    -48.83806493 </i>
   </energy>
  </scstep>
  <scstep>
   <time name="diag">    1.09    1.09</time>
   <time name="diis">    6.52    6.53</time>
   <time name="orth">    0.06    0.06</time>
   <time name="total">    9.59    9.59</time>
   <energy>
    <i name="e_fr_energy">    -48.83671361 </i>
    <i name="e_wo_entrp">    -48.84606152 </i>
    <i name="e_0_energy">    -48.83982958 </i>
   </energy>
  </scstep>
  <scstep>
   <time name="diag">    1.09    1.09</time>
   <time name="diis">    6.87    6.87</time>
   <time name="orth">    0.06    0.06</time>
   <time name="total">    9.93    9.94</time>
   <energy>
    <i name="e_fr_energy">    -48.83756495 </i>
    <i name="e_wo_entrp">    -48.84691305 </i>
    <i name="e_0_energy">    -48.84068099 </i>
   </energy>
  </scstep>
  <scstep>
   <time name="diag">    1.09    1.09</time>
   <time name="diis">    7.86    7.87</time>
   <time name="orth">    0.06    0.06</time>
   <time name="total">   10.93   10.94</time>
   <energy>
    <i name="e_fr_energy">    -48.83835793 </i>
    <i name="e_wo_entrp">    -48.84770641 </i>
    <i name="e_0_energy">    -48.84147409 </i>
   </energy>
  </scstep>
  <scstep>
   <time name="diag">    1.09    1.09</time>
   <time name="diis">    6.90    6.91</time>
   <time name="orth">    0.06    0.06</time>
   <time name="total">    9.97    9.98</time>
   <energy>
    <i name="e_fr_energy">    -48.83892536 </i>
    <i name="e_wo_entrp">    -48.84827402 </i>
    <i name="e_0_energy">    -48.84204158 </i>
   </energy>
  </scstep>
  <scstep>
   <time name="diag">    1.09    1.09</time>
   <time name="diis">    7.06    7.09</time>
   <time name="orth">    0.06    0.06</time>
   <time name="total">   10.12   10.16</time>
   <energy>
    <i name="e_fr_energy">    -48.83929918 </i>
    <i name="e_wo_entrp">    -48.84864787 </i>
    <i name="e_0_energy">    -48.84241541 </i>
   </energy>
  </scstep>
  <scstep>
   <time name="diag">    1.09    1.09</time>
   <time name="diis">    6.51    6.51</time>
   <time name="orth">    0.06    0.06</time>
   <time name="total">    9.58    9.59</time>
   <energy>
    <i name="e_fr_energy">    -48.83957329 </i>
    <i name="e_wo_entrp">    -48.84892186 </i>
    <i name="e_0_energy">    -48.84268948 </i>
   </energy>
  </scstep>
  <scstep>
   <time name="diag">    1.09    1.09</time>
   <time name="diis">    7.02    7.02</time>
   <time name="orth">    0.05    0.05</time>
   <time name="total">   10.09   10.10</time>
   <energy>
    <i name="e_fr_energy">    -48.83973914 </i>
    <i name="e_wo_entrp">    -48.84908765 </i>
    <i name="e_0_energy">    -48.84285531 </i>
   </energy>
  </scstep>
  <scstep>
   <time name="diag">    1.09    1.09</time>
   <time name="diis">    6.45    6.45</time>
   <time name="orth">    0.05    0.05</time>
   <time name="total">    9.52    9.52</time>
   <energy>
    <i name="e_fr_energy">    -48.83982791 </i>
    <i name="e_wo_entrp">    -48.84917644 </i>
    <i name="e_0_energy">    -48.84294409 </i>
   </energy>
  </scstep>
  <scstep>
   <time name="diag">    1.09    1.09</time>
   <time name="diis">    6.64    6.64</time>
   <time name="orth">    0.06    0.06</time>
   <time name="total">    9.71    9.72</time>
   <energy>
    <i name="e_fr_energy">    -48.83990642 </i>
    <i name="e_wo_entrp">    -48.84925491 </i>
    <i name="e_0_energy">    -48.84302258 </i>
   </energy>
  </scstep>
  <scstep>
   <time name="diag">    1.09    1.09</time>
   <time name="diis">    6.55    6.55</time>
   <time name="orth">    0.05    0.05</time>
   <time name="total">    9.63    9.63</time>
   <energy>
    <i name="e_fr_energy">    -48.83994231 </i>
    <i name="e_wo_entrp">    -48.84929085 </i>
    <i name="e_0_energy">    -48.84305849 </i>
   </energy>
  </scstep>
  <scstep>
   <time name="diag">    1.09    1.09</time>
   <time name="diis">    5.06    5.06</time>
   <time name="orth">    0.06    0.06</time>
   <time name="total">    8.14    8.15</time>
   <energy>
    <i name="e_fr_energy">    -48.83995444 </i>
    <i name="e_wo_entrp">    -48.84930297 </i>
    <i name="e_0_energy">    -48.84307062 </i>
   </energy>
  </scstep>
  <scstep>
   <time name="diag">    1.09    1.09</time>
   <time name="diis">    4.63    4.63</time>
   <time name="orth">    0.06    0.06</time>
   <time name="total">    7.72    7.73</time>
   <energy>
    <i name="e_fr_energy">    -48.83996015 </i>
    <i name="e_wo_entrp">    -48.84930868 </i>
    <i name="e_0_energy">    -48.84307633 </i>
   </energy>
  </scstep>
  <scstep>
   <time name="diag">    1.09    1.09</time>
   <time name="diis">    4.42    4.43</time>
   <time name="orth">    0.06    0.06</time>
   <time name="total">    7.52    7.53</time>
   <energy>
    <i name="e_fr_energy">    -48.83996503 </i>
    <i name="e_wo_entrp">    -48.84931355 </i>
    <i name="e_0_energy">    -48.84308120 </i>
   </energy>
  </scstep>
  <scstep>
   <time name="diag">    1.09    1.09</time>
   <time name="diis">    4.63    4.63</time>
   <time name="orth">    0.06    0.06</time>
   <time name="total">    7.74    7.74</time>
   <energy>
    <i name="e_fr_energy">    -48.83996702 </i>
    <i name="e_wo_entrp">    -48.84931554 </i>
    <i name="e_0_energy">    -48.84308319 </i>
   </energy>
  </scstep>
  <scstep>
   <time name="diag">    1.09    1.09</time>
   <time name="diis">    4.50    4.50</time>
   <time name="orth">    0.06    0.06</time>
   <time name="total">    7.61    7.62</time>
   <energy>
    <i name="e_fr_energy">    -48.83996798 </i>
    <i name="e_wo_entrp">    -48.84931650 </i>
    <i name="e_0_energy">    -48.84308415 </i>
   </energy>
  </scstep>
  <scstep>
   <time name="diag">    1.09    1.09</time>
   <time name="diis">    4.45    4.45</time>
   <time name="orth">    0.06    0.06</time>
   <time name="total">    7.57    7.57</time>
   <energy>
    <i name="e_fr_energy">    -48.83996864 </i>
    <i name="e_wo_entrp">    -48.84931716 </i>
    <i name="e_0_energy">    -48.84308481 </i>
   </energy>
  </scstep>
  <scstep>
   <time name="diag">    1.09    1.09</time>
   <time name="diis">    4.42    4.42</time>
   <time name="orth">    0.06    0.06</time>
   <time name="total">    7.54    7.55</time>
   <energy>
    <i name="e_fr_energy">    -48.83996910 </i>
    <i name="e_wo_entrp">    -48.84931762 </i>
    <i name="e_0_energy">    -48.84308527 </i>
   </energy>
  </scstep>
  <scstep>
   <time name="diag">    1.09    1.10</time>
   <time name="diis">    4.07    4.07</time>
   <time name="orth">    0.06    0.06</time>
   <time name="total">    7.20    7.21</time>
   <energy>
    <i name="e_fr_energy">    -48.83996956 </i>
    <i name="e_wo_entrp">    -48.84931809 </i>
    <i name="e_0_energy">    -48.84308574 </i>
   </energy>
  </scstep>
  <scstep>
   <time name="diag">    1.09    1.09</time>
   <time name="diis">    4.03    4.03</time>
   <time name="orth">    0.06    0.06</time>
   <time name="total">    7.17    7.18</time>
   <energy>
    <i name="e_fr_energy">    -48.83996982 </i>
    <i name="e_wo_entrp">    -48.84931835 </i>
    <i name="e_0_energy">    -48.84308600 </i>
   </energy>
  </scstep>
  <scstep>
   <time name="diag">    1.09    1.09</time>
   <time name="diis">    3.68    3.69</time>
   <time name="orth">    0.06    0.06</time>
   <time name="total">    6.83    6.83</time>
   <energy>
    <i name="e_fr_energy">    -48.83997001 </i>
    <i name="e_wo_entrp">    -48.84931853 </i>
    <i name="e_0_energy">    -48.84308618 </i>
   </energy>
  </scstep>
  <scstep>
   <time name="diag">    1.09    1.09</time>
   <time name="diis">    3.56    3.56</time>
   <time name="orth">    0.06    0.06</time>
   <time name="total">    5.91    5.92</time>
   <energy>
    <i name="alphaZ">     41.16232785 </i>
    <i name="ewald">  16207.01739574 </i>
    <i name="hartreedc"> -33189.62705677 </i>
    <i name="XCdc">    615.33486096 </i>
    <i name="pawpsdc">  17621.29878380 </i>
    <i name="pawaedc"> -19019.49029692 </i>
    <i name="eentropy">      0.00934853 </i>
    <i name="bandstr">   -986.76458038 </i>
    <i name="atom">  18662.21924712 </i>
    <i name="e_fr_energy">    -48.83997008 </i>
    <i name="e_wo_entrp">    -48.84931861 </i>
    <i name="e_0_energy">    -48.84308626 </i>
   </energy>
  </scstep>
  <structure>
   <crystal>
    <varray name="basis" >
     <v>      15.00000000       0.00000000       0.00000000 </v>
     <v>       0.00000000      15.00000000       0.00000000 </v>
     <v>       0.00000000       0.00000000      15.00000000 </v>
    </varray>
    <i name="volume">   3375.00000000 </i>
    <varray name="rec_basis" >
     <v>       0.06666667       0.00000000       0.00000000 </v>
     <v>       0.00000000       0.06666667       0.00000000 </v>
     <v>       0.00000000       0.00000000       0.06666667 </v>
    </varray>
   </crystal>
   <varray name="positions" >
    <v>       0.29173467       0.42203200       0.55388200 </v>
    <v>       0.37600267       0.54649600       0.49139800 </v>
    <v>       0.39056333       0.29064000       0.56389800 </v>
    <v>       0.53746067       0.50305000       0.48495400 </v>
    <v>       0.54590000       0.34505400       0.52871933 </v>
    <v>       0.44318533       0.43766667       0.61839400 </v>
    <v>       0.41963333       0.40119333       0.44443533 </v>
    <v>       0.22472133       0.56776467       0.54582733 </v>
    <v>       0.33816133       0.54485933       0.65617467 </v>
    <v>       0.35101533       0.68530667       0.56784667 </v>
    <v>       0.48391667       0.66168533       0.47317667 </v>
    <v>       0.63089067       0.48073000       0.60730600 </v>
    <v>       0.48192133       0.59681133       0.61828067 </v>
    <v>       0.74388667       0.49777400       0.64828533 </v>
    <v>       0.82118000       0.50400267       0.65075067 </v>
   </varray>
  </structure>
  <varray name="forces" >
   <v>       0.09177767      -0.27274102      -0.00400533 </v>
   <v>      -0.06081183       0.14426557       0.05053077 </v>
   <v>       0.17221973       0.29625308      -0.08554848 </v>
   <v>      -0.32170115       0.25554031       0.11046839 </v>
   <v>       0.01600184       0.29842646       0.24147194 </v>
   <v>       0.79172331      -0.51854690      -0.58102444 </v>
   <v>      -0.16425711      -0.32364604       0.39552072 </v>
   <v>       0.06620564       0.27995293       0.04912727 </v>
   <v>      -0.55822169       0.34470340      -0.01287202 </v>
   <v>      -0.13970519      -0.14384802       0.01589058 </v>
   <v>       0.15491314       0.07164649       0.05590617 </v>
   <v>      -0.50244411      -0.10533366       0.00443830 </v>
   <v>       0.45908747      -0.25085816      -0.28967546 </v>
   <v>       0.71411936      -0.10166604       0.04260650 </v>
   <v>      -0.71890708       0.02585161       0.00716508 </v>
  </varray>
  <varray name="stress" >
   <v>      -0.86666129      -0.38616002       0.17510483 </v>
   <v>      -0.38616001      -0.19041236      -0.23436018 </v>
   <v>       0.17510483      -0.23436019      -0.89090179 </v>
  </varray>
  <energy>
   <i name="e_fr_energy">    -48.83997008 </i>
   <i name="e_wo_entrp">    -48.84308626 </i>
   <i name="e_0_energy">      0.00934853 </i>
  </energy>
  <time name="totalsc">  354.86  355.16</time>
  <eigenvalues>
   <array>
    <dimension dim="1">band</dimension>
    <dimension dim="2">kpoint</dimension>
    <dimension dim="3">spin</dimension>
    <field>eigene</field>
    <field>occ</field>
    <set>
     <set comment="spin 1">
      <set comment="kpoint 1">
       <r>  -28.3440    1.0000 </r>
       <r>  -13.8521    1.0000 </r>
       <r>  -11.2920    1.0000 </r>
       <r>  -11.0698    1.0000 </r>
       <r>  -10.9111    1.0000 </r>
       <r>  -10.1325    1.0000 </r>
       <r>   -8.5352    1.0000 </r>
       <r>   -8.1643    1.0000 </r>
       <r>   -7.7077    1.0000 </r>
       <r>   -7.4631    1.0000 </r>
       <r>   -7.3940    1.0000 </r>
       <r>   -7.2804    1.0000 </r>
       <r>   -7.2401    1.0000 </r>
       <r>   -7.0730    1.0000 </r>
       <r>   -7.0444    1.0000 </r>
       <r>   -6.8985    1.0000 </r>
       <r>   -6.8120    1.0000 </r>
       <r>   -6.7478    1.0000 </r>
       <r>   -6.6488    1.0000 </r>
       <r>   -6.6042    1.0000 </r>
       <r>   -6.5466    1.0000 </r>
       <r>   -6.5368    1.0000 </r>
       <r>   -6.4799    1.0000 </r>
       <r>   -6.4756    1.0000 </r>
       <r>   -6.4368    1.0000 </r>
       <r>   -6.4160    1.0000 </r>
       <r>   -6.3166    1.0000 </r>
       <r>   -6.2586    1.0000 </r>
       <r>   -6.2337    1.0000 </r>
       <r>   -6.2238    1.0000 </r>
       <r>   -6.1370    1.0000 </r>
       <r>   -6.1308    1.0000 </r>
       <r>   -6.0523    1.0000 </r>
       <r>   -6.0191    1.0000 </r>
       <r>   -5.9092    1.0000 </r>
       <r>   -5.8377    1.0000 </r>
       <r>   -5.8258    1.0000 </r>
       <r>   -5.7227    1.0000 </r>
       <r>   -5.6682    1.0000 </r>
       <r>   -5.6019    1.0000 </r>
       <r>   -5.5894    1.0000 </r>
       <r>   -5.5502    1.0000 </r>
       <r>   -5.4944    1.0000 </r>
       <r>   -5.4477    1.0000 </r>
       <r>   -5.4339    1.0000 </r>
       <r>   -5.4050    1.0000 </r>
       <r>   -5.4001    1.0000 </r>
       <r>   -5.3524    1.0000 </r>
       <r>   -5.3393    1.0000 </r>
       <r>   -5.3270    1.0000 </r>
       <r>   -5.2890    1.0000 </r>
       <r>   -5.2670    1.0000 </r>
       <r>   -5.2335    1.0000 </r>
       <r>   -5.2190    1.0000 </r>
       <r>   -5.2119    1.0000 </r>
       <r>   -5.1752    1.0000 </r>
       <r>   -5.1455    1.0000 </r>
       <r>   -5.1326    1.0000 </r>
       <r>   -5.1228    1.0000 </r>
       <r>   -5.0814    1.0000 </r>
       <r>   -5.0561    1.0000 </r>
       <r>   -5.0062    1.0000 </r>
       <r>   -4.9837    1.0000 </r>
       <r>   -4.9734    1.0000 </r>
       <r>   -4.9192    1.0000 </r>
       <r>   -4.9098    1.0000 </r>
       <r>   -4.8818    1.0000 </r>
       <r>   -4.8742    1.0000 </r>
       <r>   -4.8643    1.0000 </r>
       <r>   -4.8148    1.0000 </r>
       <r>   -4.8090    1.0000 </r>
       <r>   -4.7687    1.0000 </r>
       <r>   -4.7281    1.0000 </r>
       <r>   -4.5428    1.0000 </r>
       <r>   -4.1881    1.0000 </r>
       <r>   -4.1160    1.0000 </r>
       <r>   -3.5482    1.0000 </r>
       <r>   -3.0185   -0.0000 </r>
       <r>   -2.8557   -0.0000 </r>
       <r>   -2.5558   -0.0000 </r>
       <r>   -2.3780   -0.0000 </r>
       <r>   -1.9822   -0.0000 </r>
       <r>   -1.9029   -0.0000 </r>
       <r>   -1.8014   -0.0000 </r>
       <r>   -1.4143   -0.0000 </r>
       <r>   -1.0504   -0.0000 </r>
       <r>   -0.9664   -0.0000 </r>
       <r>   -0.6625    0.0000 </r>
       <r>   -0.4060    0.0000 </r>
       <r>   -0.2488    0.0000 </r>
       <r>    0.1575    0.0000 </r>
       <r>    0.2035    0.0000 </r>
      </set>
     </set>
     <set comment="spin 2">
      <set comment="kpoint 1">
       <r>  -28.3211    1.0000 </r>
       <r>  -13.8098    1.0000 </r>
       <r>  -11.2623    1.0000 </r>
       <r>  -11.0386    1.0000 </r>
       <r>  -10.8514    1.0000 </r>
       <r>  -10.0921    1.0000 </r>
       <r>   -8.5112    1.0000 </r>
       <r>   -8.1161    1.0000 </r>
       <r>   -7.6668    1.0000 </r>
       <r>   -7.4378    1.0000 </r>
       <r>   -7.3625    1.0000 </r>
       <r>   -7.2325    1.0000 </r>
       <r>   -7.2096    1.0000 </r>
       <r>   -7.0515    1.0000 </r>
       <r>   -7.0151    1.0000 </r>
       <r>   -6.8614    1.0000 </r>
       <r>   -6.7888    1.0000 </r>
       <r>   -6.7152    1.0000 </r>
       <r>   -6.6209    1.0000 </r>
       <r>   -6.5820    1.0000 </r>
       <r>   -6.5251    1.0000 </r>
       <r>   -6.5160    1.0000 </r>
       <r>   -6.4571    1.0000 </r>
       <r>   -6.4499    1.0000 </r>
       <r>   -6.4063    1.0000 </r>
       <r>   -6.3873    1.0000 </r>
       <r>   -6.2930    1.0000 </r>
       <r>   -6.2330    1.0000 </r>
       <r>   -6.2145    1.0000 </r>
       <r>   -6.1936    1.0000 </r>
       <r>   -6.1150    1.0000 </r>
       <r>   -6.1012    1.0000 </r>
       <r>   -6.0255    1.0000 </r>
       <r>   -5.9963    1.0000 </r>
       <r>   -5.8838    1.0000 </r>
       <r>   -5.8094    1.0000 </r>
       <r>   -5.7969    1.0000 </r>
       <r>   -5.7014    1.0000 </r>
       <r>   -5.6419    1.0000 </r>
       <r>   -5.5815    1.0000 </r>
       <r>   -5.5661    1.0000 </r>
       <r>   -5.5243    1.0000 </r>
       <r>   -5.4655    1.0000 </r>
       <r>   -5.4206    1.0000 </r>
       <r>   -5.4078    1.0000 </r>
       <r>   -5.3840    1.0000 </r>
       <r>   -5.3659    1.0000 </r>
       <r>   -5.3238    1.0000 </r>
       <r>   -5.3088    1.0000 </r>
       <r>   -5.2994    1.0000 </r>
       <r>   -5.2635    1.0000 </r>
       <r>   -5.2438    1.0000 </r>
       <r>   -5.2098    1.0000 </r>
       <r>   -5.1950    1.0000 </r>
       <r>   -5.1859    1.0000 </r>
       <r>   -5.1523    1.0000 </r>
       <r>   -5.1245    1.0000 </r>
       <r>   -5.1172    1.0000 </r>
       <r>   -5.0998    1.0000 </r>
       <r>   -5.0501    1.0000 </r>
       <r>   -5.0323    1.0000 </r>
       <r>   -4.9866    1.0000 </r>
       <r>   -4.9612    1.0000 </r>
       <r>   -4.9469    1.0000 </r>
       <r>   -4.8931    1.0000 </r>
       <r>   -4.8853    1.0000 </r>
       <r>   -4.8561    1.0000 </r>
       <r>   -4.8431    1.0000 </r>
       <r>   -4.8220    1.0000 </r>
       <r>   -4.7852    1.0000 </r>
       <r>   -4.7724    1.0000 </r>
       <r>   -4.7453    1.0000 </r>
       <r>   -4.6988    1.0000 </r>
       <r>   -4.4986    1.0000 </r>
       <r>   -4.1280    1.0354 </r>
       <r>   -4.0784    0.9646 </r>
       <r>   -3.3407   -0.0000 </r>
       <r>   -2.9629   -0.0000 </r>
       <r>   -2.8050   -0.0000 </r>
       <r>   -2.4925   -0.0000 </r>
       <r>   -2.2785   -0.0000 </r>
       <r>   -1.9497   -0.0000 </r>
       <r>   -1.8206   -0.0000 </r>
       <r>   -1.7314   -0.0000 </r>
       <r>   -1.3091   -0.0000 </r>
       <r>   -0.9379    0.0000 </r>
       <r>   -0.8823    0.0000 </r>
       <r>   -0.5855    0.0000 </r>
       <r>   -0.3002    0.0000 </r>
       <r>   -0.1066    0.0000 </r>
       <r>    0.1379    0.0000 </r>
       <r>    0.3035    0.0000 </r>
      </set>
     </set>
    </set>
   </array>
  </eigenvalues>
  <separator name="orbital magnetization" >
   <v name="MAGDIPOLOUT">      0.00000000      0.00000000      0.00000000</v>
  </separator>
  <dos>
   <i name="efermi">     -4.00706373 </i>
   <total>
    <array>
     <dimension dim="1">gridpoints</dimension>
     <dimension dim="2">spin</dimension>
     <field>energy</field>
     <field>total</field>
     <field>integrated</field>
     <set>
      <set comment="spin 1">
       <r>   -29.7764     0.0000     0.0000 </r>
       <r>   -29.6714     0.0000     0.0000 </r>
       <r>   -29.5663     0.0000     0.0000 </r>
       <r>   -29.4613     0.0000     0.0000 </r>
       <r>   -29.3562     0.0000     0.0000 </r>
       <r>   -29.2512     0.0000     0.0000 </r>
       <r>   -29.1461    -0.0000    -0.0000 </r>
       <r>   -29.0411    -0.0000    -0.0000 </r>
       <r>   -28.9361    -0.0000    -0.0000 </r>
       <r>   -28.8310    -0.0000    -0.0000 </r>
       <r>   -28.7260    -0.0000    -0.0000 </r>
       <r>   -28.6209    -0.0061    -0.0006 </r>
       <r>   -28.5159    -0.3316    -0.0355 </r>
       <r>   -28.4109     1.3207     0.1033 </r>
       <r>   -28.3058    14.2222     1.5972 </r>
       <r>   -28.2008     4.4162     2.0611 </r>
       <r>   -28.0957    -0.5575     2.0025 </r>
       <r>   -27.9907    -0.0237     2.0000 </r>
       <r>   -27.8857    -0.0001     2.0000 </r>
       <r>   -27.7806    -0.0000     2.0000 </r>
       <r>   -27.6756    -0.0000     2.0000 </r>
       <r>   -27.5705     0.0000     2.0000 </r>
       <r>   -27.4655     0.0000     2.0000 </r>
       <r>   -27.3605     0.0000     2.0000 </r>
       <r>   -27.2554     0.0000     2.0000 </r>
       <r>   -27.1504     0.0000     2.0000 </r>
       <r>   -27.0453     0.0000     2.0000 </r>
       <r>   -26.9403     0.0000     2.0000 </r>
       <r>   -26.8352     0.0000     2.0000 </r>
       <r>   -26.7302     0.0000     2.0000 </r>
       <r>   -26.6252     0.0000     2.0000 </r>
       <r>   -26.5201     0.0000     2.0000 </r>
       <r>   -26.4151     0.0000     2.0000 </r>
       <r>   -26.3100     0.0000     2.0000 </r>
       <r>   -26.2050     0.0000     2.0000 </r>
       <r>   -26.1000     0.0000     2.0000 </r>
       <r>   -25.9949     0.0000     2.0000 </r>
       <r>   -25.8899     0.0000     2.0000 </r>
       <r>   -25.7848     0.0000     2.0000 </r>
       <r>   -25.6798     0.0000     2.0000 </r>
       <r>   -25.5748     0.0000     2.0000 </r>
       <r>   -25.4697     0.0000     2.0000 </r>
       <r>   -25.3647     0.0000     2.0000 </r>
       <r>   -25.2596     0.0000     2.0000 </r>
       <r>   -25.1546     0.0000     2.0000 </r>
       <r>   -25.0495     0.0000     2.0000 </r>
       <r>   -24.9445     0.0000     2.0000 </r>
       <r>   -24.8395     0.0000     2.0000 </r>
       <r>   -24.7344     0.0000     2.0000 </r>
       <r>   -24.6294     0.0000     2.0000 </r>
       <r>   -24.5243     0.0000     2.0000 </r>
       <r>   -24.4193     0.0000     2.0000 </r>
       <r>   -24.3143     0.0000     2.0000 </r>
       <r>   -24.2092     0.0000     2.0000 </r>
       <r>   -24.1042     0.0000     2.0000 </r>
       <r>   -23.9991     0.0000     2.0000 </r>
       <r>   -23.8941     0.0000     2.0000 </r>
       <r>   -23.7891     0.0000     2.0000 </r>
       <r>   -23.6840     0.0000     2.0000 </r>
       <r>   -23.5790     0.0000     2.0000 </r>
       <r>   -23.4739     0.0000     2.0000 </r>
       <r>   -23.3689     0.0000     2.0000 </r>
       <r>   -23.2639     0.0000     2.0000 </r>
       <r>   -23.1588     0.0000     2.0000 </r>
       <r>   -23.0538     0.0000     2.0000 </r>
       <r>   -22.9487     0.0000     2.0000 </r>
       <r>   -22.8437     0.0000     2.0000 </r>
       <r>   -22.7386     0.0000     2.0000 </r>
       <r>   -22.6336     0.0000     2.0000 </r>
       <r>   -22.5286     0.0000     2.0000 </r>
       <r>   -22.4235     0.0000     2.0000 </r>
       <r>   -22.3185     0.0000     2.0000 </r>
       <r>   -22.2134     0.0000     2.0000 </r>
       <r>   -22.1084     0.0000     2.0000 </r>
       <r>   -22.0034     0.0000     2.0000 </r>
       <r>   -21.8983     0.0000     2.0000 </r>
       <r>   -21.7933     0.0000     2.0000 </r>
       <r>   -21.6882     0.0000     2.0000 </r>
       <r>   -21.5832     0.0000     2.0000 </r>
       <r>   -21.4782     0.0000     2.0000 </r>
       <r>   -21.3731     0.0000     2.0000 </r>
       <r>   -21.2681     0.0000     2.0000 </r>
       <r>   -21.1630     0.0000     2.0000 </r>
       <r>   -21.0580     0.0000     2.0000 </r>
       <r>   -20.9530     0.0000     2.0000 </r>
       <r>   -20.8479     0.0000     2.0000 </r>
       <r>   -20.7429     0.0000     2.0000 </r>
       <r>   -20.6378     0.0000     2.0000 </r>
       <r>   -20.5328     0.0000     2.0000 </r>
       <r>   -20.4277     0.0000     2.0000 </r>
       <r>   -20.3227     0.0000     2.0000 </r>
       <r>   -20.2177     0.0000     2.0000 </r>
       <r>   -20.1126     0.0000     2.0000 </r>
       <r>   -20.0076     0.0000     2.0000 </r>
       <r>   -19.9025     0.0000     2.0000 </r>
       <r>   -19.7975     0.0000     2.0000 </r>
       <r>   -19.6925     0.0000     2.0000 </r>
       <r>   -19.5874     0.0000     2.0000 </r>
       <r>   -19.4824     0.0000     2.0000 </r>
       <r>   -19.3773     0.0000     2.0000 </r>
       <r>   -19.2723     0.0000     2.0000 </r>
       <r>   -19.1673     0.0000     2.0000 </r>
       <r>   -19.0622     0.0000     2.0000 </r>
       <r>   -18.9572     0.0000     2.0000 </r>
       <r>   -18.8521     0.0000     2.0000 </r>
       <r>   -18.7471     0.0000     2.0000 </r>
       <r>   -18.6420     0.0000     2.0000 </r>
       <r>   -18.5370     0.0000     2.0000 </r>
       <r>   -18.4320     0.0000     2.0000 </r>
       <r>   -18.3269     0.0000     2.0000 </r>
       <r>   -18.2219     0.0000     2.0000 </r>
       <r>   -18.1168     0.0000     2.0000 </r>
       <r>   -18.0118     0.0000     2.0000 </r>
       <r>   -17.9068     0.0000     2.0000 </r>
       <r>   -17.8017     0.0000     2.0000 </r>
       <r>   -17.6967     0.0000     2.0000 </r>
       <r>   -17.5916     0.0000     2.0000 </r>
       <r>   -17.4866     0.0000     2.0000 </r>
       <r>   -17.3816     0.0000     2.0000 </r>
       <r>   -17.2765     0.0000     2.0000 </r>
       <r>   -17.1715     0.0000     2.0000 </r>
       <r>   -17.0664     0.0000     2.0000 </r>
       <r>   -16.9614     0.0000     2.0000 </r>
       <r>   -16.8564     0.0000     2.0000 </r>
       <r>   -16.7513     0.0000     2.0000 </r>
       <r>   -16.6463     0.0000     2.0000 </r>
       <r>   -16.5412     0.0000     2.0000 </r>
       <r>   -16.4362     0.0000     2.0000 </r>
       <r>   -16.3311     0.0000     2.0000 </r>
       <r>   -16.2261     0.0000     2.0000 </r>
       <r>   -16.1211     0.0000     2.0000 </r>
       <r>   -16.0160     0.0000     2.0000 </r>
       <r>   -15.9110     0.0000     2.0000 </r>
       <r>   -15.8059     0.0000     2.0000 </r>
       <r>   -15.7009     0.0000     2.0000 </r>
       <r>   -15.5959     0.0000     2.0000 </r>
       <r>   -15.4908     0.0000     2.0000 </r>
       <r>   -15.3858     0.0000     2.0000 </r>
       <r>   -15.2807     0.0000     2.0000 </r>
       <r>   -15.1757     0.0000     2.0000 </r>
       <r>   -15.0707     0.0000     2.0000 </r>
       <r>   -14.9656     0.0000     2.0000 </r>
       <r>   -14.8606     0.0000     2.0000 </r>
       <r>   -14.7555    -0.0000     2.0000 </r>
       <r>   -14.6505    -0.0000     2.0000 </r>
       <r>   -14.5454    -0.0000     2.0000 </r>
       <r>   -14.4404    -0.0000     2.0000 </r>
       <r>   -14.3354    -0.0000     2.0000 </r>
       <r>   -14.2303    -0.0000     2.0000 </r>
       <r>   -14.1253    -0.0073     1.9992 </r>
       <r>   -14.0202    -0.3613     1.9613 </r>
       <r>   -13.9152     1.6354     2.1331 </r>
       <r>   -13.8102    14.3965     3.6453 </r>
       <r>   -13.7051     3.9287     4.0580 </r>
       <r>   -13.6001    -0.5316     4.0021 </r>
       <r>   -13.4950    -0.0201     4.0000 </r>
       <r>   -13.3900    -0.0001     4.0000 </r>
       <r>   -13.2850    -0.0000     4.0000 </r>
       <r>   -13.1799    -0.0000     4.0000 </r>
       <r>   -13.0749     0.0000     4.0000 </r>
       <r>   -12.9698     0.0000     4.0000 </r>
       <r>   -12.8648     0.0000     4.0000 </r>
       <r>   -12.7598     0.0000     4.0000 </r>
       <r>   -12.6547     0.0000     4.0000 </r>
       <r>   -12.5497     0.0000     4.0000 </r>
       <r>   -12.4446     0.0000     4.0000 </r>
       <r>   -12.3396     0.0000     4.0000 </r>
       <r>   -12.2345     0.0000     4.0000 </r>
       <r>   -12.1295    -0.0000     4.0000 </r>
       <r>   -12.0245    -0.0000     4.0000 </r>
       <r>   -11.9194    -0.0000     4.0000 </r>
       <r>   -11.8144    -0.0000     4.0000 </r>
       <r>   -11.7093    -0.0000     4.0000 </r>
       <r>   -11.6043    -0.0009     3.9999 </r>
       <r>   -11.4993    -0.1185     3.9875 </r>
       <r>   -11.3942    -0.4010     3.9453 </r>
       <r>   -11.2892    10.4123     5.0391 </r>
       <r>   -11.1841     9.0865     5.9935 </r>
       <r>   -11.0791     7.8225     6.8152 </r>
       <r>   -10.9741    12.9428     8.1747 </r>
       <r>   -10.8690    14.1665     9.6628 </r>
       <r>   -10.7640     3.7621    10.0580 </r>
       <r>   -10.6589    -0.5317    10.0021 </r>
       <r>   -10.5539    -0.0200    10.0000 </r>
       <r>   -10.4488    -0.0007     9.9999 </r>
       <r>   -10.3438    -0.1033     9.9891 </r>
       <r>   -10.2388    -0.4757     9.9391 </r>
       <r>   -10.1337     9.9077    10.9798 </r>
       <r>   -10.0287    10.2581    12.0573 </r>
       <r>    -9.9236    -0.4329    12.0119 </r>
       <r>    -9.8186    -0.1122    12.0001 </r>
       <r>    -9.7136    -0.0008    12.0000 </r>
       <r>    -9.6085    -0.0000    12.0000 </r>
       <r>    -9.5035    -0.0000    12.0000 </r>
       <r>    -9.3984    -0.0000    12.0000 </r>
       <r>    -9.2934    -0.0000    12.0000 </r>
       <r>    -9.1884    -0.0000    12.0000 </r>
       <r>    -9.0833    -0.0000    12.0000 </r>
       <r>    -8.9783    -0.0000    12.0000 </r>
       <r>    -8.8732    -0.0002    12.0000 </r>
       <r>    -8.7682    -0.0454    11.9952 </r>
       <r>    -8.6632    -0.6214    11.9299 </r>
       <r>    -8.5581     6.6044    12.6237 </r>
       <r>    -8.4531    13.0111    13.9904 </r>
       <r>    -8.3480     0.0685    13.9976 </r>
       <r>    -8.2430     0.2803    14.0270 </r>
       <r>    -8.1379    13.3490    15.4292 </r>
       <r>    -8.0329     6.0881    16.0687 </r>
       <r>    -7.9279    -0.6897    15.9963 </r>
       <r>    -7.8228    -0.6222    15.9309 </r>
       <r>    -7.7178     8.5375    16.8277 </r>
       <r>    -7.6127    10.9130    17.9740 </r>
       <r>    -7.5077     2.7532    18.2632 </r>
       <r>    -7.4027    22.0925    20.5838 </r>
       <r>    -7.2976    22.7245    22.9708 </r>
       <r>    -7.1926    25.1793    25.6157 </r>
       <r>    -7.0875    14.5764    27.1468 </r>
       <r>    -6.9825    25.6684    29.8431 </r>
       <r>    -6.8775    15.2357    31.4434 </r>
       <r>    -6.7724    25.8859    34.1625 </r>
       <r>    -6.6674    23.9626    36.6796 </r>
       <r>    -6.5623    39.8726    40.8678 </r>
       <r>    -6.4573    64.9245    47.6876 </r>
       <r>    -6.3523    43.9772    52.3070 </r>
       <r>    -6.2472    39.0318    56.4069 </r>
       <r>    -6.1422    50.8136    61.7444 </r>
       <r>    -6.0371    40.4363    65.9919 </r>
       <r>    -5.9321    25.0752    68.6258 </r>
       <r>    -5.8270    32.6851    72.0591 </r>
       <r>    -5.7220    29.9075    75.2006 </r>
       <r>    -5.6170    36.9519    79.0821 </r>
       <r>    -5.5119    49.3327    84.2640 </r>
       <r>    -5.4069    65.6463    91.1596 </r>
       <r>    -5.3018    85.2057   100.1097 </r>
       <r>    -5.1968    87.0816   109.2568 </r>
       <r>    -5.0918    85.1710   118.2033 </r>
       <r>    -4.9867    65.3894   125.0718 </r>
       <r>    -4.8817    83.9053   133.8853 </r>
       <r>    -4.7766    82.3485   142.5353 </r>
       <r>    -4.6716    32.6075   145.9604 </r>
       <r>    -4.5666     6.8070   146.6754 </r>
       <r>    -4.4615    12.4840   147.9868 </r>
       <r>    -4.3565    -0.0432   147.9822 </r>
       <r>    -4.2514     0.7873   148.0649 </r>
       <r>    -4.1464    19.8866   150.1538 </r>
       <r>    -4.0413    17.6556   152.0084 </r>
       <r>    -3.9363     0.2173   152.0312 </r>
       <r>    -3.8313    -0.2976   152.0000 </r>
       <r>    -3.7262    -0.2894   151.9696 </r>
       <r>    -3.6212     0.8660   152.0605 </r>
       <r>    -3.5161    13.8321   153.5135 </r>
       <r>    -3.4111     5.2557   154.0655 </r>
       <r>    -3.3061    -0.5963   154.0029 </r>
       <r>    -3.2010    -0.2843   153.9730 </r>
       <r>    -3.0960     0.5414   154.0299 </r>
       <r>    -2.9909    12.8614   155.3809 </r>
       <r>    -2.8859    11.4355   156.5821 </r>
       <r>    -2.7809    13.0109   157.9488 </r>
       <r>    -2.6758     0.0882   157.9580 </r>
       <r>    -2.5708     7.3483   158.7299 </r>
       <r>    -2.4657    12.1708   160.0083 </r>
       <r>    -2.3607    12.3569   161.3063 </r>
       <r>    -2.2557     7.2736   162.0703 </r>
       <r>    -2.1506    -1.0036   161.9649 </r>
       <r>    -2.0456     0.9675   162.0665 </r>
       <r>    -1.9405    18.2996   163.9887 </r>
       <r>    -1.8355    23.1228   166.4176 </r>
       <r>    -1.7304    14.7142   167.9632 </r>
       <r>    -1.6254     0.5570   168.0217 </r>
       <r>    -1.5204    -0.7791   167.9399 </r>
       <r>    -1.4153     9.9270   168.9826 </r>
       <r>    -1.3103    10.2200   170.0561 </r>
       <r>    -1.2052    -0.9426   169.9571 </r>
       <r>    -1.1002     2.2647   170.1950 </r>
       <r>    -0.9952    20.3215   172.3296 </r>
       <r>    -0.8901    15.8975   173.9995 </r>
       <r>    -0.7851    -0.3939   173.9581 </r>
       <r>    -0.6800     7.1353   174.7076 </r>
       <r>    -0.5750    12.0713   175.9756 </r>
       <r>    -0.4700     1.5523   176.1387 </r>
       <r>    -0.3649    13.5818   177.5653 </r>
       <r>    -0.2599    12.4509   178.8731 </r>
       <r>    -0.1548    11.0854   180.0376 </r>
       <r>    -0.0498    -0.3393   180.0019 </r>
       <r>     0.0553    -1.0775   179.8887 </r>
       <r>     0.1603    14.2663   181.3873 </r>
       <r>     0.2653    24.1056   183.9194 </r>
       <r>     0.3704     1.2449   184.0501 </r>
       <r>     0.4754    -0.4688   184.0009 </r>
       <r>     0.5805    -0.0084   184.0000 </r>
       <r>     0.6855    -0.0000   184.0000 </r>
       <r>     0.7905    -0.0000   184.0000 </r>
       <r>     0.8956    -0.0000   184.0000 </r>
       <r>     1.0006     0.0000   184.0000 </r>
       <r>     1.1057     0.0000   184.0000 </r>
       <r>     1.2107     0.0000   184.0000 </r>
       <r>     1.3157     0.0000   184.0000 </r>
       <r>     1.4208     0.0000   184.0000 </r>
       <r>     1.5258     0.0000   184.0000 </r>
       <r>     1.6309     0.0000   184.0000 </r>
       <r>     1.7359     0.0000   184.0000 </r>
      </set>
      <set comment="spin 2">
       <r>   -29.7764     0.0000     0.0000 </r>
       <r>   -29.6714     0.0000     0.0000 </r>
       <r>   -29.5663     0.0000     0.0000 </r>
       <r>   -29.4613     0.0000     0.0000 </r>
       <r>   -29.3562     0.0000     0.0000 </r>
       <r>   -29.2512     0.0000     0.0000 </r>
       <r>   -29.1461    -0.0000    -0.0000 </r>
       <r>   -29.0411    -0.0000    -0.0000 </r>
       <r>   -28.9361    -0.0000    -0.0000 </r>
       <r>   -28.8310    -0.0000    -0.0000 </r>
       <r>   -28.7260    -0.0000    -0.0000 </r>
       <r>   -28.6209    -0.0018    -0.0002 </r>
       <r>   -28.5159    -0.1775    -0.0188 </r>
       <r>   -28.4109    -0.0304    -0.0220 </r>
       <r>   -28.3058    12.1574     1.2550 </r>
       <r>   -28.2008     7.7662     2.0708 </r>
       <r>   -28.0957    -0.6120     2.0065 </r>
       <r>   -27.9907    -0.0614     2.0000 </r>
       <r>   -27.8857    -0.0003     2.0000 </r>
       <r>   -27.7806    -0.0000     2.0000 </r>
       <r>   -27.6756    -0.0000     2.0000 </r>
       <r>   -27.5705     0.0000     2.0000 </r>
       <r>   -27.4655     0.0000     2.0000 </r>
       <r>   -27.3605     0.0000     2.0000 </r>
       <r>   -27.2554     0.0000     2.0000 </r>
       <r>   -27.1504     0.0000     2.0000 </r>
       <r>   -27.0453     0.0000     2.0000 </r>
       <r>   -26.9403     0.0000     2.0000 </r>
       <r>   -26.8352     0.0000     2.0000 </r>
       <r>   -26.7302     0.0000     2.0000 </r>
       <r>   -26.6252     0.0000     2.0000 </r>
       <r>   -26.5201     0.0000     2.0000 </r>
       <r>   -26.4151     0.0000     2.0000 </r>
       <r>   -26.3100     0.0000     2.0000 </r>
       <r>   -26.2050     0.0000     2.0000 </r>
       <r>   -26.1000     0.0000     2.0000 </r>
       <r>   -25.9949     0.0000     2.0000 </r>
       <r>   -25.8899     0.0000     2.0000 </r>
       <r>   -25.7848     0.0000     2.0000 </r>
       <r>   -25.6798     0.0000     2.0000 </r>
       <r>   -25.5748     0.0000     2.0000 </r>
       <r>   -25.4697     0.0000     2.0000 </r>
       <r>   -25.3647     0.0000     2.0000 </r>
       <r>   -25.2596     0.0000     2.0000 </r>
       <r>   -25.1546     0.0000     2.0000 </r>
       <r>   -25.0495     0.0000     2.0000 </r>
       <r>   -24.9445     0.0000     2.0000 </r>
       <r>   -24.8395     0.0000     2.0000 </r>
       <r>   -24.7344     0.0000     2.0000 </r>
       <r>   -24.6294     0.0000     2.0000 </r>
       <r>   -24.5243     0.0000     2.0000 </r>
       <r>   -24.4193     0.0000     2.0000 </r>
       <r>   -24.3143     0.0000     2.0000 </r>
       <r>   -24.2092     0.0000     2.0000 </r>
       <r>   -24.1042     0.0000     2.0000 </r>
       <r>   -23.9991     0.0000     2.0000 </r>
       <r>   -23.8941     0.0000     2.0000 </r>
       <r>   -23.7891     0.0000     2.0000 </r>
       <r>   -23.6840     0.0000     2.0000 </r>
       <r>   -23.5790     0.0000     2.0000 </r>
       <r>   -23.4739     0.0000     2.0000 </r>
       <r>   -23.3689     0.0000     2.0000 </r>
       <r>   -23.2639     0.0000     2.0000 </r>
       <r>   -23.1588     0.0000     2.0000 </r>
       <r>   -23.0538     0.0000     2.0000 </r>
       <r>   -22.9487     0.0000     2.0000 </r>
       <r>   -22.8437     0.0000     2.0000 </r>
       <r>   -22.7386     0.0000     2.0000 </r>
       <r>   -22.6336     0.0000     2.0000 </r>
       <r>   -22.5286     0.0000     2.0000 </r>
       <r>   -22.4235     0.0000     2.0000 </r>
       <r>   -22.3185     0.0000     2.0000 </r>
       <r>   -22.2134     0.0000     2.0000 </r>
       <r>   -22.1084     0.0000     2.0000 </r>
       <r>   -22.0034     0.0000     2.0000 </r>
       <r>   -21.8983     0.0000     2.0000 </r>
       <r>   -21.7933     0.0000     2.0000 </r>
       <r>   -21.6882     0.0000     2.0000 </r>
       <r>   -21.5832     0.0000     2.0000 </r>
       <r>   -21.4782     0.0000     2.0000 </r>
       <r>   -21.3731     0.0000     2.0000 </r>
       <r>   -21.2681     0.0000     2.0000 </r>
       <r>   -21.1630     0.0000     2.0000 </r>
       <r>   -21.0580     0.0000     2.0000 </r>
       <r>   -20.9530     0.0000     2.0000 </r>
       <r>   -20.8479     0.0000     2.0000 </r>
       <r>   -20.7429     0.0000     2.0000 </r>
       <r>   -20.6378     0.0000     2.0000 </r>
       <r>   -20.5328     0.0000     2.0000 </r>
       <r>   -20.4277     0.0000     2.0000 </r>
       <r>   -20.3227     0.0000     2.0000 </r>
       <r>   -20.2177     0.0000     2.0000 </r>
       <r>   -20.1126     0.0000     2.0000 </r>
       <r>   -20.0076     0.0000     2.0000 </r>
       <r>   -19.9025     0.0000     2.0000 </r>
       <r>   -19.7975     0.0000     2.0000 </r>
       <r>   -19.6925     0.0000     2.0000 </r>
       <r>   -19.5874     0.0000     2.0000 </r>
       <r>   -19.4824     0.0000     2.0000 </r>
       <r>   -19.3773     0.0000     2.0000 </r>
       <r>   -19.2723     0.0000     2.0000 </r>
       <r>   -19.1673     0.0000     2.0000 </r>
       <r>   -19.0622     0.0000     2.0000 </r>
       <r>   -18.9572     0.0000     2.0000 </r>
       <r>   -18.8521     0.0000     2.0000 </r>
       <r>   -18.7471     0.0000     2.0000 </r>
       <r>   -18.6420     0.0000     2.0000 </r>
       <r>   -18.5370     0.0000     2.0000 </r>
       <r>   -18.4320     0.0000     2.0000 </r>
       <r>   -18.3269     0.0000     2.0000 </r>
       <r>   -18.2219     0.0000     2.0000 </r>
       <r>   -18.1168     0.0000     2.0000 </r>
       <r>   -18.0118     0.0000     2.0000 </r>
       <r>   -17.9068     0.0000     2.0000 </r>
       <r>   -17.8017     0.0000     2.0000 </r>
       <r>   -17.6967     0.0000     2.0000 </r>
       <r>   -17.5916     0.0000     2.0000 </r>
       <r>   -17.4866     0.0000     2.0000 </r>
       <r>   -17.3816     0.0000     2.0000 </r>
       <r>   -17.2765     0.0000     2.0000 </r>
       <r>   -17.1715     0.0000     2.0000 </r>
       <r>   -17.0664     0.0000     2.0000 </r>
       <r>   -16.9614     0.0000     2.0000 </r>
       <r>   -16.8564     0.0000     2.0000 </r>
       <r>   -16.7513     0.0000     2.0000 </r>
       <r>   -16.6463     0.0000     2.0000 </r>
       <r>   -16.5412     0.0000     2.0000 </r>
       <r>   -16.4362     0.0000     2.0000 </r>
       <r>   -16.3311     0.0000     2.0000 </r>
       <r>   -16.2261     0.0000     2.0000 </r>
       <r>   -16.1211     0.0000     2.0000 </r>
       <r>   -16.0160     0.0000     2.0000 </r>
       <r>   -15.9110     0.0000     2.0000 </r>
       <r>   -15.8059     0.0000     2.0000 </r>
       <r>   -15.7009     0.0000     2.0000 </r>
       <r>   -15.5959     0.0000     2.0000 </r>
       <r>   -15.4908     0.0000     2.0000 </r>
       <r>   -15.3858     0.0000     2.0000 </r>
       <r>   -15.2807     0.0000     2.0000 </r>
       <r>   -15.1757     0.0000     2.0000 </r>
       <r>   -15.0707     0.0000     2.0000 </r>
       <r>   -14.9656     0.0000     2.0000 </r>
       <r>   -14.8606     0.0000     2.0000 </r>
       <r>   -14.7555     0.0000     2.0000 </r>
       <r>   -14.6505    -0.0000     2.0000 </r>
       <r>   -14.5454    -0.0000     2.0000 </r>
       <r>   -14.4404    -0.0000     2.0000 </r>
       <r>   -14.3354    -0.0000     2.0000 </r>
       <r>   -14.2303    -0.0000     2.0000 </r>
       <r>   -14.1253    -0.0007     1.9999 </r>
       <r>   -14.0202    -0.1062     1.9888 </r>
       <r>   -13.9152    -0.4621     1.9402 </r>
       <r>   -13.8102    10.0253     2.9933 </r>
       <r>   -13.7051    10.1418     4.0586 </r>
       <r>   -13.6001    -0.4479     4.0115 </r>
       <r>   -13.4950    -0.1092     4.0001 </r>
       <r>   -13.3900    -0.0008     4.0000 </r>
       <r>   -13.2850    -0.0000     4.0000 </r>
       <r>   -13.1799    -0.0000     4.0000 </r>
       <r>   -13.0749     0.0000     4.0000 </r>
       <r>   -12.9698     0.0000     4.0000 </r>
       <r>   -12.8648     0.0000     4.0000 </r>
       <r>   -12.7598     0.0000     4.0000 </r>
       <r>   -12.6547     0.0000     4.0000 </r>
       <r>   -12.5497     0.0000     4.0000 </r>
       <r>   -12.4446     0.0000     4.0000 </r>
       <r>   -12.3396     0.0000     4.0000 </r>
       <r>   -12.2345     0.0000     4.0000 </r>
       <r>   -12.1295    -0.0000     4.0000 </r>
       <r>   -12.0245    -0.0000     4.0000 </r>
       <r>   -11.9194    -0.0000     4.0000 </r>
       <r>   -11.8144    -0.0000     4.0000 </r>
       <r>   -11.7093    -0.0000     4.0000 </r>
       <r>   -11.6043    -0.0001     4.0000 </r>
       <r>   -11.4993    -0.0386     3.9959 </r>
       <r>   -11.3942    -0.6136     3.9315 </r>
       <r>   -11.2892     5.9932     4.5610 </r>
       <r>   -11.1841    12.8555     5.9114 </r>
       <r>   -11.0791     4.5903     6.3935 </r>
       <r>   -10.9741    13.4681     7.8082 </r>
       <r>   -10.8690     8.9191     8.7451 </r>
       <r>   -10.7640    12.0825    10.0143 </r>
       <r>   -10.6589     0.0567    10.0202 </r>
       <r>   -10.5539    -0.1904    10.0002 </r>
       <r>   -10.4488    -0.0021    10.0000 </r>
       <r>   -10.3438    -0.0203     9.9979 </r>
       <r>   -10.2388    -0.5335     9.9418 </r>
       <r>   -10.1337     3.9621    10.3580 </r>
       <r>   -10.0287    14.3859    11.8691 </r>
       <r>    -9.9236     1.6125    12.0385 </r>
       <r>    -9.8186    -0.3592    12.0008 </r>
       <r>    -9.7136    -0.0072    12.0000 </r>
       <r>    -9.6085    -0.0000    12.0000 </r>
       <r>    -9.5035    -0.0000    12.0000 </r>
       <r>    -9.3984    -0.0000    12.0000 </r>
       <r>    -9.2934    -0.0000    12.0000 </r>
       <r>    -9.1884    -0.0000    12.0000 </r>
       <r>    -9.0833    -0.0000    12.0000 </r>
       <r>    -8.9783    -0.0000    12.0000 </r>
       <r>    -8.8732    -0.0000    12.0000 </r>
       <r>    -8.7682    -0.0160    11.9983 </r>
       <r>    -8.6632    -0.4941    11.9464 </r>
       <r>    -8.5581     3.3207    12.2952 </r>
       <r>    -8.4531    14.5476    13.8233 </r>
       <r>    -8.3480     2.0455    14.0382 </r>
       <r>    -8.2430    -1.0238    13.9306 </r>
       <r>    -8.1379     6.7513    14.6398 </r>
       <r>    -8.0329    12.9067    15.9955 </r>
       <r>    -7.9279     0.2477    16.0216 </r>
       <r>    -7.8228    -0.6767    15.9505 </r>
       <r>    -7.7178     2.8355    16.2483 </r>
       <r>    -7.6127    14.2746    17.7477 </r>
       <r>    -7.5077     3.0446    18.0676 </r>
       <r>    -7.4027    17.2258    19.8770 </r>
       <r>    -7.2976    20.6128    22.0422 </r>
       <r>    -7.1926    26.7273    24.8496 </r>
       <r>    -7.0875    16.8635    26.6210 </r>
       <r>    -6.9825    25.9877    29.3508 </r>
       <r>    -6.8775    13.4773    30.7664 </r>
       <r>    -6.7724    25.0995    33.4029 </r>
       <r>    -6.6674    24.3698    35.9627 </r>
       <r>    -6.5623    35.7551    39.7185 </r>
       <r>    -6.4573    59.7599    45.9957 </r>
       <r>    -6.3523    52.4189    51.5019 </r>
       <r>    -6.2472    34.7818    55.1554 </r>
       <r>    -6.1422    51.5631    60.5716 </r>
       <r>    -6.0371    42.6919    65.0560 </r>
       <r>    -5.9321    29.0932    68.1120 </r>
       <r>    -5.8270    27.3711    70.9871 </r>
       <r>    -5.7220    33.9831    74.5567 </r>
       <r>    -5.6170    33.0210    78.0253 </r>
       <r>    -5.5119    47.7076    83.0365 </r>
       <r>    -5.4069    56.5067    88.9720 </r>
       <r>    -5.3018    83.7923    97.7737 </r>
       <r>    -5.1968    89.0421   107.1267 </r>
       <r>    -5.0918    89.1808   116.4944 </r>
       <r>    -4.9867    66.8349   123.5148 </r>
       <r>    -4.8817    73.4289   131.2278 </r>
       <r>    -4.7766    87.0260   140.3691 </r>
       <r>    -4.6716    49.8673   145.6072 </r>
       <r>    -4.5666     5.8081   146.2173 </r>
       <r>    -4.4615    13.0349   147.5865 </r>
       <r>    -4.3565     4.4663   148.0556 </r>
       <r>    -4.2514    -1.5082   147.8972 </r>
       <r>    -4.1464     8.4896   148.7890 </r>
       <r>    -4.0413    26.6912   151.5927 </r>
       <r>    -3.9363     4.6650   152.0827 </r>
       <r>    -3.8313    -0.7599   152.0028 </r>
       <r>    -3.7262    -0.0271   152.0000 </r>
       <r>    -3.6212    -0.0052   151.9995 </r>
       <r>    -3.5161    -0.3045   151.9675 </r>
       <r>    -3.4111     1.0501   152.0778 </r>
       <r>    -3.3061    14.0131   153.5497 </r>
       <r>    -3.2010     4.8565   154.0599 </r>
       <r>    -3.0960    -1.1917   153.9347 </r>
       <r>    -2.9909     5.5788   154.5207 </r>
       <r>    -2.8859    13.8840   155.9791 </r>
       <r>    -2.7809    13.7395   157.4223 </r>
       <r>    -2.6758     5.9155   158.0437 </r>
       <r>    -2.5708    -0.1000   158.0332 </r>
       <r>    -2.4657    13.1235   159.4117 </r>
       <r>    -2.3607     6.3397   160.0776 </r>
       <r>    -2.2557    12.3939   161.3795 </r>
       <r>    -2.1506     6.4269   162.0546 </r>
       <r>    -2.0456    -0.9246   161.9574 </r>
       <r>    -1.9405    10.6052   163.0714 </r>
       <r>    -1.8355    16.0996   164.7625 </r>
       <r>    -1.7304    21.7499   167.0472 </r>
       <r>    -1.6254     9.8239   168.0791 </r>
       <r>    -1.5204    -0.7503   168.0003 </r>
       <r>    -1.4153    -0.5808   167.9393 </r>
       <r>    -1.3103     9.9154   168.9808 </r>
       <r>    -1.2052    10.2396   170.0564 </r>
       <r>    -1.1002    -0.9247   169.9592 </r>
       <r>    -0.9952     1.5094   170.1178 </r>
       <r>    -0.8901    23.4766   172.5838 </r>
       <r>    -0.7851    14.2501   174.0806 </r>
       <r>    -0.6800    -0.9641   173.9794 </r>
       <r>    -0.5750    11.3867   175.1754 </r>
       <r>    -0.4700     8.1540   176.0319 </r>
       <r>    -0.3649     0.8982   176.1263 </r>
       <r>    -0.2599    13.7716   177.5729 </r>
       <r>    -0.1548     7.2915   178.3388 </r>
       <r>    -0.0498    13.8107   179.7895 </r>
       <r>     0.0553     2.4716   180.0491 </r>
       <r>     0.1603    11.9983   181.3094 </r>
       <r>     0.2653    11.0776   182.4730 </r>
       <r>     0.3704    13.6004   183.9016 </r>
       <r>     0.4754     1.2744   184.0355 </r>
       <r>     0.5805    -0.3317   184.0006 </r>
       <r>     0.6855    -0.0061   184.0000 </r>
       <r>     0.7905    -0.0000   184.0000 </r>
       <r>     0.8956    -0.0000   184.0000 </r>
       <r>     1.0006    -0.0000   184.0000 </r>
       <r>     1.1057     0.0000   184.0000 </r>
       <r>     1.2107     0.0000   184.0000 </r>
       <r>     1.3157     0.0000   184.0000 </r>
       <r>     1.4208     0.0000   184.0000 </r>
       <r>     1.5258     0.0000   184.0000 </r>
       <r>     1.6309     0.0000   184.0000 </r>
       <r>     1.7359     0.0000   184.0000 </r>
      </set>
     </set>
    </array>
   </total>
  </dos>
 </calculation>
 <structure name="finalpos" >
  <crystal>
   <varray name="basis" >
    <v>      15.00000000       0.00000000       0.00000000 </v>
    <v>       0.00000000      15.00000000       0.00000000 </v>
    <v>       0.00000000       0.00000000      15.00000000 </v>
   </varray>
   <i name="volume">   3375.00000000 </i>
   <varray name="rec_basis" >
    <v>       0.06666667       0.00000000       0.00000000 </v>
    <v>       0.00000000       0.06666667       0.00000000 </v>
    <v>       0.00000000       0.00000000       0.06666667 </v>
   </varray>
  </crystal>
  <varray name="positions" >
   <v>       0.29173467       0.42203200       0.55388200 </v>
   <v>       0.37600267       0.54649600       0.49139800 </v>
   <v>       0.39056333       0.29064000       0.56389800 </v>
   <v>       0.53746067       0.50305000       0.48495400 </v>
   <v>       0.54590000       0.34505400       0.52871933 </v>
   <v>       0.44318533       0.43766667       0.61839400 </v>
   <v>       0.41963333       0.40119333       0.44443533 </v>
   <v>       0.22472133       0.56776467       0.54582733 </v>
   <v>       0.33816133       0.54485933       0.65617467 </v>
   <v>       0.35101533       0.68530667       0.56784667 </v>
   <v>       0.48391667       0.66168533       0.47317667 </v>
   <v>       0.63089067       0.48073000       0.60730600 </v>
   <v>       0.48192133       0.59681133       0.61828067 </v>
   <v>       0.74388667       0.49777400       0.64828533 </v>
   <v>       0.82118000       0.50400267       0.65075067 </v>
  </varray>
 </structure>
</modeling>
