<?xml version="1.0" encoding="ISO-8859-1"?>
<modeling>
 <generator>
  <i name="program" type="string">vasp </i>
  <i name="version" type="string">5.4.4.18Apr17-6-g9f103f2a35  </i>
  <i name="subversion" type="string">(build May 08 2019 13:49:07) complex            parallel </i>
  <i name="platform" type="string">LinuxIFC </i>
  <i name="date" type="string">2019 11 13 </i>
  <i name="time" type="string">14:02:58 </i>
 </generator>
 <incar>
  <i type="string" name="SYSTEM"> CuCO</i>
  <i type="int" name="ISTART">     0</i>
  <i type="string" name="PREC">accurate</i>
  <i type="string" name="ALGO"> Fast</i>
  <i type="int" name="ISPIN">     2</i>
  <i type="int" name="INIWAV">     1</i>
  <i type="int" name="NELM">   300</i>
  <i type="int" name="NELMIN">     3</i>
  <i type="int" name="IBRION">    -1</i>
  <i name="EDIFF">      0.00000010</i>
  <i name="EDIFFG">     -0.00100000</i>
  <i type="int" name="NSW">     0</i>
  <i type="int" name="ISYM">     0</i>
  <i name="ENCUT">    600.00000000</i>
  <i name="NUPDOWN">      1.00000000</i>
  <i type="logical" name="LREAL"> F  </i>
  <i type="int" name="ISMEAR">     1</i>
  <i name="SIGMA">      0.10000000</i>
  <i name="KSPACING">      0.50000000</i>
  <i type="logical" name="KGAMMA"> F  </i>
  <i type="logical" name="LWAVE"> F  </i>
  <i type="logical" name="LCHARG"> F  </i>
  <v type="int" name="KPOINT_BSE">    -1     0     0     0</v>
  <i type="int" name="NELM">   300</i>
  <i type="string" name="GGA"> PE</i>
 </incar>
 <structure name="primitive_cell" >
  <crystal>
   <varray name="basis" >
    <v>      15.00000000       0.00000000       0.00000000 </v>
    <v>       0.00000000      15.00000000       0.00000000 </v>
    <v>       0.00000000       0.00000000      15.00000000 </v>
   </varray>
   <i name="volume">   3375.00000000 </i>
   <varray name="rec_basis" >
    <v>       0.06666667       0.00000000       0.00000000 </v>
    <v>       0.00000000       0.06666667       0.00000000 </v>
    <v>       0.00000000       0.00000000       0.06666667 </v>
   </varray>
  </crystal>
  <varray name="positions" >
   <v>       0.29291067       0.42117533      -0.44564800 </v>
   <v>       0.22797733      -0.43037200      -0.45540133 </v>
   <v>       0.33494867      -0.45603333      -0.34722000 </v>
   <v>       0.39550667       0.29282067      -0.43562467 </v>
   <v>       0.44664200       0.43496733      -0.38623133 </v>
   <v>       0.41962467       0.39893267       0.44945600 </v>
   <v>       0.37607600      -0.44981867       0.48894800 </v>
   <v>       0.48626133      -0.40665067      -0.38206667 </v>
   <v>      -0.46463933      -0.49311333       0.48141400 </v>
   <v>      -0.45062133       0.34585200      -0.47168733 </v>
   <v>       0.35329467      -0.31715333      -0.43013200 </v>
   <v>       0.48713333      -0.33105333       0.47789667 </v>
   <v>      -0.38593133       0.47828467      -0.38602133 </v>
   <v>      -0.26554000       0.49241400      -0.35361000 </v>
   <v>      -0.18793333       0.48997667      -0.36128400 </v>
  </varray>
 </structure>
 <varray name="primitive_index" >
  <v type="int" >        1 </v>
  <v type="int" >        8 </v>
  <v type="int" >        9 </v>
  <v type="int" >        3 </v>
  <v type="int" >        6 </v>
  <v type="int" >        7 </v>
  <v type="int" >        2 </v>
  <v type="int" >       13 </v>
  <v type="int" >        4 </v>
  <v type="int" >        5 </v>
  <v type="int" >       10 </v>
  <v type="int" >       11 </v>
  <v type="int" >       12 </v>
  <v type="int" >       14 </v>
  <v type="int" >       15 </v>
 </varray>
 <kpoints>
  <generation param="Monkhorst-Pack">
   <v type="int" name="divisions">       1        1        1 </v>
   <v name="usershift">      0.00000000       0.00000000       0.00000000 </v>
   <v name="genvec1">      1.00000000       0.00000000       0.00000000 </v>
   <v name="genvec2">      0.00000000       1.00000000       0.00000000 </v>
   <v name="genvec3">      0.00000000       0.00000000       1.00000000 </v>
   <v name="shift">      0.00000000       0.00000000       0.00000000 </v>
  </generation>
  <varray name="kpointlist" >
   <v>       0.00000000       0.00000000       0.00000000 </v>
  </varray>
  <varray name="weights" >
   <v>       1.00000000 </v>
  </varray>
 </kpoints>
 <parameters>
  <separator name="general" >
   <i type="string" name="SYSTEM">CuCO</i>
   <i type="logical" name="LCOMPAT"> F  </i>
  </separator>
  <separator name="electronic" >
   <i type="string" name="PREC">accura</i>
   <i name="ENMAX">    600.00000000</i>
   <i name="ENAUG">    644.87300000</i>
   <i name="EDIFF">      0.00000010</i>
   <i type="int" name="IALGO">    68</i>
   <i type="int" name="IWAVPR">    10</i>
   <i type="int" name="NBANDS">    92</i>
   <i name="NELECT">    153.00000000</i>
   <i type="int" name="TURBO">     0</i>
   <i type="int" name="IRESTART">     0</i>
   <i type="int" name="NREBOOT">     0</i>
   <i type="int" name="NMIN">     0</i>
   <i name="EREF">      0.00000000</i>
   <separator name="electronic smearing" >
    <i type="int" name="ISMEAR">     1</i>
    <i name="SIGMA">      0.10000000</i>
    <i name="KSPACING">      0.50000000</i>
    <i type="logical" name="KGAMMA"> F  </i>
   </separator>
   <separator name="electronic projectors" >
    <i type="logical" name="LREAL"> F  </i>
    <v name="ROPT">      0.00000000      0.00000000      0.00000000</v>
    <i type="int" name="LMAXPAW">  -100</i>
    <i type="int" name="LMAXMIX">     2</i>
    <i type="logical" name="NLSPLINE"> F  </i>
   </separator>
   <separator name="electronic startup" >
    <i type="int" name="ISTART">     0</i>
    <i type="int" name="ICHARG">     2</i>
    <i type="int" name="INIWAV">     1</i>
   </separator>
   <separator name="electronic spin" >
    <i type="int" name="ISPIN">     2</i>
    <i type="logical" name="LNONCOLLINEAR"> F  </i>
    <v name="MAGMOM">      0.06666667      0.06666667      0.06666667      0.06666667      0.06666667      0.06666667      0.06666667      0.06666667      0.06666667      0.06666667      0.06666667      0.06666667      0.06666667      0.06666667      0.06666667</v>
    <i name="NUPDOWN">      1.00000000</i>
    <i type="logical" name="LSORBIT"> F  </i>
    <v name="SAXIS">      0.00000000      0.00000000      1.00000000</v>
    <i type="logical" name="LSPIRAL"> F  </i>
    <v name="QSPIRAL">      0.00000000      0.00000000      0.00000000</v>
    <i type="logical" name="LZEROZ"> F  </i>
   </separator>
   <separator name="electronic exchange-correlation" >
    <i type="logical" name="LASPH"> F  </i>
    <i type="logical" name="LMETAGGA"> F  </i>
   </separator>
   <separator name="electronic convergence" >
    <i type="int" name="NELM">   300</i>
    <i type="int" name="NELMDL">    -5</i>
    <i type="int" name="NELMIN">     3</i>
    <i name="ENINI">    600.00000000</i>
    <separator name="electronic convergence detail" >
     <i type="logical" name="LDIAG"> T  </i>
     <i type="logical" name="LSUBROT"> F  </i>
     <i name="WEIMIN">      0.00000000</i>
     <i name="EBREAK">      0.00000000</i>
     <i name="DEPER">      0.30000000</i>
     <i type="int" name="NRMM">     4</i>
     <i name="TIME">      0.40000000</i>
    </separator>
   </separator>
   <separator name="electronic mixer" >
    <i name="AMIX">      0.40000000</i>
    <i name="BMIX">      1.00000000</i>
    <i name="AMIN">      0.10000000</i>
    <i name="AMIX_MAG">      1.60000000</i>
    <i name="BMIX_MAG">      1.00000000</i>
    <separator name="electronic mixer details" >
     <i type="int" name="IMIX">     4</i>
     <i type="logical" name="MIXFIRST"> F  </i>
     <i type="int" name="MAXMIX">   -45</i>
     <i name="WC">    100.00000000</i>
     <i type="int" name="INIMIX">     1</i>
     <i type="int" name="MIXPRE">     1</i>
     <i type="int" name="MREMOVE">     5</i>
    </separator>
   </separator>
   <separator name="electronic dipolcorrection" >
    <i type="logical" name="LDIPOL"> F  </i>
    <i type="logical" name="LMONO"> F  </i>
    <i type="int" name="IDIPOL">     0</i>
    <i name="EPSILON">      1.00000000</i>
    <v name="DIPOL">   -100.00000000   -100.00000000   -100.00000000</v>
    <i name="EFIELD">      0.00000000</i>
   </separator>
  </separator>
  <separator name="grids" >
   <i type="int" name="NGX">   120</i>
   <i type="int" name="NGY">   120</i>
   <i type="int" name="NGZ">   120</i>
   <i type="int" name="NGXF">   240</i>
   <i type="int" name="NGYF">   240</i>
   <i type="int" name="NGZF">   240</i>
   <i type="logical" name="ADDGRID"> F  </i>
  </separator>
  <separator name="ionic" >
   <i type="int" name="NSW">     0</i>
   <i type="int" name="IBRION">    -1</i>
   <i type="int" name="MDALGO">     0</i>
   <i type="int" name="ISIF">     2</i>
   <i name="PSTRESS">      0.00000000</i>
   <i name="EDIFFG">     -0.00100000</i>
   <i type="int" name="NFREE">     0</i>
   <i name="POTIM">      0.50000000</i>
   <i name="SMASS">     -3.00000000</i>
   <i name="SCALEE">      1.00000000</i>
  </separator>
  <separator name="ionic md" >
   <i name="TEBEG">      0.00010000</i>
   <i name="TEEND">      0.00010000</i>
   <i type="int" name="NBLOCK">     1</i>
   <i type="int" name="KBLOCK">     1</i>
   <i type="int" name="NPACO">   256</i>
   <i name="APACO">     16.00000000</i>
  </separator>
  <separator name="symmetry" >
   <i type="int" name="ISYM">     0</i>
   <i name="SYMPREC">      0.00001000</i>
  </separator>
  <separator name="dos" >
   <i type="int" name="LORBIT">     0</i>
   <v name="RWIGS">     -1.00000000     -1.00000000     -1.00000000</v>
   <i type="int" name="NEDOS">   301</i>
   <i name="EMIN">     10.00000000</i>
   <i name="EMAX">    -10.00000000</i>
   <i name="EFERMI">      0.00000000</i>
  </separator>
  <separator name="writing" >
   <i type="int" name="NWRITE">     2</i>
   <i type="logical" name="LWAVE"> F  </i>
   <i type="logical" name="LDOWNSAMPLE"> F  </i>
   <i type="logical" name="LCHARG"> F  </i>
   <i type="logical" name="LPARD"> F  </i>
   <i type="logical" name="LVTOT"> F  </i>
   <i type="logical" name="LVHAR"> F  </i>
   <i type="logical" name="LELF"> F  </i>
   <i type="logical" name="LOPTICS"> F  </i>
   <v name="STM">      0.00000000      0.00000000      0.00000000      0.00000000      0.00000000      0.00000000      0.00000000</v>
  </separator>
  <separator name="performance" >
   <i type="int" name="NPAR">     4</i>
   <i type="int" name="NSIM">     4</i>
   <i type="int" name="NBLK">    -1</i>
   <i type="logical" name="LPLANE"> T  </i>
   <i type="logical" name="LSCALAPACK"> T  </i>
   <i type="logical" name="LSCAAWARE"> F  </i>
   <i type="logical" name="LSCALU"> F  </i>
   <i type="logical" name="LASYNC"> F  </i>
   <i type="logical" name="LORBITALREAL"> F  </i>
  </separator>
  <separator name="miscellaneous" >
   <i type="int" name="IDIOT">     3</i>
   <i type="int" name="ISPECIAL">     0</i>
   <i type="logical" name="LMUSIC"> F  </i>
   <v name="POMASS">     63.54600000     12.01100000     16.00000000</v>
   <v name="DARWINR">      0.00000000      0.00000000      0.00000000</v>
   <v name="DARWINV">      1.00000000      1.00000000      1.00000000</v>
   <i type="logical" name="LCORR"> T  </i>
  </separator>
  <i type="logical" name="GGA_COMPAT"> T  </i>
  <i type="logical" name="LBERRY"> F  </i>
  <i type="int" name="ICORELEVEL">     0</i>
  <i type="logical" name="LDAU"> F  </i>
  <i type="int" name="I_CONSTRAINED_M">     0</i>
  <separator name="electronic exchange-correlation" >
   <i type="string" name="GGA">PE</i>
   <i type="int" name="VOSKOWN">     0</i>
   <i type="logical" name="LHFCALC"> F  </i>
   <i type="string" name="PRECFOCK"></i>
   <i type="logical" name="LSYMGRAD"> F  </i>
   <i type="logical" name="LHFONE"> F  </i>
   <i type="logical" name="LRHFCALC"> F  </i>
   <i type="logical" name="LTHOMAS"> F  </i>
   <i type="logical" name="LMODELHF"> F  </i>
   <i name="ENCUT4O">     -1.00000000</i>
   <i type="int" name="EXXOEP">     0</i>
   <i type="int" name="FOURORBIT">     0</i>
   <i name="AEXX">      0.00000000</i>
   <i name="HFALPHA">      0.00000000</i>
   <i name="MCALPHA">      0.00000000</i>
   <i name="ALDAX">      1.00000000</i>
   <i name="AGGAX">      1.00000000</i>
   <i name="ALDAC">      1.00000000</i>
   <i name="AGGAC">      1.00000000</i>
   <i type="int" name="NKREDX">     1</i>
   <i type="int" name="NKREDY">     1</i>
   <i type="int" name="NKREDZ">     1</i>
   <i type="logical" name="SHIFTRED"> F  </i>
   <i type="logical" name="ODDONLY"> F  </i>
   <i type="logical" name="EVENONLY"> F  </i>
   <i type="int" name="LMAXFOCK">     0</i>
   <i type="int" name="NMAXFOCKAE">     0</i>
   <i type="logical" name="LFOCKAEDFT"> F  </i>
   <i name="HFSCREEN">      0.00000000</i>
   <i name="HFSCREENC">      0.00000000</i>
   <i type="int" name="NBANDSGWLOW">     0</i>
  </separator>
  <separator name="vdW DFT" >
   <i type="logical" name="LUSE_VDW"> F  </i>
   <i name="Zab_VDW">     -0.84910000</i>
   <i name="PARAM1">      0.12340000</i>
   <i name="PARAM2">      1.00000000</i>
   <i name="PARAM3">      0.00000000</i>
  </separator>
  <separator name="model GW" >
   <i type="int" name="MODEL_GW">     0</i>
   <i name="MODEL_EPS0">    135.00000000</i>
   <i name="MODEL_ALPHA">      1.00000000</i>
  </separator>
  <separator name="linear response parameters" >
   <i type="logical" name="LEPSILON"> F  </i>
   <i type="logical" name="LRPA"> F  </i>
   <i type="logical" name="LNABLA"> F  </i>
   <i type="logical" name="LVEL"> F  </i>
   <i type="int" name="KINTER">     0</i>
   <i name="CSHIFT">      0.10000000</i>
   <i name="OMEGAMAX">     -1.00000000</i>
   <i name="DEG_THRESHOLD">      0.00200000</i>
   <i name="RTIME">     -0.10000000</i>
   <i name="WPLASMAI">      0.00000000</i>
   <v name="DFIELD">      0.00000000      0.00000000      0.00000000</v>
   <v name="WPLASMA">      0.00000000      0.00000000      0.00000000      0.00000000      0.00000000      0.00000000      0.00000000      0.00000000      0.00000000</v>
  </separator>
  <separator name="orbital magnetization" >
   <i type="logical" name="NUCIND"> F  </i>
   <v name="MAGPOS">      0.00000000      0.00000000      0.00000000</v>
   <i type="logical" name="LNICSALL"> T  </i>
   <i type="logical" name="ORBITALMAG"> F  </i>
   <i type="logical" name="LMAGBLOCH"> F  </i>
   <i type="logical" name="LCHIMAG"> F  </i>
   <i type="logical" name="LGAUGE"> T  </i>
   <i type="int" name="MAGATOM">     0</i>
   <v name="MAGDIPOL">      0.00000000      0.00000000      0.00000000</v>
   <v name="AVECCONST">      0.00000000      0.00000000      0.00000000</v>
  </separator>
  <separator name="response functions" >
   <i type="logical" name="LADDER"> F  </i>
   <i type="logical" name="LRPAFORCE"> F  </i>
   <i type="logical" name="LFXC"> F  </i>
   <i type="logical" name="LHARTREE"> T  </i>
   <i type="int" name="IBSE">     0</i>
   <v type="int" name="KPOINT">    -1     0     0     0</v>
   <i type="logical" name="LTCTE"> F  </i>
   <i type="logical" name="LTETE"> F  </i>
   <i type="logical" name="LTRIPLET"> F  </i>
   <i type="logical" name="LFXCEPS"> F  </i>
   <i type="logical" name="LFXHEG"> F  </i>
   <i type="int" name="NATURALO">     2</i>
   <i type="logical" name="L2ORDER"> F  </i>
   <i type="logical" name="LMP2LT"> F  </i>
   <i type="logical" name="LUSEW"> F  </i>
   <i name="ENCUTGW">     -2.00000000</i>
   <i name="ENCUTGWSOFT">     -2.00000000</i>
   <i name="ENCUTLF">     -1.00000000</i>
   <i type="int" name="LMAXMP2">    -1</i>
   <i name="SCISSOR">      0.00000000</i>
   <i type="int" name="NOMEGA">     0</i>
   <i type="int" name="NOMEGAR">     0</i>
   <i type="int" name="NBANDSGW">    -1</i>
   <i type="int" name="NBANDSO">    -1</i>
   <i type="int" name="NBANDSV">    -1</i>
   <i type="int" name="NELM">   300</i>
   <i type="int" name="NELMHF">     1</i>
   <i type="int" name="DIM">     3</i>
   <i type="int" name="ANTIRES">     0</i>
   <i name="OMEGAMAX">    -30.00000000</i>
   <i name="OMEGAMIN">    -30.00000000</i>
   <i name="OMEGATL">   -200.00000000</i>
   <i type="int" name="OMEGAGRID">   140</i>
   <i name="CSHIFT">     -0.10000000</i>
   <i type="logical" name="SELFENERGY"> F  </i>
   <i type="logical" name="LSPECTRAL"> F  </i>
   <i type="logical" name="LSPECTRALGW"> F  </i>
   <i type="logical" name="LSINGLES"> F  </i>
   <i type="logical" name="LFERMIGW"> F  </i>
   <i type="logical" name="ODDONLYGW"> F  </i>
   <i type="logical" name="EVENONLYGW"> F  </i>
   <i type="int" name="NKREDLFX">     1</i>
   <i type="int" name="NKREDLFY">     1</i>
   <i type="int" name="NKREDLFZ">     1</i>
   <i type="int" name="MAXMEM">  2800</i>
   <i type="int" name="TELESCOPE">     0</i>
   <i type="int" name="TAUPAR">     1</i>
   <i type="int" name="OMEGAPAR">    -1</i>
   <i name="LAMBDA">      1.00000000</i>
  </separator>
  <separator name="External order field" >
   <i name="OFIELD_KAPPA">      0.00000000</i>
   <v name="OFIELD_K">      0.00000000      0.00000000      0.00000000</v>
   <i name="OFIELD_Q6_NEAR">      0.00000000</i>
   <i name="OFIELD_Q6_FAR">      0.00000000</i>
   <i name="OFIELD_A">      0.00000000</i>
  </separator>
 </parameters>
 <atominfo>
  <atoms>      15 </atoms>
  <types>       3 </types>
  <array name="atoms" >
   <dimension dim="1">ion</dimension>
   <field type="string">element</field>
   <field type="int">atomtype</field>
   <set>
    <rc><c>Cu</c><c>   1</c></rc>
    <rc><c>Cu</c><c>   1</c></rc>
    <rc><c>Cu</c><c>   1</c></rc>
    <rc><c>Cu</c><c>   1</c></rc>
    <rc><c>Cu</c><c>   1</c></rc>
    <rc><c>Cu</c><c>   1</c></rc>
    <rc><c>Cu</c><c>   1</c></rc>
    <rc><c>Cu</c><c>   1</c></rc>
    <rc><c>Cu</c><c>   1</c></rc>
    <rc><c>Cu</c><c>   1</c></rc>
    <rc><c>Cu</c><c>   1</c></rc>
    <rc><c>Cu</c><c>   1</c></rc>
    <rc><c>Cu</c><c>   1</c></rc>
    <rc><c>C </c><c>   2</c></rc>
    <rc><c>O </c><c>   3</c></rc>
   </set>
  </array>
  <array name="atomtypes" >
   <dimension dim="1">type</dimension>
   <field type="int">atomspertype</field>
   <field type="string">element</field>
   <field>mass</field>
   <field>valence</field>
   <field type="string">pseudopotential</field>
   <set>
    <rc><c>  13</c><c>Cu</c><c>     63.54600000</c><c>     11.00000000</c><c>  PAW_PBE Cu 22Jun2005                  </c></rc>
    <rc><c>   1</c><c>C </c><c>     12.01100000</c><c>      4.00000000</c><c>  PAW_PBE C 08Apr2002                   </c></rc>
    <rc><c>   1</c><c>O </c><c>     16.00000000</c><c>      6.00000000</c><c>  PAW_PBE O 08Apr2002                   </c></rc>
   </set>
  </array>
 </atominfo>
 <structure name="initialpos" >
  <crystal>
   <varray name="basis" >
    <v>      15.00000000       0.00000000       0.00000000 </v>
    <v>       0.00000000      15.00000000       0.00000000 </v>
    <v>       0.00000000       0.00000000      15.00000000 </v>
   </varray>
   <i name="volume">   3375.00000000 </i>
   <varray name="rec_basis" >
    <v>       0.06666667       0.00000000       0.00000000 </v>
    <v>       0.00000000       0.06666667       0.00000000 </v>
    <v>       0.00000000       0.00000000       0.06666667 </v>
   </varray>
  </crystal>
  <varray name="positions" >
   <v>       0.29291067       0.42117533       0.55435200 </v>
   <v>       0.37607600       0.55018133       0.48894800 </v>
   <v>       0.39550667       0.29282067       0.56437533 </v>
   <v>       0.53536067       0.50688667       0.48141400 </v>
   <v>       0.54937867       0.34585200       0.52831267 </v>
   <v>       0.44664200       0.43496733       0.61376867 </v>
   <v>       0.41962467       0.39893267       0.44945600 </v>
   <v>       0.22797733       0.56962800       0.54459867 </v>
   <v>       0.33494867       0.54396667       0.65278000 </v>
   <v>       0.35329467       0.68284667       0.56986800 </v>
   <v>       0.48713333       0.66894667       0.47789667 </v>
   <v>       0.61406867       0.47828467       0.61397867 </v>
   <v>       0.48626133       0.59334933       0.61793333 </v>
   <v>       0.73446000       0.49241400       0.64639000 </v>
   <v>       0.81206667       0.48997667       0.63871600 </v>
  </varray>
 </structure>
 <calculation>
  <scstep>
   <time name="dav">    7.61    7.61</time>
   <time name="total">    8.80    8.80</time>
   <energy>
    <i name="alphaZ">     41.16232785 </i>
    <i name="ewald">  16609.22985705 </i>
    <i name="hartreedc"> -33630.08669189 </i>
    <i name="XCdc">    623.61894424 </i>
    <i name="pawpsdc">  16421.75059358 </i>
    <i name="pawaedc"> -17800.06104309 </i>
    <i name="eentropy">     -0.00138319 </i>
    <i name="bandstr">    190.27090758 </i>
    <i name="atom">  18662.21924712 </i>
    <i name="e_fr_energy">   1118.10275923 </i>
    <i name="e_wo_entrp">   1118.10414242 </i>
    <i name="e_0_energy">   1118.10322029 </i>
   </energy>
  </scstep>
  <scstep>
   <time name="dav">    7.44    7.45</time>
   <time name="total">    7.44    7.45</time>
   <energy>
    <i name="e_fr_energy">     86.53752888 </i>
    <i name="e_wo_entrp">     86.53172546 </i>
    <i name="e_0_energy">     86.53559441 </i>
   </energy>
  </scstep>
  <scstep>
   <time name="dav">   11.57   11.58</time>
   <time name="total">   11.58   11.58</time>
   <energy>
    <i name="e_fr_energy">    -33.49568751 </i>
    <i name="e_wo_entrp">    -33.50761947 </i>
    <i name="e_0_energy">    -33.49966483 </i>
   </energy>
  </scstep>
  <scstep>
   <time name="dav">   10.17   10.18</time>
   <time name="total">   10.17   10.18</time>
   <energy>
    <i name="e_fr_energy">    -55.81635238 </i>
    <i name="e_wo_entrp">    -55.82631048 </i>
    <i name="e_0_energy">    -55.81967175 </i>
   </energy>
  </scstep>
  <scstep>
   <time name="dav">   12.17   12.17</time>
   <time name="total">   12.86   12.87</time>
   <energy>
    <i name="e_fr_energy">    -57.49051357 </i>
    <i name="e_wo_entrp">    -57.50092506 </i>
    <i name="e_0_energy">    -57.49398407 </i>
   </energy>
  </scstep>
  <scstep>
   <time name="diag">    1.10    1.10</time>
   <time name="diis">    6.72    6.73</time>
   <time name="orth">    0.06    0.06</time>
   <time name="total">    9.71    9.72</time>
   <energy>
    <i name="e_fr_energy">    -56.42621197 </i>
    <i name="e_wo_entrp">    -56.43554533 </i>
    <i name="e_0_energy">    -56.42932309 </i>
   </energy>
  </scstep>
  <scstep>
   <time name="diag">    1.09    1.09</time>
   <time name="diis">    6.80    6.80</time>
   <time name="orth">    0.06    0.06</time>
   <time name="total">    9.79    9.80</time>
   <energy>
    <i name="e_fr_energy">    -49.40972196 </i>
    <i name="e_wo_entrp">    -49.41861508 </i>
    <i name="e_0_energy">    -49.41268634 </i>
   </energy>
  </scstep>
  <scstep>
   <time name="diag">    1.10    1.10</time>
   <time name="diis">    6.88    6.88</time>
   <time name="orth">    0.06    0.06</time>
   <time name="total">    9.88    9.89</time>
   <energy>
    <i name="e_fr_energy">    -49.15184218 </i>
    <i name="e_wo_entrp">    -49.16084548 </i>
    <i name="e_0_energy">    -49.15484328 </i>
   </energy>
  </scstep>
  <scstep>
   <time name="diag">    1.10    1.10</time>
   <time name="diis">    6.78    6.79</time>
   <time name="orth">    0.06    0.06</time>
   <time name="total">    9.79    9.79</time>
   <energy>
    <i name="e_fr_energy">    -49.12058194 </i>
    <i name="e_wo_entrp">    -49.12950467 </i>
    <i name="e_0_energy">    -49.12355618 </i>
   </energy>
  </scstep>
  <scstep>
   <time name="diag">    1.10    1.10</time>
   <time name="diis">    7.09    7.09</time>
   <time name="orth">    0.06    0.06</time>
   <time name="total">   10.09   10.09</time>
   <energy>
    <i name="e_fr_energy">    -49.06430963 </i>
    <i name="e_wo_entrp">    -49.07339908 </i>
    <i name="e_0_energy">    -49.06733945 </i>
   </energy>
  </scstep>
  <scstep>
   <time name="diag">    1.09    1.09</time>
   <time name="diis">    6.74    6.74</time>
   <time name="orth">    0.06    0.06</time>
   <time name="total">    9.74    9.74</time>
   <energy>
    <i name="e_fr_energy">    -49.05611362 </i>
    <i name="e_wo_entrp">    -49.06509084 </i>
    <i name="e_0_energy">    -49.05910603 </i>
   </energy>
  </scstep>
  <scstep>
   <time name="diag">    1.10    1.10</time>
   <time name="diis">    7.09    7.12</time>
   <time name="orth">    0.06    0.06</time>
   <time name="total">   10.09   10.13</time>
   <energy>
    <i name="e_fr_energy">    -49.05325188 </i>
    <i name="e_wo_entrp">    -49.06229803 </i>
    <i name="e_0_energy">    -49.05626726 </i>
   </energy>
  </scstep>
  <scstep>
   <time name="diag">    1.10    1.10</time>
   <time name="diis">    7.26    7.26</time>
   <time name="orth">    0.06    0.06</time>
   <time name="total">   10.26   10.27</time>
   <energy>
    <i name="e_fr_energy">    -49.05247016 </i>
    <i name="e_wo_entrp">    -49.06149930 </i>
    <i name="e_0_energy">    -49.05547987 </i>
   </energy>
  </scstep>
  <scstep>
   <time name="diag">    1.10    1.10</time>
   <time name="diis">    7.25    7.26</time>
   <time name="orth">    0.06    0.06</time>
   <time name="total">   10.26   10.26</time>
   <energy>
    <i name="e_fr_energy">    -49.05363727 </i>
    <i name="e_wo_entrp">    -49.06268100 </i>
    <i name="e_0_energy">    -49.05665185 </i>
   </energy>
  </scstep>
  <scstep>
   <time name="diag">    1.10    1.10</time>
   <time name="diis">    6.68    6.68</time>
   <time name="orth">    0.06    0.06</time>
   <time name="total">    9.69    9.69</time>
   <energy>
    <i name="e_fr_energy">    -49.05473189 </i>
    <i name="e_wo_entrp">    -49.06376934 </i>
    <i name="e_0_energy">    -49.05774438 </i>
   </energy>
  </scstep>
  <scstep>
   <time name="diag">    1.10    1.10</time>
   <time name="diis">    6.44    6.44</time>
   <time name="orth">    0.06    0.06</time>
   <time name="total">    9.45    9.45</time>
   <energy>
    <i name="e_fr_energy">    -49.05600829 </i>
    <i name="e_wo_entrp">    -49.06503529 </i>
    <i name="e_0_energy">    -49.05901729 </i>
   </energy>
  </scstep>
  <scstep>
   <time name="diag">    1.10    1.10</time>
   <time name="diis">    6.81    6.81</time>
   <time name="orth">    0.06    0.06</time>
   <time name="total">    9.82    9.82</time>
   <energy>
    <i name="e_fr_energy">    -49.05780591 </i>
    <i name="e_wo_entrp">    -49.06683030 </i>
    <i name="e_0_energy">    -49.06081404 </i>
   </energy>
  </scstep>
  <scstep>
   <time name="diag">    1.10    1.10</time>
   <time name="diis">    6.74    6.74</time>
   <time name="orth">    0.06    0.06</time>
   <time name="total">    9.75    9.75</time>
   <energy>
    <i name="e_fr_energy">    -49.05867195 </i>
    <i name="e_wo_entrp">    -49.06769744 </i>
    <i name="e_0_energy">    -49.06168045 </i>
   </energy>
  </scstep>
  <scstep>
   <time name="diag">    1.10    1.10</time>
   <time name="diis">    7.29    7.29</time>
   <time name="orth">    0.06    0.06</time>
   <time name="total">   10.31   10.31</time>
   <energy>
    <i name="e_fr_energy">    -49.05932768 </i>
    <i name="e_wo_entrp">    -49.06835448 </i>
    <i name="e_0_energy">    -49.06233662 </i>
   </energy>
  </scstep>
  <scstep>
   <time name="diag">    1.10    1.10</time>
   <time name="diis">    6.62    6.63</time>
   <time name="orth">    0.06    0.06</time>
   <time name="total">    9.64    9.65</time>
   <energy>
    <i name="e_fr_energy">    -49.05995031 </i>
    <i name="e_wo_entrp">    -49.06897676 </i>
    <i name="e_0_energy">    -49.06295913 </i>
   </energy>
  </scstep>
  <scstep>
   <time name="diag">    1.10    1.10</time>
   <time name="diis">    7.09    7.09</time>
   <time name="orth">    0.06    0.06</time>
   <time name="total">   10.10   10.11</time>
   <energy>
    <i name="e_fr_energy">    -49.06034345 </i>
    <i name="e_wo_entrp">    -49.06937055 </i>
    <i name="e_0_energy">    -49.06335248 </i>
   </energy>
  </scstep>
  <scstep>
   <time name="diag">    1.10    1.10</time>
   <time name="diis">    6.53    6.54</time>
   <time name="orth">    0.06    0.06</time>
   <time name="total">    9.55    9.56</time>
   <energy>
    <i name="e_fr_energy">    -49.06062530 </i>
    <i name="e_wo_entrp">    -49.06965155 </i>
    <i name="e_0_energy">    -49.06363405 </i>
   </energy>
  </scstep>
  <scstep>
   <time name="diag">    1.10    1.10</time>
   <time name="diis">    6.68    6.68</time>
   <time name="orth">    0.06    0.06</time>
   <time name="total">    9.70    9.70</time>
   <energy>
    <i name="e_fr_energy">    -49.06076168 </i>
    <i name="e_wo_entrp">    -49.06978817 </i>
    <i name="e_0_energy">    -49.06377051 </i>
   </energy>
  </scstep>
  <scstep>
   <time name="diag">    1.10    1.10</time>
   <time name="diis">    6.79    6.80</time>
   <time name="orth">    0.06    0.06</time>
   <time name="total">    9.82    9.82</time>
   <energy>
    <i name="e_fr_energy">    -49.06086067 </i>
    <i name="e_wo_entrp">    -49.06988697 </i>
    <i name="e_0_energy">    -49.06386944 </i>
   </energy>
  </scstep>
  <scstep>
   <time name="diag">    1.10    1.10</time>
   <time name="diis">    6.51    6.52</time>
   <time name="orth">    0.06    0.06</time>
   <time name="total">    9.54    9.54</time>
   <energy>
    <i name="e_fr_energy">    -49.06092860 </i>
    <i name="e_wo_entrp">    -49.06995482 </i>
    <i name="e_0_energy">    -49.06393734 </i>
   </energy>
  </scstep>
  <scstep>
   <time name="diag">    1.10    1.10</time>
   <time name="diis">    6.38    6.39</time>
   <time name="orth">    0.06    0.06</time>
   <time name="total">    9.41    9.42</time>
   <energy>
    <i name="e_fr_energy">    -49.06096327 </i>
    <i name="e_wo_entrp">    -49.06998963 </i>
    <i name="e_0_energy">    -49.06397206 </i>
   </energy>
  </scstep>
  <scstep>
   <time name="diag">    1.10    1.10</time>
   <time name="diis">    4.75    4.76</time>
   <time name="orth">    0.06    0.06</time>
   <time name="total">    7.78    7.79</time>
   <energy>
    <i name="e_fr_energy">    -49.06097712 </i>
    <i name="e_wo_entrp">    -49.07000350 </i>
    <i name="e_0_energy">    -49.06398591 </i>
   </energy>
  </scstep>
  <scstep>
   <time name="diag">    1.10    1.10</time>
   <time name="diis">    4.28    4.28</time>
   <time name="orth">    0.06    0.06</time>
   <time name="total">    7.31    7.31</time>
   <energy>
    <i name="e_fr_energy">    -49.06098401 </i>
    <i name="e_wo_entrp">    -49.07001037 </i>
    <i name="e_0_energy">    -49.06399279 </i>
   </energy>
  </scstep>
  <scstep>
   <time name="diag">    1.10    1.10</time>
   <time name="diis">    4.64    4.64</time>
   <time name="orth">    0.06    0.06</time>
   <time name="total">    7.67    7.68</time>
   <energy>
    <i name="e_fr_energy">    -49.06098669 </i>
    <i name="e_wo_entrp">    -49.07001298 </i>
    <i name="e_0_energy">    -49.06399545 </i>
   </energy>
  </scstep>
  <scstep>
   <time name="diag">    1.10    1.10</time>
   <time name="diis">    4.62    4.63</time>
   <time name="orth">    0.06    0.06</time>
   <time name="total">    7.67    7.68</time>
   <energy>
    <i name="e_fr_energy">    -49.06098803 </i>
    <i name="e_wo_entrp">    -49.07001427 </i>
    <i name="e_0_energy">    -49.06399678 </i>
   </energy>
  </scstep>
  <scstep>
   <time name="diag">    1.10    1.10</time>
   <time name="diis">    4.37    4.37</time>
   <time name="orth">    0.06    0.06</time>
   <time name="total">    7.42    7.42</time>
   <energy>
    <i name="e_fr_energy">    -49.06098889 </i>
    <i name="e_wo_entrp">    -49.07001513 </i>
    <i name="e_0_energy">    -49.06399763 </i>
   </energy>
  </scstep>
  <scstep>
   <time name="diag">    1.09    1.10</time>
   <time name="diis">    4.24    4.24</time>
   <time name="orth">    0.06    0.06</time>
   <time name="total">    7.29    7.30</time>
   <energy>
    <i name="e_fr_energy">    -49.06098957 </i>
    <i name="e_wo_entrp">    -49.07001583 </i>
    <i name="e_0_energy">    -49.06399833 </i>
   </energy>
  </scstep>
  <scstep>
   <time name="diag">    1.10    1.10</time>
   <time name="diis">    4.23    4.23</time>
   <time name="orth">    0.06    0.06</time>
   <time name="total">    7.30    7.30</time>
   <energy>
    <i name="e_fr_energy">    -49.06098994 </i>
    <i name="e_wo_entrp">    -49.07001621 </i>
    <i name="e_0_energy">    -49.06399870 </i>
   </energy>
  </scstep>
  <scstep>
   <time name="diag">    1.10    1.10</time>
   <time name="diis">    3.83    3.83</time>
   <time name="orth">    0.06    0.06</time>
   <time name="total">    6.89    6.90</time>
   <energy>
    <i name="e_fr_energy">    -49.06099026 </i>
    <i name="e_wo_entrp">    -49.07001654 </i>
    <i name="e_0_energy">    -49.06399902 </i>
   </energy>
  </scstep>
  <scstep>
   <time name="diag">    1.09    1.09</time>
   <time name="diis">    3.88    3.88</time>
   <time name="orth">    0.06    0.06</time>
   <time name="total">    6.96    6.96</time>
   <energy>
    <i name="e_fr_energy">    -49.06099056 </i>
    <i name="e_wo_entrp">    -49.07001683 </i>
    <i name="e_0_energy">    -49.06399932 </i>
   </energy>
  </scstep>
  <scstep>
   <time name="diag">    1.09    1.09</time>
   <time name="diis">    3.71    3.71</time>
   <time name="orth">    0.06    0.06</time>
   <time name="total">    6.79    6.79</time>
   <energy>
    <i name="e_fr_energy">    -49.06099069 </i>
    <i name="e_wo_entrp">    -49.07001696 </i>
    <i name="e_0_energy">    -49.06399945 </i>
   </energy>
  </scstep>
  <scstep>
   <time name="diag">    1.10    1.10</time>
   <time name="diis">    3.39    3.39</time>
   <time name="orth">    0.06    0.06</time>
   <time name="total">    5.72    5.72</time>
   <energy>
    <i name="alphaZ">     41.16232785 </i>
    <i name="ewald">  16609.22985705 </i>
    <i name="hartreedc"> -33587.29687788 </i>
    <i name="XCdc">    615.56306179 </i>
    <i name="pawpsdc">  17644.22717086 </i>
    <i name="pawaedc"> -19043.12143924 </i>
    <i name="eentropy">      0.00902627 </i>
    <i name="bandstr">   -991.05336457 </i>
    <i name="atom">  18662.21924712 </i>
    <i name="e_fr_energy">    -49.06099076 </i>
    <i name="e_wo_entrp">    -49.07001703 </i>
    <i name="e_0_energy">    -49.06399952 </i>
   </energy>
  </scstep>
  <structure>
   <crystal>
    <varray name="basis" >
     <v>      15.00000000       0.00000000       0.00000000 </v>
     <v>       0.00000000      15.00000000       0.00000000 </v>
     <v>       0.00000000       0.00000000      15.00000000 </v>
    </varray>
    <i name="volume">   3375.00000000 </i>
    <varray name="rec_basis" >
     <v>       0.06666667       0.00000000       0.00000000 </v>
     <v>       0.00000000       0.06666667       0.00000000 </v>
     <v>       0.00000000       0.00000000       0.06666667 </v>
    </varray>
   </crystal>
   <varray name="positions" >
    <v>       0.29291067       0.42117533       0.55435200 </v>
    <v>       0.37607600       0.55018133       0.48894800 </v>
    <v>       0.39550667       0.29282067       0.56437533 </v>
    <v>       0.53536067       0.50688667       0.48141400 </v>
    <v>       0.54937867       0.34585200       0.52831267 </v>
    <v>       0.44664200       0.43496733       0.61376867 </v>
    <v>       0.41962467       0.39893267       0.44945600 </v>
    <v>       0.22797733       0.56962800       0.54459867 </v>
    <v>       0.33494867       0.54396667       0.65278000 </v>
    <v>       0.35329467       0.68284667       0.56986800 </v>
    <v>       0.48713333       0.66894667       0.47789667 </v>
    <v>       0.61406867       0.47828467       0.61397867 </v>
    <v>       0.48626133       0.59334933       0.61793333 </v>
    <v>       0.73446000       0.49241400       0.64639000 </v>
    <v>       0.81206667       0.48997667       0.63871600 </v>
   </varray>
  </structure>
  <varray name="forces" >
   <v>       0.00009787      -0.18296197      -0.07622388 </v>
   <v>       0.20053069      -0.18351025      -0.07401964 </v>
   <v>      -0.06659447      -0.23065453       0.07680412 </v>
   <v>      -0.21711517       0.15436173      -0.00629654 </v>
   <v>       0.13060723       0.16784246       0.09905338 </v>
   <v>       0.41740491       0.09882262      -0.17702723 </v>
   <v>      -0.13000625       0.06187668      -0.00040309 </v>
   <v>      -0.36175602       0.24615331      -0.14120923 </v>
   <v>       0.24271254       0.08526943       0.21383388 </v>
   <v>      -0.12557290       0.18281373       0.10245739 </v>
   <v>       0.08644686      -0.10468674       0.04504637 </v>
   <v>       0.33645475       0.04330268       0.22683663 </v>
   <v>      -0.01091458      -0.17824863      -0.19562993 </v>
   <v>       0.86495042      -0.32435761      -0.27643168 </v>
   <v>      -1.36724589       0.16397711       0.18320945 </v>
  </varray>
  <varray name="stress" >
   <v>      -1.05766617      -0.25564562       0.28290395 </v>
   <v>      -0.25564562       0.18892372      -0.10277749 </v>
   <v>       0.28290394      -0.10277748      -0.01541643 </v>
  </varray>
  <energy>
   <i name="e_fr_energy">    -49.06099076 </i>
   <i name="e_wo_entrp">    -49.06399952 </i>
   <i name="e_0_energy">      0.00902627 </i>
  </energy>
  <time name="totalsc">  347.15  347.36</time>
  <eigenvalues>
   <array>
    <dimension dim="1">band</dimension>
    <dimension dim="2">kpoint</dimension>
    <dimension dim="3">spin</dimension>
    <field>eigene</field>
    <field>occ</field>
    <set>
     <set comment="spin 1">
      <set comment="kpoint 1">
       <r>  -28.1904    1.0000 </r>
       <r>  -13.7463    1.0000 </r>
       <r>  -11.1518    1.0000 </r>
       <r>  -10.9429    1.0000 </r>
       <r>  -10.7202    1.0000 </r>
       <r>  -10.1748    1.0000 </r>
       <r>   -8.6976    1.0000 </r>
       <r>   -8.2666    1.0000 </r>
       <r>   -7.7172    1.0000 </r>
       <r>   -7.5727    1.0000 </r>
       <r>   -7.4984    1.0000 </r>
       <r>   -7.3494    1.0000 </r>
       <r>   -7.2894    1.0000 </r>
       <r>   -7.1524    1.0000 </r>
       <r>   -7.0321    1.0000 </r>
       <r>   -6.9367    1.0000 </r>
       <r>   -6.8463    1.0000 </r>
       <r>   -6.8060    1.0000 </r>
       <r>   -6.7689    1.0000 </r>
       <r>   -6.6689    1.0000 </r>
       <r>   -6.6360    1.0000 </r>
       <r>   -6.5702    1.0000 </r>
       <r>   -6.5524    1.0000 </r>
       <r>   -6.4986    1.0000 </r>
       <r>   -6.4638    1.0000 </r>
       <r>   -6.4268    1.0000 </r>
       <r>   -6.3431    1.0000 </r>
       <r>   -6.3170    1.0000 </r>
       <r>   -6.2880    1.0000 </r>
       <r>   -6.2689    1.0000 </r>
       <r>   -6.2121    1.0000 </r>
       <r>   -6.1596    1.0000 </r>
       <r>   -6.1126    1.0000 </r>
       <r>   -6.0239    1.0000 </r>
       <r>   -5.9054    1.0000 </r>
       <r>   -5.8525    1.0000 </r>
       <r>   -5.8262    1.0000 </r>
       <r>   -5.7146    1.0000 </r>
       <r>   -5.7018    1.0000 </r>
       <r>   -5.6681    1.0000 </r>
       <r>   -5.6059    1.0000 </r>
       <r>   -5.5952    1.0000 </r>
       <r>   -5.5438    1.0000 </r>
       <r>   -5.5041    1.0000 </r>
       <r>   -5.4639    1.0000 </r>
       <r>   -5.4491    1.0000 </r>
       <r>   -5.4286    1.0000 </r>
       <r>   -5.3930    1.0000 </r>
       <r>   -5.3737    1.0000 </r>
       <r>   -5.3477    1.0000 </r>
       <r>   -5.3351    1.0000 </r>
       <r>   -5.3025    1.0000 </r>
       <r>   -5.2955    1.0000 </r>
       <r>   -5.2674    1.0000 </r>
       <r>   -5.2381    1.0000 </r>
       <r>   -5.2022    1.0000 </r>
       <r>   -5.1956    1.0000 </r>
       <r>   -5.1685    1.0000 </r>
       <r>   -5.1379    1.0000 </r>
       <r>   -5.0972    1.0000 </r>
       <r>   -5.0694    1.0000 </r>
       <r>   -5.0248    1.0000 </r>
       <r>   -5.0215    1.0000 </r>
       <r>   -5.0087    1.0000 </r>
       <r>   -4.9534    1.0000 </r>
       <r>   -4.9424    1.0000 </r>
       <r>   -4.9141    1.0000 </r>
       <r>   -4.8948    1.0000 </r>
       <r>   -4.8796    1.0000 </r>
       <r>   -4.8467    1.0000 </r>
       <r>   -4.8218    1.0000 </r>
       <r>   -4.7962    1.0000 </r>
       <r>   -4.7418    1.0000 </r>
       <r>   -4.5484    1.0000 </r>
       <r>   -4.2170    1.0000 </r>
       <r>   -4.1738    1.0000 </r>
       <r>   -3.4945    1.0000 </r>
       <r>   -3.0482   -0.0000 </r>
       <r>   -2.8672   -0.0000 </r>
       <r>   -2.5618   -0.0000 </r>
       <r>   -2.3610   -0.0000 </r>
       <r>   -1.9850   -0.0000 </r>
       <r>   -1.9189   -0.0000 </r>
       <r>   -1.7582   -0.0000 </r>
       <r>   -1.3773   -0.0000 </r>
       <r>   -1.0267   -0.0000 </r>
       <r>   -0.9440   -0.0000 </r>
       <r>   -0.7151   -0.0000 </r>
       <r>   -0.4259    0.0000 </r>
       <r>   -0.2905    0.0000 </r>
       <r>   -0.1528    0.0000 </r>
       <r>    0.1435    0.0000 </r>
      </set>
     </set>
     <set comment="spin 2">
      <set comment="kpoint 1">
       <r>  -28.1643    1.0000 </r>
       <r>  -13.6998    1.0000 </r>
       <r>  -11.1153    1.0000 </r>
       <r>  -10.9109    1.0000 </r>
       <r>  -10.6527    1.0000 </r>
       <r>  -10.1324    1.0000 </r>
       <r>   -8.6755    1.0000 </r>
       <r>   -8.2198    1.0000 </r>
       <r>   -7.6750    1.0000 </r>
       <r>   -7.5533    1.0000 </r>
       <r>   -7.4710    1.0000 </r>
       <r>   -7.3071    1.0000 </r>
       <r>   -7.2564    1.0000 </r>
       <r>   -7.1228    1.0000 </r>
       <r>   -7.0008    1.0000 </r>
       <r>   -6.9037    1.0000 </r>
       <r>   -6.8173    1.0000 </r>
       <r>   -6.7806    1.0000 </r>
       <r>   -6.7383    1.0000 </r>
       <r>   -6.6461    1.0000 </r>
       <r>   -6.6148    1.0000 </r>
       <r>   -6.5474    1.0000 </r>
       <r>   -6.5237    1.0000 </r>
       <r>   -6.4762    1.0000 </r>
       <r>   -6.4379    1.0000 </r>
       <r>   -6.3984    1.0000 </r>
       <r>   -6.3196    1.0000 </r>
       <r>   -6.2922    1.0000 </r>
       <r>   -6.2649    1.0000 </r>
       <r>   -6.2450    1.0000 </r>
       <r>   -6.1880    1.0000 </r>
       <r>   -6.1307    1.0000 </r>
       <r>   -6.0825    1.0000 </r>
       <r>   -6.0051    1.0000 </r>
       <r>   -5.8809    1.0000 </r>
       <r>   -5.8269    1.0000 </r>
       <r>   -5.7979    1.0000 </r>
       <r>   -5.6863    1.0000 </r>
       <r>   -5.6812    1.0000 </r>
       <r>   -5.6444    1.0000 </r>
       <r>   -5.5853    1.0000 </r>
       <r>   -5.5703    1.0000 </r>
       <r>   -5.5137    1.0000 </r>
       <r>   -5.4808    1.0000 </r>
       <r>   -5.4411    1.0000 </r>
       <r>   -5.4176    1.0000 </r>
       <r>   -5.3987    1.0000 </r>
       <r>   -5.3647    1.0000 </r>
       <r>   -5.3507    1.0000 </r>
       <r>   -5.3244    1.0000 </r>
       <r>   -5.3077    1.0000 </r>
       <r>   -5.2817    1.0000 </r>
       <r>   -5.2728    1.0000 </r>
       <r>   -5.2401    1.0000 </r>
       <r>   -5.2103    1.0000 </r>
       <r>   -5.1809    1.0000 </r>
       <r>   -5.1731    1.0000 </r>
       <r>   -5.1533    1.0000 </r>
       <r>   -5.1116    1.0000 </r>
       <r>   -5.0696    1.0000 </r>
       <r>   -5.0449    1.0000 </r>
       <r>   -5.0052    1.0000 </r>
       <r>   -5.0036    1.0000 </r>
       <r>   -4.9777    1.0000 </r>
       <r>   -4.9310    1.0000 </r>
       <r>   -4.9118    1.0000 </r>
       <r>   -4.8933    1.0000 </r>
       <r>   -4.8540    1.0000 </r>
       <r>   -4.8476    1.0000 </r>
       <r>   -4.8152    1.0000 </r>
       <r>   -4.7856    1.0000 </r>
       <r>   -4.7720    1.0000 </r>
       <r>   -4.7151    1.0000 </r>
       <r>   -4.5039    1.0000 </r>
       <r>   -4.1592    1.0262 </r>
       <r>   -4.1324    0.9738 </r>
       <r>   -3.2885   -0.0000 </r>
       <r>   -2.9960   -0.0000 </r>
       <r>   -2.8160   -0.0000 </r>
       <r>   -2.4800   -0.0000 </r>
       <r>   -2.2663   -0.0000 </r>
       <r>   -1.9530   -0.0000 </r>
       <r>   -1.8450   -0.0000 </r>
       <r>   -1.6814   -0.0000 </r>
       <r>   -1.2543    0.0000 </r>
       <r>   -0.9451    0.0000 </r>
       <r>   -0.8251    0.0000 </r>
       <r>   -0.6345    0.0000 </r>
       <r>   -0.3279    0.0000 </r>
       <r>   -0.2339    0.0000 </r>
       <r>   -0.0859    0.0000 </r>
       <r>    0.1739    0.0000 </r>
      </set>
     </set>
    </set>
   </array>
  </eigenvalues>
  <separator name="orbital magnetization" >
   <v name="MAGDIPOLOUT">      0.00000000      0.00000000      0.00000000</v>
  </separator>
  <dos>
   <i name="efermi">     -4.05817912 </i>
   <total>
    <array>
     <dimension dim="1">gridpoints</dimension>
     <dimension dim="2">spin</dimension>
     <field>energy</field>
     <field>total</field>
     <field>integrated</field>
     <set>
      <set comment="spin 1">
       <r>   -29.6086     0.0000     0.0000 </r>
       <r>   -29.5046     0.0000     0.0000 </r>
       <r>   -29.4006     0.0000     0.0000 </r>
       <r>   -29.2966     0.0000     0.0000 </r>
       <r>   -29.1926     0.0000     0.0000 </r>
       <r>   -29.0886    -0.0000    -0.0000 </r>
       <r>   -28.9846    -0.0000    -0.0000 </r>
       <r>   -28.8806    -0.0000    -0.0000 </r>
       <r>   -28.7766    -0.0000    -0.0000 </r>
       <r>   -28.6726    -0.0000    -0.0000 </r>
       <r>   -28.5686    -0.0000    -0.0000 </r>
       <r>   -28.4646    -0.0071    -0.0007 </r>
       <r>   -28.3606    -0.3481    -0.0369 </r>
       <r>   -28.2566     1.3967     0.1083 </r>
       <r>   -28.1526    14.2674     1.5922 </r>
       <r>   -28.0486     4.5191     2.0622 </r>
       <r>   -27.9446    -0.5710     2.0028 </r>
       <r>   -27.8406    -0.0267     2.0000 </r>
       <r>   -27.7366    -0.0001     2.0000 </r>
       <r>   -27.6326    -0.0000     2.0000 </r>
       <r>   -27.5286    -0.0000     2.0000 </r>
       <r>   -27.4246     0.0000     2.0000 </r>
       <r>   -27.3206     0.0000     2.0000 </r>
       <r>   -27.2166     0.0000     2.0000 </r>
       <r>   -27.1126     0.0000     2.0000 </r>
       <r>   -27.0086     0.0000     2.0000 </r>
       <r>   -26.9046     0.0000     2.0000 </r>
       <r>   -26.8006     0.0000     2.0000 </r>
       <r>   -26.6966     0.0000     2.0000 </r>
       <r>   -26.5925     0.0000     2.0000 </r>
       <r>   -26.4885     0.0000     2.0000 </r>
       <r>   -26.3845     0.0000     2.0000 </r>
       <r>   -26.2805     0.0000     2.0000 </r>
       <r>   -26.1765     0.0000     2.0000 </r>
       <r>   -26.0725     0.0000     2.0000 </r>
       <r>   -25.9685     0.0000     2.0000 </r>
       <r>   -25.8645     0.0000     2.0000 </r>
       <r>   -25.7605     0.0000     2.0000 </r>
       <r>   -25.6565     0.0000     2.0000 </r>
       <r>   -25.5525     0.0000     2.0000 </r>
       <r>   -25.4485     0.0000     2.0000 </r>
       <r>   -25.3445     0.0000     2.0000 </r>
       <r>   -25.2405     0.0000     2.0000 </r>
       <r>   -25.1365     0.0000     2.0000 </r>
       <r>   -25.0325     0.0000     2.0000 </r>
       <r>   -24.9285     0.0000     2.0000 </r>
       <r>   -24.8245     0.0000     2.0000 </r>
       <r>   -24.7205     0.0000     2.0000 </r>
       <r>   -24.6165     0.0000     2.0000 </r>
       <r>   -24.5125     0.0000     2.0000 </r>
       <r>   -24.4085     0.0000     2.0000 </r>
       <r>   -24.3045     0.0000     2.0000 </r>
       <r>   -24.2005     0.0000     2.0000 </r>
       <r>   -24.0965     0.0000     2.0000 </r>
       <r>   -23.9925     0.0000     2.0000 </r>
       <r>   -23.8885     0.0000     2.0000 </r>
       <r>   -23.7845     0.0000     2.0000 </r>
       <r>   -23.6805     0.0000     2.0000 </r>
       <r>   -23.5765     0.0000     2.0000 </r>
       <r>   -23.4725     0.0000     2.0000 </r>
       <r>   -23.3685     0.0000     2.0000 </r>
       <r>   -23.2645     0.0000     2.0000 </r>
       <r>   -23.1605     0.0000     2.0000 </r>
       <r>   -23.0565     0.0000     2.0000 </r>
       <r>   -22.9525     0.0000     2.0000 </r>
       <r>   -22.8485     0.0000     2.0000 </r>
       <r>   -22.7445     0.0000     2.0000 </r>
       <r>   -22.6405     0.0000     2.0000 </r>
       <r>   -22.5365     0.0000     2.0000 </r>
       <r>   -22.4325     0.0000     2.0000 </r>
       <r>   -22.3285     0.0000     2.0000 </r>
       <r>   -22.2245     0.0000     2.0000 </r>
       <r>   -22.1204     0.0000     2.0000 </r>
       <r>   -22.0164     0.0000     2.0000 </r>
       <r>   -21.9124     0.0000     2.0000 </r>
       <r>   -21.8084     0.0000     2.0000 </r>
       <r>   -21.7044     0.0000     2.0000 </r>
       <r>   -21.6004     0.0000     2.0000 </r>
       <r>   -21.4964     0.0000     2.0000 </r>
       <r>   -21.3924     0.0000     2.0000 </r>
       <r>   -21.2884     0.0000     2.0000 </r>
       <r>   -21.1844     0.0000     2.0000 </r>
       <r>   -21.0804     0.0000     2.0000 </r>
       <r>   -20.9764     0.0000     2.0000 </r>
       <r>   -20.8724     0.0000     2.0000 </r>
       <r>   -20.7684     0.0000     2.0000 </r>
       <r>   -20.6644     0.0000     2.0000 </r>
       <r>   -20.5604     0.0000     2.0000 </r>
       <r>   -20.4564     0.0000     2.0000 </r>
       <r>   -20.3524     0.0000     2.0000 </r>
       <r>   -20.2484     0.0000     2.0000 </r>
       <r>   -20.1444     0.0000     2.0000 </r>
       <r>   -20.0404     0.0000     2.0000 </r>
       <r>   -19.9364     0.0000     2.0000 </r>
       <r>   -19.8324     0.0000     2.0000 </r>
       <r>   -19.7284     0.0000     2.0000 </r>
       <r>   -19.6244     0.0000     2.0000 </r>
       <r>   -19.5204     0.0000     2.0000 </r>
       <r>   -19.4164     0.0000     2.0000 </r>
       <r>   -19.3124     0.0000     2.0000 </r>
       <r>   -19.2084     0.0000     2.0000 </r>
       <r>   -19.1044     0.0000     2.0000 </r>
       <r>   -19.0004     0.0000     2.0000 </r>
       <r>   -18.8964     0.0000     2.0000 </r>
       <r>   -18.7924     0.0000     2.0000 </r>
       <r>   -18.6884     0.0000     2.0000 </r>
       <r>   -18.5844     0.0000     2.0000 </r>
       <r>   -18.4804     0.0000     2.0000 </r>
       <r>   -18.3764     0.0000     2.0000 </r>
       <r>   -18.2724     0.0000     2.0000 </r>
       <r>   -18.1684     0.0000     2.0000 </r>
       <r>   -18.0644     0.0000     2.0000 </r>
       <r>   -17.9604     0.0000     2.0000 </r>
       <r>   -17.8564     0.0000     2.0000 </r>
       <r>   -17.7523     0.0000     2.0000 </r>
       <r>   -17.6483     0.0000     2.0000 </r>
       <r>   -17.5443     0.0000     2.0000 </r>
       <r>   -17.4403     0.0000     2.0000 </r>
       <r>   -17.3363     0.0000     2.0000 </r>
       <r>   -17.2323     0.0000     2.0000 </r>
       <r>   -17.1283     0.0000     2.0000 </r>
       <r>   -17.0243     0.0000     2.0000 </r>
       <r>   -16.9203     0.0000     2.0000 </r>
       <r>   -16.8163     0.0000     2.0000 </r>
       <r>   -16.7123     0.0000     2.0000 </r>
       <r>   -16.6083     0.0000     2.0000 </r>
       <r>   -16.5043     0.0000     2.0000 </r>
       <r>   -16.4003     0.0000     2.0000 </r>
       <r>   -16.2963     0.0000     2.0000 </r>
       <r>   -16.1923     0.0000     2.0000 </r>
       <r>   -16.0883     0.0000     2.0000 </r>
       <r>   -15.9843     0.0000     2.0000 </r>
       <r>   -15.8803     0.0000     2.0000 </r>
       <r>   -15.7763     0.0000     2.0000 </r>
       <r>   -15.6723     0.0000     2.0000 </r>
       <r>   -15.5683     0.0000     2.0000 </r>
       <r>   -15.4643     0.0000     2.0000 </r>
       <r>   -15.3603     0.0000     2.0000 </r>
       <r>   -15.2563     0.0000     2.0000 </r>
       <r>   -15.1523     0.0000     2.0000 </r>
       <r>   -15.0483     0.0000     2.0000 </r>
       <r>   -14.9443     0.0000     2.0000 </r>
       <r>   -14.8403     0.0000     2.0000 </r>
       <r>   -14.7363     0.0000     2.0000 </r>
       <r>   -14.6323    -0.0000     2.0000 </r>
       <r>   -14.5283    -0.0000     2.0000 </r>
       <r>   -14.4243    -0.0000     2.0000 </r>
       <r>   -14.3203    -0.0000     2.0000 </r>
       <r>   -14.2163    -0.0000     2.0000 </r>
       <r>   -14.1123    -0.0000     2.0000 </r>
       <r>   -14.0083    -0.0128     1.9987 </r>
       <r>   -13.9043    -0.4487     1.9520 </r>
       <r>   -13.8003     2.5539     2.2176 </r>
       <r>   -13.6963    14.6418     3.7404 </r>
       <r>   -13.5923     2.9928     4.0517 </r>
       <r>   -13.4883    -0.4813     4.0016 </r>
       <r>   -13.3842    -0.0154     4.0000 </r>
       <r>   -13.2802    -0.0000     4.0000 </r>
       <r>   -13.1762    -0.0000     4.0000 </r>
       <r>   -13.0722    -0.0000     4.0000 </r>
       <r>   -12.9682     0.0000     4.0000 </r>
       <r>   -12.8642     0.0000     4.0000 </r>
       <r>   -12.7602     0.0000     4.0000 </r>
       <r>   -12.6562     0.0000     4.0000 </r>
       <r>   -12.5522     0.0000     4.0000 </r>
       <r>   -12.4482     0.0000     4.0000 </r>
       <r>   -12.3442     0.0000     4.0000 </r>
       <r>   -12.2402     0.0000     4.0000 </r>
       <r>   -12.1362     0.0000     4.0000 </r>
       <r>   -12.0322    -0.0000     4.0000 </r>
       <r>   -11.9282    -0.0000     4.0000 </r>
       <r>   -11.8242    -0.0000     4.0000 </r>
       <r>   -11.7202    -0.0000     4.0000 </r>
       <r>   -11.6162    -0.0000     4.0000 </r>
       <r>   -11.5122    -0.0000     4.0000 </r>
       <r>   -11.4082    -0.0166     3.9983 </r>
       <r>   -11.3042    -0.4943     3.9469 </r>
       <r>   -11.2002     3.1641     4.2759 </r>
       <r>   -11.0962    14.1369     5.7462 </r>
       <r>   -10.9922     5.4578     6.3138 </r>
       <r>   -10.8882    13.8339     7.7526 </r>
       <r>   -10.7842     4.0406     8.1728 </r>
       <r>   -10.6802    13.9321     9.6218 </r>
       <r>   -10.5762     4.2178    10.0605 </r>
       <r>   -10.4722    -0.5590    10.0023 </r>
       <r>   -10.3682    -0.2113     9.9803 </r>
       <r>   -10.2642    -0.0105     9.9793 </r>
       <r>   -10.1602    12.1607    11.2440 </r>
       <r>   -10.0562     7.9462    12.0704 </r>
       <r>    -9.9522    -0.6078    12.0072 </r>
       <r>    -9.8482    -0.0689    12.0000 </r>
       <r>    -9.7442    -0.0004    12.0000 </r>
       <r>    -9.6402    -0.0000    12.0000 </r>
       <r>    -9.5362    -0.0000    12.0000 </r>
       <r>    -9.4322    -0.0000    12.0000 </r>
       <r>    -9.3282    -0.0000    12.0000 </r>
       <r>    -9.2242    -0.0000    12.0000 </r>
       <r>    -9.1202    -0.0000    12.0000 </r>
       <r>    -9.0161    -0.0006    11.9999 </r>
       <r>    -8.9121    -0.0930    11.9903 </r>
       <r>    -8.8081    -0.5386    11.9343 </r>
       <r>    -8.7041     9.1919    12.8902 </r>
       <r>    -8.6001    11.0999    14.0446 </r>
       <r>    -8.4961    -0.3358    14.0097 </r>
       <r>    -8.3921    -0.7714    13.9295 </r>
       <r>    -8.2881     6.8768    14.6447 </r>
       <r>    -8.1841    12.9563    15.9922 </r>
       <r>    -8.0801     0.3073    16.0241 </r>
       <r>    -7.9761    -0.2439    15.9988 </r>
       <r>    -7.8721    -0.4792    15.9489 </r>
       <r>    -7.7681     2.7109    16.2309 </r>
       <r>    -7.6641    14.1738    17.7050 </r>
       <r>    -7.5601    16.2257    19.3925 </r>
       <r>    -7.4561    21.4102    21.6192 </r>
       <r>    -7.3521    14.6254    23.1403 </r>
       <r>    -7.2481    24.0589    25.6425 </r>
       <r>    -7.1441    14.3358    27.1334 </r>
       <r>    -7.0401    16.5444    28.8541 </r>
       <r>    -6.9361    19.9408    30.9280 </r>
       <r>    -6.8321    29.1034    33.9548 </r>
       <r>    -6.7281    36.3225    37.7324 </r>
       <r>    -6.6241    32.6481    41.1279 </r>
       <r>    -6.5201    48.1851    46.1393 </r>
       <r>    -6.4161    45.6145    50.8833 </r>
       <r>    -6.3121    44.9537    55.5586 </r>
       <r>    -6.2081    54.6976    61.2472 </r>
       <r>    -6.1041    36.9118    65.0862 </r>
       <r>    -6.0001    22.1330    67.3880 </r>
       <r>    -5.8961    21.2645    69.5996 </r>
       <r>    -5.7921    36.0896    73.3530 </r>
       <r>    -5.6881    38.1987    77.3258 </r>
       <r>    -5.5841    53.1791    82.8565 </r>
       <r>    -5.4801    55.6603    88.6453 </r>
       <r>    -5.3761    78.9946    96.8609 </r>
       <r>    -5.2721    90.2944   106.2518 </r>
       <r>    -5.1681    79.7906   114.5502 </r>
       <r>    -5.0641    66.6669   121.4837 </r>
       <r>    -4.9601    76.9711   129.4889 </r>
       <r>    -4.8561    85.7338   138.4054 </r>
       <r>    -4.7521    60.1210   144.6581 </r>
       <r>    -4.6480    13.8826   146.1020 </r>
       <r>    -4.5440     9.5301   147.0931 </r>
       <r>    -4.4400     9.2537   148.0555 </r>
       <r>    -4.3360    -1.5345   147.8959 </r>
       <r>    -4.2320     9.8862   148.9241 </r>
       <r>    -4.1280    26.7950   151.7108 </r>
       <r>    -4.0240     3.5060   152.0755 </r>
       <r>    -3.9200    -0.7048   152.0022 </r>
       <r>    -3.8160    -0.0214   152.0000 </r>
       <r>    -3.7120    -0.0833   151.9913 </r>
       <r>    -3.6080    -0.5716   151.9318 </r>
       <r>    -3.5040     8.7238   152.8391 </r>
       <r>    -3.4000    11.5150   154.0367 </r>
       <r>    -3.2960    -0.2161   154.0143 </r>
       <r>    -3.1920    -0.7185   153.9395 </r>
       <r>    -3.0880     4.1762   154.3739 </r>
       <r>    -2.9840    13.7694   155.8059 </r>
       <r>    -2.8800     9.7852   156.8236 </r>
       <r>    -2.7760    11.4819   158.0177 </r>
       <r>    -2.6720    -0.6217   157.9531 </r>
       <r>    -2.5680     8.9433   158.8832 </r>
       <r>    -2.4640    10.6379   159.9896 </r>
       <r>    -2.3600    10.0290   161.0326 </r>
       <r>    -2.2560     9.8636   162.0584 </r>
       <r>    -2.1520    -0.8766   161.9673 </r>
       <r>    -2.0480     0.9315   162.0642 </r>
       <r>    -1.9440    20.5285   164.1992 </r>
       <r>    -1.8400    17.7496   166.0452 </r>
       <r>    -1.7360    12.9790   167.3950 </r>
       <r>    -1.6320     6.4806   168.0690 </r>
       <r>    -1.5280    -1.1379   167.9507 </r>
       <r>    -1.4240     3.3322   168.2972 </r>
       <r>    -1.3200    14.5924   169.8149 </r>
       <r>    -1.2160     1.9898   170.0218 </r>
       <r>    -1.1120    -0.6163   169.9577 </r>
       <r>    -1.0080    14.2253   171.4372 </r>
       <r>    -0.9040    21.4651   173.6696 </r>
       <r>    -0.8000     3.7894   174.0637 </r>
       <r>    -0.6960    12.0742   175.3195 </r>
       <r>    -0.5920     6.8336   176.0302 </r>
       <r>    -0.4880     0.9637   176.1304 </r>
       <r>    -0.3840    14.1905   177.6062 </r>
       <r>    -0.2800    15.0026   179.1666 </r>
       <r>    -0.1759    14.6482   180.6900 </r>
       <r>    -0.0719    12.4340   181.9832 </r>
       <r>     0.0321    -0.2345   181.9588 </r>
       <r>     0.1361     8.8101   182.8751 </r>
       <r>     0.2401    11.2242   184.0424 </r>
       <r>     0.3441    -0.2568   184.0157 </r>
       <r>     0.4481    -0.1495   184.0001 </r>
       <r>     0.5521    -0.0014   184.0000 </r>
       <r>     0.6561    -0.0000   184.0000 </r>
       <r>     0.7601    -0.0000   184.0000 </r>
       <r>     0.8641     0.0000   184.0000 </r>
       <r>     0.9681     0.0000   184.0000 </r>
       <r>     1.0721     0.0000   184.0000 </r>
       <r>     1.1761     0.0000   184.0000 </r>
       <r>     1.2801     0.0000   184.0000 </r>
       <r>     1.3841     0.0000   184.0000 </r>
       <r>     1.4881     0.0000   184.0000 </r>
       <r>     1.5921     0.0000   184.0000 </r>
      </set>
      <set comment="spin 2">
       <r>   -29.6086     0.0000     0.0000 </r>
       <r>   -29.5046     0.0000     0.0000 </r>
       <r>   -29.4006     0.0000     0.0000 </r>
       <r>   -29.2966     0.0000     0.0000 </r>
       <r>   -29.1926     0.0000     0.0000 </r>
       <r>   -29.0886     0.0000     0.0000 </r>
       <r>   -28.9846    -0.0000    -0.0000 </r>
       <r>   -28.8806    -0.0000    -0.0000 </r>
       <r>   -28.7766    -0.0000    -0.0000 </r>
       <r>   -28.6726    -0.0000    -0.0000 </r>
       <r>   -28.5686    -0.0000    -0.0000 </r>
       <r>   -28.4646    -0.0018    -0.0002 </r>
       <r>   -28.3606    -0.1713    -0.0180 </r>
       <r>   -28.2566    -0.1183    -0.0303 </r>
       <r>   -28.1526    11.7996     1.1969 </r>
       <r>   -28.0486     8.3892     2.0694 </r>
       <r>   -27.9446    -0.5898     2.0080 </r>
       <r>   -27.8406    -0.0768     2.0000 </r>
       <r>   -27.7366    -0.0004     2.0000 </r>
       <r>   -27.6326    -0.0000     2.0000 </r>
       <r>   -27.5286    -0.0000     2.0000 </r>
       <r>   -27.4246     0.0000     2.0000 </r>
       <r>   -27.3206     0.0000     2.0000 </r>
       <r>   -27.2166     0.0000     2.0000 </r>
       <r>   -27.1126     0.0000     2.0000 </r>
       <r>   -27.0086     0.0000     2.0000 </r>
       <r>   -26.9046     0.0000     2.0000 </r>
       <r>   -26.8006     0.0000     2.0000 </r>
       <r>   -26.6966     0.0000     2.0000 </r>
       <r>   -26.5925     0.0000     2.0000 </r>
       <r>   -26.4885     0.0000     2.0000 </r>
       <r>   -26.3845     0.0000     2.0000 </r>
       <r>   -26.2805     0.0000     2.0000 </r>
       <r>   -26.1765     0.0000     2.0000 </r>
       <r>   -26.0725     0.0000     2.0000 </r>
       <r>   -25.9685     0.0000     2.0000 </r>
       <r>   -25.8645     0.0000     2.0000 </r>
       <r>   -25.7605     0.0000     2.0000 </r>
       <r>   -25.6565     0.0000     2.0000 </r>
       <r>   -25.5525     0.0000     2.0000 </r>
       <r>   -25.4485     0.0000     2.0000 </r>
       <r>   -25.3445     0.0000     2.0000 </r>
       <r>   -25.2405     0.0000     2.0000 </r>
       <r>   -25.1365     0.0000     2.0000 </r>
       <r>   -25.0325     0.0000     2.0000 </r>
       <r>   -24.9285     0.0000     2.0000 </r>
       <r>   -24.8245     0.0000     2.0000 </r>
       <r>   -24.7205     0.0000     2.0000 </r>
       <r>   -24.6165     0.0000     2.0000 </r>
       <r>   -24.5125     0.0000     2.0000 </r>
       <r>   -24.4085     0.0000     2.0000 </r>
       <r>   -24.3045     0.0000     2.0000 </r>
       <r>   -24.2005     0.0000     2.0000 </r>
       <r>   -24.0965     0.0000     2.0000 </r>
       <r>   -23.9925     0.0000     2.0000 </r>
       <r>   -23.8885     0.0000     2.0000 </r>
       <r>   -23.7845     0.0000     2.0000 </r>
       <r>   -23.6805     0.0000     2.0000 </r>
       <r>   -23.5765     0.0000     2.0000 </r>
       <r>   -23.4725     0.0000     2.0000 </r>
       <r>   -23.3685     0.0000     2.0000 </r>
       <r>   -23.2645     0.0000     2.0000 </r>
       <r>   -23.1605     0.0000     2.0000 </r>
       <r>   -23.0565     0.0000     2.0000 </r>
       <r>   -22.9525     0.0000     2.0000 </r>
       <r>   -22.8485     0.0000     2.0000 </r>
       <r>   -22.7445     0.0000     2.0000 </r>
       <r>   -22.6405     0.0000     2.0000 </r>
       <r>   -22.5365     0.0000     2.0000 </r>
       <r>   -22.4325     0.0000     2.0000 </r>
       <r>   -22.3285     0.0000     2.0000 </r>
       <r>   -22.2245     0.0000     2.0000 </r>
       <r>   -22.1204     0.0000     2.0000 </r>
       <r>   -22.0164     0.0000     2.0000 </r>
       <r>   -21.9124     0.0000     2.0000 </r>
       <r>   -21.8084     0.0000     2.0000 </r>
       <r>   -21.7044     0.0000     2.0000 </r>
       <r>   -21.6004     0.0000     2.0000 </r>
       <r>   -21.4964     0.0000     2.0000 </r>
       <r>   -21.3924     0.0000     2.0000 </r>
       <r>   -21.2884     0.0000     2.0000 </r>
       <r>   -21.1844     0.0000     2.0000 </r>
       <r>   -21.0804     0.0000     2.0000 </r>
       <r>   -20.9764     0.0000     2.0000 </r>
       <r>   -20.8724     0.0000     2.0000 </r>
       <r>   -20.7684     0.0000     2.0000 </r>
       <r>   -20.6644     0.0000     2.0000 </r>
       <r>   -20.5604     0.0000     2.0000 </r>
       <r>   -20.4564     0.0000     2.0000 </r>
       <r>   -20.3524     0.0000     2.0000 </r>
       <r>   -20.2484     0.0000     2.0000 </r>
       <r>   -20.1444     0.0000     2.0000 </r>
       <r>   -20.0404     0.0000     2.0000 </r>
       <r>   -19.9364     0.0000     2.0000 </r>
       <r>   -19.8324     0.0000     2.0000 </r>
       <r>   -19.7284     0.0000     2.0000 </r>
       <r>   -19.6244     0.0000     2.0000 </r>
       <r>   -19.5204     0.0000     2.0000 </r>
       <r>   -19.4164     0.0000     2.0000 </r>
       <r>   -19.3124     0.0000     2.0000 </r>
       <r>   -19.2084     0.0000     2.0000 </r>
       <r>   -19.1044     0.0000     2.0000 </r>
       <r>   -19.0004     0.0000     2.0000 </r>
       <r>   -18.8964     0.0000     2.0000 </r>
       <r>   -18.7924     0.0000     2.0000 </r>
       <r>   -18.6884     0.0000     2.0000 </r>
       <r>   -18.5844     0.0000     2.0000 </r>
       <r>   -18.4804     0.0000     2.0000 </r>
       <r>   -18.3764     0.0000     2.0000 </r>
       <r>   -18.2724     0.0000     2.0000 </r>
       <r>   -18.1684     0.0000     2.0000 </r>
       <r>   -18.0644     0.0000     2.0000 </r>
       <r>   -17.9604     0.0000     2.0000 </r>
       <r>   -17.8564     0.0000     2.0000 </r>
       <r>   -17.7523     0.0000     2.0000 </r>
       <r>   -17.6483     0.0000     2.0000 </r>
       <r>   -17.5443     0.0000     2.0000 </r>
       <r>   -17.4403     0.0000     2.0000 </r>
       <r>   -17.3363     0.0000     2.0000 </r>
       <r>   -17.2323     0.0000     2.0000 </r>
       <r>   -17.1283     0.0000     2.0000 </r>
       <r>   -17.0243     0.0000     2.0000 </r>
       <r>   -16.9203     0.0000     2.0000 </r>
       <r>   -16.8163     0.0000     2.0000 </r>
       <r>   -16.7123     0.0000     2.0000 </r>
       <r>   -16.6083     0.0000     2.0000 </r>
       <r>   -16.5043     0.0000     2.0000 </r>
       <r>   -16.4003     0.0000     2.0000 </r>
       <r>   -16.2963     0.0000     2.0000 </r>
       <r>   -16.1923     0.0000     2.0000 </r>
       <r>   -16.0883     0.0000     2.0000 </r>
       <r>   -15.9843     0.0000     2.0000 </r>
       <r>   -15.8803     0.0000     2.0000 </r>
       <r>   -15.7763     0.0000     2.0000 </r>
       <r>   -15.6723     0.0000     2.0000 </r>
       <r>   -15.5683     0.0000     2.0000 </r>
       <r>   -15.4643     0.0000     2.0000 </r>
       <r>   -15.3603     0.0000     2.0000 </r>
       <r>   -15.2563     0.0000     2.0000 </r>
       <r>   -15.1523     0.0000     2.0000 </r>
       <r>   -15.0483     0.0000     2.0000 </r>
       <r>   -14.9443     0.0000     2.0000 </r>
       <r>   -14.8403     0.0000     2.0000 </r>
       <r>   -14.7363     0.0000     2.0000 </r>
       <r>   -14.6323     0.0000     2.0000 </r>
       <r>   -14.5283    -0.0000     2.0000 </r>
       <r>   -14.4243    -0.0000     2.0000 </r>
       <r>   -14.3203    -0.0000     2.0000 </r>
       <r>   -14.2163    -0.0000     2.0000 </r>
       <r>   -14.1123    -0.0000     2.0000 </r>
       <r>   -14.0083    -0.0011     1.9999 </r>
       <r>   -13.9043    -0.1317     1.9862 </r>
       <r>   -13.8003    -0.3590     1.9488 </r>
       <r>   -13.6963    10.6866     3.0603 </r>
       <r>   -13.5923     9.6375     4.0626 </r>
       <r>   -13.4883    -0.4980     4.0108 </r>
       <r>   -13.3842    -0.1032     4.0001 </r>
       <r>   -13.2802    -0.0007     4.0000 </r>
       <r>   -13.1762    -0.0000     4.0000 </r>
       <r>   -13.0722    -0.0000     4.0000 </r>
       <r>   -12.9682     0.0000     4.0000 </r>
       <r>   -12.8642     0.0000     4.0000 </r>
       <r>   -12.7602     0.0000     4.0000 </r>
       <r>   -12.6562     0.0000     4.0000 </r>
       <r>   -12.5522     0.0000     4.0000 </r>
       <r>   -12.4482     0.0000     4.0000 </r>
       <r>   -12.3442     0.0000     4.0000 </r>
       <r>   -12.2402     0.0000     4.0000 </r>
       <r>   -12.1362     0.0000     4.0000 </r>
       <r>   -12.0322     0.0000     4.0000 </r>
       <r>   -11.9282    -0.0000     4.0000 </r>
       <r>   -11.8242    -0.0000     4.0000 </r>
       <r>   -11.7202    -0.0000     4.0000 </r>
       <r>   -11.6162    -0.0000     4.0000 </r>
       <r>   -11.5122    -0.0000     4.0000 </r>
       <r>   -11.4082    -0.0027     3.9997 </r>
       <r>   -11.3042    -0.2137     3.9775 </r>
       <r>   -11.2002     0.1830     3.9965 </r>
       <r>   -11.0962    12.4535     5.2917 </r>
       <r>   -10.9922     7.6219     6.0844 </r>
       <r>   -10.8882    12.4155     7.3757 </r>
       <r>   -10.7842     6.0195     8.0017 </r>
       <r>   -10.6802     5.3545     8.5586 </r>
       <r>   -10.5762    13.4850     9.9611 </r>
       <r>   -10.4722     0.6480    10.0285 </r>
       <r>   -10.3682    -0.3106     9.9962 </r>
       <r>   -10.2642    -0.6225     9.9314 </r>
       <r>   -10.1602     5.9424    10.5495 </r>
       <r>   -10.0562    13.5582    11.9595 </r>
       <r>    -9.9522     0.6649    12.0287 </r>
       <r>    -9.8482    -0.2716    12.0004 </r>
       <r>    -9.7442    -0.0042    12.0000 </r>
       <r>    -9.6402    -0.0000    12.0000 </r>
       <r>    -9.5362    -0.0000    12.0000 </r>
       <r>    -9.4322    -0.0000    12.0000 </r>
       <r>    -9.3282    -0.0000    12.0000 </r>
       <r>    -9.2242    -0.0000    12.0000 </r>
       <r>    -9.1202    -0.0000    12.0000 </r>
       <r>    -9.0161    -0.0002    12.0000 </r>
       <r>    -8.9121    -0.0395    11.9959 </r>
       <r>    -8.8081    -0.6157    11.9318 </r>
       <r>    -8.7041     5.8151    12.5366 </r>
       <r>    -8.6001    13.6325    13.9544 </r>
       <r>    -8.4961     0.7139    14.0287 </r>
       <r>    -8.3921    -0.6092    13.9653 </r>
       <r>    -8.2881     1.2228    14.0925 </r>
       <r>    -8.1841    14.1476    15.5639 </r>
       <r>    -8.0801     4.8062    16.0637 </r>
       <r>    -7.9761    -0.5853    16.0029 </r>
       <r>    -7.8721    -0.1966    15.9824 </r>
       <r>    -7.7681    -0.2423    15.9572 </r>
       <r>    -7.6641    10.9569    17.0968 </r>
       <r>    -7.5601    17.6444    18.9318 </r>
       <r>    -7.4561    22.0811    21.2283 </r>
       <r>    -7.3521    10.8592    22.3577 </r>
       <r>    -7.2481    24.4946    24.9052 </r>
       <r>    -7.1441    17.2046    26.6945 </r>
       <r>    -7.0401    15.6044    28.3174 </r>
       <r>    -6.9361    18.5715    30.2489 </r>
       <r>    -6.8321    25.4560    32.8964 </r>
       <r>    -6.7281    38.3943    36.8895 </r>
       <r>    -6.6241    32.2452    40.2430 </r>
       <r>    -6.5201    44.4604    44.8670 </r>
       <r>    -6.4161    47.9121    49.8500 </r>
       <r>    -6.3121    42.0521    54.2235 </r>
       <r>    -6.2081    56.5049    60.1002 </r>
       <r>    -6.1041    39.0318    64.1596 </r>
       <r>    -6.0001    27.8196    67.0529 </r>
       <r>    -5.8961    17.3331    68.8556 </r>
       <r>    -5.7921    34.7932    72.4741 </r>
       <r>    -5.6881    35.4459    76.1606 </r>
       <r>    -5.5841    52.5416    81.6250 </r>
       <r>    -5.4801    51.5661    86.9880 </r>
       <r>    -5.3761    72.6137    94.5400 </r>
       <r>    -5.2721    92.0131   104.1096 </r>
       <r>    -5.1681    84.4436   112.8920 </r>
       <r>    -5.0641    67.3376   119.8952 </r>
       <r>    -4.9601    72.8563   127.4725 </r>
       <r>    -4.8561    79.6927   135.7607 </r>
       <r>    -4.7521    73.3751   143.3919 </r>
       <r>    -4.6480    25.5381   146.0479 </r>
       <r>    -4.5440     3.6115   146.4235 </r>
       <r>    -4.4400    13.9370   147.8730 </r>
       <r>    -4.3360     1.1585   147.9935 </r>
       <r>    -4.2320     0.1841   148.0126 </r>
       <r>    -4.1280    24.6321   150.5744 </r>
       <r>    -4.0240    14.9606   152.1303 </r>
       <r>    -3.9200    -1.1167   152.0142 </r>
       <r>    -3.8160    -0.1357   152.0001 </r>
       <r>    -3.7120    -0.0008   152.0000 </r>
       <r>    -3.6080    -0.0006   151.9999 </r>
       <r>    -3.5040    -0.0897   151.9906 </r>
       <r>    -3.4000    -0.5503   151.9334 </r>
       <r>    -3.2960     9.0387   152.8734 </r>
       <r>    -3.1920    11.0639   154.0241 </r>
       <r>    -3.0880    -0.3723   153.9854 </r>
       <r>    -2.9840    11.3160   155.1623 </r>
       <r>    -2.8800     9.9311   156.1951 </r>
       <r>    -2.7760    13.7809   157.6284 </r>
       <r>    -2.6720     3.9577   158.0400 </r>
       <r>    -2.5680    -0.5123   157.9867 </r>
       <r>    -2.4640    12.1410   159.2494 </r>
       <r>    -2.3600     7.5648   160.0362 </r>
       <r>    -2.2560    10.9998   161.1802 </r>
       <r>    -2.1520     8.3832   162.0520 </r>
       <r>    -2.0480    -0.9267   161.9557 </r>
       <r>    -1.9440    11.0238   163.1022 </r>
       <r>    -1.8400    19.2621   165.1055 </r>
       <r>    -1.7360    11.3380   166.2846 </r>
       <r>    -1.6320    14.0320   167.7440 </r>
       <r>    -1.5280     2.9570   168.0515 </r>
       <r>    -1.4240    -0.8386   167.9643 </r>
       <r>    -1.3200     1.4195   168.1119 </r>
       <r>    -1.2160    14.2834   169.5975 </r>
       <r>    -1.1120     4.0782   170.0216 </r>
       <r>    -1.0080     0.8578   170.1108 </r>
       <r>    -0.9040    14.8911   171.6595 </r>
       <r>    -0.8000    17.0129   173.4289 </r>
       <r>    -0.6960     7.5999   174.2193 </r>
       <r>    -0.5920    13.8201   175.6566 </r>
       <r>    -0.4880     3.4010   176.0103 </r>
       <r>    -0.3840     1.2806   176.1435 </r>
       <r>    -0.2800    17.8713   178.0022 </r>
       <r>    -0.1759    17.7830   179.8517 </r>
       <r>    -0.0719    13.7052   181.2770 </r>
       <r>     0.0321     7.0396   182.0092 </r>
       <r>     0.1361     3.9040   182.4152 </r>
       <r>     0.2401    14.1968   183.8917 </r>
       <r>     0.3441     1.3963   184.0369 </r>
       <r>     0.4481    -0.3481   184.0007 </r>
       <r>     0.5521    -0.0071   184.0000 </r>
       <r>     0.6561    -0.0000   184.0000 </r>
       <r>     0.7601    -0.0000   184.0000 </r>
       <r>     0.8641    -0.0000   184.0000 </r>
       <r>     0.9681     0.0000   184.0000 </r>
       <r>     1.0721     0.0000   184.0000 </r>
       <r>     1.1761     0.0000   184.0000 </r>
       <r>     1.2801     0.0000   184.0000 </r>
       <r>     1.3841     0.0000   184.0000 </r>
       <r>     1.4881     0.0000   184.0000 </r>
       <r>     1.5921     0.0000   184.0000 </r>
      </set>
     </set>
    </array>
   </total>
  </dos>
 </calculation>
 <structure name="finalpos" >
  <crystal>
   <varray name="basis" >
    <v>      15.00000000       0.00000000       0.00000000 </v>
    <v>       0.00000000      15.00000000       0.00000000 </v>
    <v>       0.00000000       0.00000000      15.00000000 </v>
   </varray>
   <i name="volume">   3375.00000000 </i>
   <varray name="rec_basis" >
    <v>       0.06666667       0.00000000       0.00000000 </v>
    <v>       0.00000000       0.06666667       0.00000000 </v>
    <v>       0.00000000       0.00000000       0.06666667 </v>
   </varray>
  </crystal>
  <varray name="positions" >
   <v>       0.29291067       0.42117533       0.55435200 </v>
   <v>       0.37607600       0.55018133       0.48894800 </v>
   <v>       0.39550667       0.29282067       0.56437533 </v>
   <v>       0.53536067       0.50688667       0.48141400 </v>
   <v>       0.54937867       0.34585200       0.52831267 </v>
   <v>       0.44664200       0.43496733       0.61376867 </v>
   <v>       0.41962467       0.39893267       0.44945600 </v>
   <v>       0.22797733       0.56962800       0.54459867 </v>
   <v>       0.33494867       0.54396667       0.65278000 </v>
   <v>       0.35329467       0.68284667       0.56986800 </v>
   <v>       0.48713333       0.66894667       0.47789667 </v>
   <v>       0.61406867       0.47828467       0.61397867 </v>
   <v>       0.48626133       0.59334933       0.61793333 </v>
   <v>       0.73446000       0.49241400       0.64639000 </v>
   <v>       0.81206667       0.48997667       0.63871600 </v>
  </varray>
 </structure>
</modeling>
