<?xml version="1.0" encoding="ISO-8859-1"?>
<modeling>
 <generator>
  <i name="program" type="string">vasp </i>
  <i name="version" type="string">5.4.4.18Apr17-6-g9f103f2a35  </i>
  <i name="subversion" type="string">(build May 08 2019 13:49:07) complex            parallel </i>
  <i name="platform" type="string">LinuxIFC </i>
  <i name="date" type="string">2019 11 13 </i>
  <i name="time" type="string">13:45:22 </i>
 </generator>
 <incar>
  <i type="string" name="SYSTEM"> CuCO</i>
  <i type="int" name="ISTART">     0</i>
  <i type="string" name="PREC">accurate</i>
  <i type="string" name="ALGO"> Fast</i>
  <i type="int" name="ISPIN">     2</i>
  <i type="int" name="INIWAV">     1</i>
  <i type="int" name="NELM">   300</i>
  <i type="int" name="NELMIN">     3</i>
  <i type="int" name="IBRION">    -1</i>
  <i name="EDIFF">      0.00000010</i>
  <i name="EDIFFG">     -0.00100000</i>
  <i type="int" name="NSW">     0</i>
  <i type="int" name="ISYM">     0</i>
  <i name="ENCUT">    600.00000000</i>
  <i name="NUPDOWN">      1.00000000</i>
  <i type="logical" name="LREAL"> F  </i>
  <i type="int" name="ISMEAR">     1</i>
  <i name="SIGMA">      0.10000000</i>
  <i name="KSPACING">      0.50000000</i>
  <i type="logical" name="KGAMMA"> F  </i>
  <i type="logical" name="LWAVE"> F  </i>
  <i type="logical" name="LCHARG"> F  </i>
  <v type="int" name="KPOINT_BSE">    -1     0     0     0</v>
  <i type="int" name="NELM">   300</i>
  <i type="string" name="GGA"> PE</i>
 </incar>
 <structure name="primitive_cell" >
  <crystal>
   <varray name="basis" >
    <v>      15.00000000       0.00000000       0.00000000 </v>
    <v>       0.00000000      15.00000000       0.00000000 </v>
    <v>       0.00000000       0.00000000      15.00000000 </v>
   </varray>
   <i name="volume">   3375.00000000 </i>
   <varray name="rec_basis" >
    <v>       0.06666667       0.00000000       0.00000000 </v>
    <v>       0.00000000       0.06666667       0.00000000 </v>
    <v>       0.00000000       0.00000000       0.06666667 </v>
   </varray>
  </crystal>
  <varray name="positions" >
   <v>       0.29641600       0.42017000      -0.43740333 </v>
   <v>       0.44591600       0.43951600      -0.39363267 </v>
   <v>       0.22173533      -0.43820533      -0.44284467 </v>
   <v>       0.36647133      -0.45260400       0.49395067 </v>
   <v>       0.33238600      -0.45982800      -0.33234667 </v>
   <v>       0.39660933       0.29016400      -0.43723267 </v>
   <v>       0.41974533       0.40425200       0.44012933 </v>
   <v>       0.34392733      -0.32446667      -0.43256200 </v>
   <v>      -0.47153400      -0.49537600       0.47539867 </v>
   <v>       0.49004133      -0.40601733      -0.38847600 </v>
   <v>      -0.44923600       0.34691667      -0.46499667 </v>
   <v>       0.48068333      -0.33353333       0.47488533 </v>
   <v>      -0.35890667       0.48739467      -0.40851067 </v>
   <v>      -0.24944000      -0.49421333      -0.35020267 </v>
   <v>      -0.18045333      -0.48252800      -0.31886000 </v>
  </varray>
 </structure>
 <varray name="primitive_index" >
  <v type="int" >        1 </v>
  <v type="int" >        6 </v>
  <v type="int" >        8 </v>
  <v type="int" >        2 </v>
  <v type="int" >        9 </v>
  <v type="int" >        3 </v>
  <v type="int" >        7 </v>
  <v type="int" >       10 </v>
  <v type="int" >        4 </v>
  <v type="int" >       13 </v>
  <v type="int" >        5 </v>
  <v type="int" >       11 </v>
  <v type="int" >       12 </v>
  <v type="int" >       14 </v>
  <v type="int" >       15 </v>
 </varray>
 <kpoints>
  <generation param="Monkhorst-Pack">
   <v type="int" name="divisions">       1        1        1 </v>
   <v name="usershift">      0.00000000       0.00000000       0.00000000 </v>
   <v name="genvec1">      1.00000000       0.00000000       0.00000000 </v>
   <v name="genvec2">      0.00000000       1.00000000       0.00000000 </v>
   <v name="genvec3">      0.00000000       0.00000000       1.00000000 </v>
   <v name="shift">      0.00000000       0.00000000       0.00000000 </v>
  </generation>
  <varray name="kpointlist" >
   <v>       0.00000000       0.00000000       0.00000000 </v>
  </varray>
  <varray name="weights" >
   <v>       1.00000000 </v>
  </varray>
 </kpoints>
 <parameters>
  <separator name="general" >
   <i type="string" name="SYSTEM">CuCO</i>
   <i type="logical" name="LCOMPAT"> F  </i>
  </separator>
  <separator name="electronic" >
   <i type="string" name="PREC">accura</i>
   <i name="ENMAX">    600.00000000</i>
   <i name="ENAUG">    644.87300000</i>
   <i name="EDIFF">      0.00000010</i>
   <i type="int" name="IALGO">    68</i>
   <i type="int" name="IWAVPR">    10</i>
   <i type="int" name="NBANDS">    92</i>
   <i name="NELECT">    153.00000000</i>
   <i type="int" name="TURBO">     0</i>
   <i type="int" name="IRESTART">     0</i>
   <i type="int" name="NREBOOT">     0</i>
   <i type="int" name="NMIN">     0</i>
   <i name="EREF">      0.00000000</i>
   <separator name="electronic smearing" >
    <i type="int" name="ISMEAR">     1</i>
    <i name="SIGMA">      0.10000000</i>
    <i name="KSPACING">      0.50000000</i>
    <i type="logical" name="KGAMMA"> F  </i>
   </separator>
   <separator name="electronic projectors" >
    <i type="logical" name="LREAL"> F  </i>
    <v name="ROPT">      0.00000000      0.00000000      0.00000000</v>
    <i type="int" name="LMAXPAW">  -100</i>
    <i type="int" name="LMAXMIX">     2</i>
    <i type="logical" name="NLSPLINE"> F  </i>
   </separator>
   <separator name="electronic startup" >
    <i type="int" name="ISTART">     0</i>
    <i type="int" name="ICHARG">     2</i>
    <i type="int" name="INIWAV">     1</i>
   </separator>
   <separator name="electronic spin" >
    <i type="int" name="ISPIN">     2</i>
    <i type="logical" name="LNONCOLLINEAR"> F  </i>
    <v name="MAGMOM">      0.06666667      0.06666667      0.06666667      0.06666667      0.06666667      0.06666667      0.06666667      0.06666667      0.06666667      0.06666667      0.06666667      0.06666667      0.06666667      0.06666667      0.06666667</v>
    <i name="NUPDOWN">      1.00000000</i>
    <i type="logical" name="LSORBIT"> F  </i>
    <v name="SAXIS">      0.00000000      0.00000000      1.00000000</v>
    <i type="logical" name="LSPIRAL"> F  </i>
    <v name="QSPIRAL">      0.00000000      0.00000000      0.00000000</v>
    <i type="logical" name="LZEROZ"> F  </i>
   </separator>
   <separator name="electronic exchange-correlation" >
    <i type="logical" name="LASPH"> F  </i>
    <i type="logical" name="LMETAGGA"> F  </i>
   </separator>
   <separator name="electronic convergence" >
    <i type="int" name="NELM">   300</i>
    <i type="int" name="NELMDL">    -5</i>
    <i type="int" name="NELMIN">     3</i>
    <i name="ENINI">    600.00000000</i>
    <separator name="electronic convergence detail" >
     <i type="logical" name="LDIAG"> T  </i>
     <i type="logical" name="LSUBROT"> F  </i>
     <i name="WEIMIN">      0.00000000</i>
     <i name="EBREAK">      0.00000000</i>
     <i name="DEPER">      0.30000000</i>
     <i type="int" name="NRMM">     4</i>
     <i name="TIME">      0.40000000</i>
    </separator>
   </separator>
   <separator name="electronic mixer" >
    <i name="AMIX">      0.40000000</i>
    <i name="BMIX">      1.00000000</i>
    <i name="AMIN">      0.10000000</i>
    <i name="AMIX_MAG">      1.60000000</i>
    <i name="BMIX_MAG">      1.00000000</i>
    <separator name="electronic mixer details" >
     <i type="int" name="IMIX">     4</i>
     <i type="logical" name="MIXFIRST"> F  </i>
     <i type="int" name="MAXMIX">   -45</i>
     <i name="WC">    100.00000000</i>
     <i type="int" name="INIMIX">     1</i>
     <i type="int" name="MIXPRE">     1</i>
     <i type="int" name="MREMOVE">     5</i>
    </separator>
   </separator>
   <separator name="electronic dipolcorrection" >
    <i type="logical" name="LDIPOL"> F  </i>
    <i type="logical" name="LMONO"> F  </i>
    <i type="int" name="IDIPOL">     0</i>
    <i name="EPSILON">      1.00000000</i>
    <v name="DIPOL">   -100.00000000   -100.00000000   -100.00000000</v>
    <i name="EFIELD">      0.00000000</i>
   </separator>
  </separator>
  <separator name="grids" >
   <i type="int" name="NGX">   120</i>
   <i type="int" name="NGY">   120</i>
   <i type="int" name="NGZ">   120</i>
   <i type="int" name="NGXF">   240</i>
   <i type="int" name="NGYF">   240</i>
   <i type="int" name="NGZF">   240</i>
   <i type="logical" name="ADDGRID"> F  </i>
  </separator>
  <separator name="ionic" >
   <i type="int" name="NSW">     0</i>
   <i type="int" name="IBRION">    -1</i>
   <i type="int" name="MDALGO">     0</i>
   <i type="int" name="ISIF">     2</i>
   <i name="PSTRESS">      0.00000000</i>
   <i name="EDIFFG">     -0.00100000</i>
   <i type="int" name="NFREE">     0</i>
   <i name="POTIM">      0.50000000</i>
   <i name="SMASS">     -3.00000000</i>
   <i name="SCALEE">      1.00000000</i>
  </separator>
  <separator name="ionic md" >
   <i name="TEBEG">      0.00010000</i>
   <i name="TEEND">      0.00010000</i>
   <i type="int" name="NBLOCK">     1</i>
   <i type="int" name="KBLOCK">     1</i>
   <i type="int" name="NPACO">   256</i>
   <i name="APACO">     16.00000000</i>
  </separator>
  <separator name="symmetry" >
   <i type="int" name="ISYM">     0</i>
   <i name="SYMPREC">      0.00001000</i>
  </separator>
  <separator name="dos" >
   <i type="int" name="LORBIT">     0</i>
   <v name="RWIGS">     -1.00000000     -1.00000000     -1.00000000</v>
   <i type="int" name="NEDOS">   301</i>
   <i name="EMIN">     10.00000000</i>
   <i name="EMAX">    -10.00000000</i>
   <i name="EFERMI">      0.00000000</i>
  </separator>
  <separator name="writing" >
   <i type="int" name="NWRITE">     2</i>
   <i type="logical" name="LWAVE"> F  </i>
   <i type="logical" name="LDOWNSAMPLE"> F  </i>
   <i type="logical" name="LCHARG"> F  </i>
   <i type="logical" name="LPARD"> F  </i>
   <i type="logical" name="LVTOT"> F  </i>
   <i type="logical" name="LVHAR"> F  </i>
   <i type="logical" name="LELF"> F  </i>
   <i type="logical" name="LOPTICS"> F  </i>
   <v name="STM">      0.00000000      0.00000000      0.00000000      0.00000000      0.00000000      0.00000000      0.00000000</v>
  </separator>
  <separator name="performance" >
   <i type="int" name="NPAR">     4</i>
   <i type="int" name="NSIM">     4</i>
   <i type="int" name="NBLK">    -1</i>
   <i type="logical" name="LPLANE"> T  </i>
   <i type="logical" name="LSCALAPACK"> T  </i>
   <i type="logical" name="LSCAAWARE"> F  </i>
   <i type="logical" name="LSCALU"> F  </i>
   <i type="logical" name="LASYNC"> F  </i>
   <i type="logical" name="LORBITALREAL"> F  </i>
  </separator>
  <separator name="miscellaneous" >
   <i type="int" name="IDIOT">     3</i>
   <i type="int" name="ISPECIAL">     0</i>
   <i type="logical" name="LMUSIC"> F  </i>
   <v name="POMASS">     63.54600000     12.01100000     16.00000000</v>
   <v name="DARWINR">      0.00000000      0.00000000      0.00000000</v>
   <v name="DARWINV">      1.00000000      1.00000000      1.00000000</v>
   <i type="logical" name="LCORR"> T  </i>
  </separator>
  <i type="logical" name="GGA_COMPAT"> T  </i>
  <i type="logical" name="LBERRY"> F  </i>
  <i type="int" name="ICORELEVEL">     0</i>
  <i type="logical" name="LDAU"> F  </i>
  <i type="int" name="I_CONSTRAINED_M">     0</i>
  <separator name="electronic exchange-correlation" >
   <i type="string" name="GGA">PE</i>
   <i type="int" name="VOSKOWN">     0</i>
   <i type="logical" name="LHFCALC"> F  </i>
   <i type="string" name="PRECFOCK"></i>
   <i type="logical" name="LSYMGRAD"> F  </i>
   <i type="logical" name="LHFONE"> F  </i>
   <i type="logical" name="LRHFCALC"> F  </i>
   <i type="logical" name="LTHOMAS"> F  </i>
   <i type="logical" name="LMODELHF"> F  </i>
   <i name="ENCUT4O">     -1.00000000</i>
   <i type="int" name="EXXOEP">     0</i>
   <i type="int" name="FOURORBIT">     0</i>
   <i name="AEXX">      0.00000000</i>
   <i name="HFALPHA">      0.00000000</i>
   <i name="MCALPHA">      0.00000000</i>
   <i name="ALDAX">      1.00000000</i>
   <i name="AGGAX">      1.00000000</i>
   <i name="ALDAC">      1.00000000</i>
   <i name="AGGAC">      1.00000000</i>
   <i type="int" name="NKREDX">     1</i>
   <i type="int" name="NKREDY">     1</i>
   <i type="int" name="NKREDZ">     1</i>
   <i type="logical" name="SHIFTRED"> F  </i>
   <i type="logical" name="ODDONLY"> F  </i>
   <i type="logical" name="EVENONLY"> F  </i>
   <i type="int" name="LMAXFOCK">     0</i>
   <i type="int" name="NMAXFOCKAE">     0</i>
   <i type="logical" name="LFOCKAEDFT"> F  </i>
   <i name="HFSCREEN">      0.00000000</i>
   <i name="HFSCREENC">      0.00000000</i>
   <i type="int" name="NBANDSGWLOW">     0</i>
  </separator>
  <separator name="vdW DFT" >
   <i type="logical" name="LUSE_VDW"> F  </i>
   <i name="Zab_VDW">     -0.84910000</i>
   <i name="PARAM1">      0.12340000</i>
   <i name="PARAM2">      1.00000000</i>
   <i name="PARAM3">      0.00000000</i>
  </separator>
  <separator name="model GW" >
   <i type="int" name="MODEL_GW">     0</i>
   <i name="MODEL_EPS0">    135.00000000</i>
   <i name="MODEL_ALPHA">      1.00000000</i>
  </separator>
  <separator name="linear response parameters" >
   <i type="logical" name="LEPSILON"> F  </i>
   <i type="logical" name="LRPA"> F  </i>
   <i type="logical" name="LNABLA"> F  </i>
   <i type="logical" name="LVEL"> F  </i>
   <i type="int" name="KINTER">     0</i>
   <i name="CSHIFT">      0.10000000</i>
   <i name="OMEGAMAX">     -1.00000000</i>
   <i name="DEG_THRESHOLD">      0.00200000</i>
   <i name="RTIME">     -0.10000000</i>
   <i name="WPLASMAI">      0.00000000</i>
   <v name="DFIELD">      0.00000000      0.00000000      0.00000000</v>
   <v name="WPLASMA">      0.00000000      0.00000000      0.00000000      0.00000000      0.00000000      0.00000000      0.00000000      0.00000000      0.00000000</v>
  </separator>
  <separator name="orbital magnetization" >
   <i type="logical" name="NUCIND"> F  </i>
   <v name="MAGPOS">      0.00000000      0.00000000      0.00000000</v>
   <i type="logical" name="LNICSALL"> T  </i>
   <i type="logical" name="ORBITALMAG"> F  </i>
   <i type="logical" name="LMAGBLOCH"> F  </i>
   <i type="logical" name="LCHIMAG"> F  </i>
   <i type="logical" name="LGAUGE"> T  </i>
   <i type="int" name="MAGATOM">     0</i>
   <v name="MAGDIPOL">      0.00000000      0.00000000      0.00000000</v>
   <v name="AVECCONST">      0.00000000      0.00000000      0.00000000</v>
  </separator>
  <separator name="response functions" >
   <i type="logical" name="LADDER"> F  </i>
   <i type="logical" name="LRPAFORCE"> F  </i>
   <i type="logical" name="LFXC"> F  </i>
   <i type="logical" name="LHARTREE"> T  </i>
   <i type="int" name="IBSE">     0</i>
   <v type="int" name="KPOINT">    -1     0     0     0</v>
   <i type="logical" name="LTCTE"> F  </i>
   <i type="logical" name="LTETE"> F  </i>
   <i type="logical" name="LTRIPLET"> F  </i>
   <i type="logical" name="LFXCEPS"> F  </i>
   <i type="logical" name="LFXHEG"> F  </i>
   <i type="int" name="NATURALO">     2</i>
   <i type="logical" name="L2ORDER"> F  </i>
   <i type="logical" name="LMP2LT"> F  </i>
   <i type="logical" name="LUSEW"> F  </i>
   <i name="ENCUTGW">     -2.00000000</i>
   <i name="ENCUTGWSOFT">     -2.00000000</i>
   <i name="ENCUTLF">     -1.00000000</i>
   <i type="int" name="LMAXMP2">    -1</i>
   <i name="SCISSOR">      0.00000000</i>
   <i type="int" name="NOMEGA">     0</i>
   <i type="int" name="NOMEGAR">     0</i>
   <i type="int" name="NBANDSGW">    -1</i>
   <i type="int" name="NBANDSO">    -1</i>
   <i type="int" name="NBANDSV">    -1</i>
   <i type="int" name="NELM">   300</i>
   <i type="int" name="NELMHF">     1</i>
   <i type="int" name="DIM">     3</i>
   <i type="int" name="ANTIRES">     0</i>
   <i name="OMEGAMAX">    -30.00000000</i>
   <i name="OMEGAMIN">    -30.00000000</i>
   <i name="OMEGATL">   -200.00000000</i>
   <i type="int" name="OMEGAGRID">   140</i>
   <i name="CSHIFT">     -0.10000000</i>
   <i type="logical" name="SELFENERGY"> F  </i>
   <i type="logical" name="LSPECTRAL"> F  </i>
   <i type="logical" name="LSPECTRALGW"> F  </i>
   <i type="logical" name="LSINGLES"> F  </i>
   <i type="logical" name="LFERMIGW"> F  </i>
   <i type="logical" name="ODDONLYGW"> F  </i>
   <i type="logical" name="EVENONLYGW"> F  </i>
   <i type="int" name="NKREDLFX">     1</i>
   <i type="int" name="NKREDLFY">     1</i>
   <i type="int" name="NKREDLFZ">     1</i>
   <i type="int" name="MAXMEM">  2800</i>
   <i type="int" name="TELESCOPE">     0</i>
   <i type="int" name="TAUPAR">     1</i>
   <i type="int" name="OMEGAPAR">    -1</i>
   <i name="LAMBDA">      1.00000000</i>
  </separator>
  <separator name="External order field" >
   <i name="OFIELD_KAPPA">      0.00000000</i>
   <v name="OFIELD_K">      0.00000000      0.00000000      0.00000000</v>
   <i name="OFIELD_Q6_NEAR">      0.00000000</i>
   <i name="OFIELD_Q6_FAR">      0.00000000</i>
   <i name="OFIELD_A">      0.00000000</i>
  </separator>
 </parameters>
 <atominfo>
  <atoms>      15 </atoms>
  <types>       3 </types>
  <array name="atoms" >
   <dimension dim="1">ion</dimension>
   <field type="string">element</field>
   <field type="int">atomtype</field>
   <set>
    <rc><c>Cu</c><c>   1</c></rc>
    <rc><c>Cu</c><c>   1</c></rc>
    <rc><c>Cu</c><c>   1</c></rc>
    <rc><c>Cu</c><c>   1</c></rc>
    <rc><c>Cu</c><c>   1</c></rc>
    <rc><c>Cu</c><c>   1</c></rc>
    <rc><c>Cu</c><c>   1</c></rc>
    <rc><c>Cu</c><c>   1</c></rc>
    <rc><c>Cu</c><c>   1</c></rc>
    <rc><c>Cu</c><c>   1</c></rc>
    <rc><c>Cu</c><c>   1</c></rc>
    <rc><c>Cu</c><c>   1</c></rc>
    <rc><c>Cu</c><c>   1</c></rc>
    <rc><c>C </c><c>   2</c></rc>
    <rc><c>O </c><c>   3</c></rc>
   </set>
  </array>
  <array name="atomtypes" >
   <dimension dim="1">type</dimension>
   <field type="int">atomspertype</field>
   <field type="string">element</field>
   <field>mass</field>
   <field>valence</field>
   <field type="string">pseudopotential</field>
   <set>
    <rc><c>  13</c><c>Cu</c><c>     63.54600000</c><c>     11.00000000</c><c>  PAW_PBE Cu 22Jun2005                  </c></rc>
    <rc><c>   1</c><c>C </c><c>     12.01100000</c><c>      4.00000000</c><c>  PAW_PBE C 08Apr2002                   </c></rc>
    <rc><c>   1</c><c>O </c><c>     16.00000000</c><c>      6.00000000</c><c>  PAW_PBE O 08Apr2002                   </c></rc>
   </set>
  </array>
 </atominfo>
 <structure name="initialpos" >
  <crystal>
   <varray name="basis" >
    <v>      15.00000000       0.00000000       0.00000000 </v>
    <v>       0.00000000      15.00000000       0.00000000 </v>
    <v>       0.00000000       0.00000000      15.00000000 </v>
   </varray>
   <i name="volume">   3375.00000000 </i>
   <varray name="rec_basis" >
    <v>       0.06666667       0.00000000       0.00000000 </v>
    <v>       0.00000000       0.06666667       0.00000000 </v>
    <v>       0.00000000       0.00000000       0.06666667 </v>
   </varray>
  </crystal>
  <varray name="positions" >
   <v>       0.29641600       0.42017000       0.56259667 </v>
   <v>       0.36647133       0.54739600       0.49395067 </v>
   <v>       0.39660933       0.29016400       0.56276733 </v>
   <v>       0.52846600       0.50462400       0.47539867 </v>
   <v>       0.55076400       0.34691667       0.53500333 </v>
   <v>       0.44591600       0.43951600       0.60636733 </v>
   <v>       0.41974533       0.40425200       0.44012933 </v>
   <v>       0.22173533       0.56179467       0.55715533 </v>
   <v>       0.33238600       0.54017200       0.66765333 </v>
   <v>       0.34392733       0.67553333       0.56743800 </v>
   <v>       0.48068333       0.66646667       0.47488533 </v>
   <v>       0.64109333       0.48739467       0.59148933 </v>
   <v>       0.49004133       0.59398267       0.61152400 </v>
   <v>       0.75056000       0.50578667       0.64979733 </v>
   <v>       0.81954667       0.51747200       0.68114000 </v>
  </varray>
 </structure>
 <calculation>
  <scstep>
   <time name="dav">    7.47    7.48</time>
   <time name="total">    8.67    8.68</time>
   <energy>
    <i name="alphaZ">     41.16232785 </i>
    <i name="ewald">  16089.77148198 </i>
    <i name="hartreedc"> -33114.11040457 </i>
    <i name="XCdc">    623.21722534 </i>
    <i name="pawpsdc">  16421.75059358 </i>
    <i name="pawaedc"> -17800.06104309 </i>
    <i name="eentropy">      0.01222994 </i>
    <i name="bandstr">    192.62839360 </i>
    <i name="atom">  18662.21924712 </i>
    <i name="e_fr_energy">   1116.59005175 </i>
    <i name="e_wo_entrp">   1116.57782181 </i>
    <i name="e_0_energy">   1116.58597510 </i>
   </energy>
  </scstep>
  <scstep>
   <time name="dav">    7.39    7.40</time>
   <time name="total">    7.39    7.40</time>
   <energy>
    <i name="e_fr_energy">     88.47413521 </i>
    <i name="e_wo_entrp">     88.46784896 </i>
    <i name="e_0_energy">     88.47203980 </i>
   </energy>
  </scstep>
  <scstep>
   <time name="dav">   11.87   11.87</time>
   <time name="total">   11.87   11.87</time>
   <energy>
    <i name="e_fr_energy">    -34.14849662 </i>
    <i name="e_wo_entrp">    -34.15745036 </i>
    <i name="e_0_energy">    -34.15148120 </i>
   </energy>
  </scstep>
  <scstep>
   <time name="dav">   10.23   10.23</time>
   <time name="total">   10.23   10.23</time>
   <energy>
    <i name="e_fr_energy">    -55.38953398 </i>
    <i name="e_wo_entrp">    -55.39853203 </i>
    <i name="e_0_energy">    -55.39253333 </i>
   </energy>
  </scstep>
  <scstep>
   <time name="dav">   12.10   12.11</time>
   <time name="total">   12.78   12.79</time>
   <energy>
    <i name="e_fr_energy">    -56.71527355 </i>
    <i name="e_wo_entrp">    -56.72422729 </i>
    <i name="e_0_energy">    -56.71825813 </i>
   </energy>
  </scstep>
  <scstep>
   <time name="diag">    1.09    1.09</time>
   <time name="diis">    7.08    7.08</time>
   <time name="orth">    0.06    0.06</time>
   <time name="total">   10.06   10.07</time>
   <energy>
    <i name="e_fr_energy">    -55.78259277 </i>
    <i name="e_wo_entrp">    -55.78886904 </i>
    <i name="e_0_energy">    -55.78468486 </i>
   </energy>
  </scstep>
  <scstep>
   <time name="diag">    1.09    1.10</time>
   <time name="diis">    6.40    6.40</time>
   <time name="orth">    0.06    0.06</time>
   <time name="total">    9.40    9.40</time>
   <energy>
    <i name="e_fr_energy">    -48.91466490 </i>
    <i name="e_wo_entrp">    -48.92174153 </i>
    <i name="e_0_energy">    -48.91702378 </i>
   </energy>
  </scstep>
  <scstep>
   <time name="diag">    1.10    1.10</time>
   <time name="diis">    7.52    7.52</time>
   <time name="orth">    0.06    0.06</time>
   <time name="total">   10.52   10.53</time>
   <energy>
    <i name="e_fr_energy">    -48.73837414 </i>
    <i name="e_wo_entrp">    -48.74600264 </i>
    <i name="e_0_energy">    -48.74091697 </i>
   </energy>
  </scstep>
  <scstep>
   <time name="diag">    1.10    1.10</time>
   <time name="diis">    7.19    7.19</time>
   <time name="orth">    0.06    0.06</time>
   <time name="total">   10.19   10.20</time>
   <energy>
    <i name="e_fr_energy">    -48.64962044 </i>
    <i name="e_wo_entrp">    -48.65715329 </i>
    <i name="e_0_energy">    -48.65213139 </i>
   </energy>
  </scstep>
  <scstep>
   <time name="diag">    1.08    1.10</time>
   <time name="diis">    7.01    7.02</time>
   <time name="orth">    0.06    0.06</time>
   <time name="total">    9.99   10.03</time>
   <energy>
    <i name="e_fr_energy">    -48.58886180 </i>
    <i name="e_wo_entrp">    -48.59624264 </i>
    <i name="e_0_energy">    -48.59132208 </i>
   </energy>
  </scstep>
  <scstep>
   <time name="diag">    1.10    1.10</time>
   <time name="diis">    7.39    7.40</time>
   <time name="orth">    0.06    0.06</time>
   <time name="total">   10.40   10.41</time>
   <energy>
    <i name="e_fr_energy">    -48.57057481 </i>
    <i name="e_wo_entrp">    -48.57822176 </i>
    <i name="e_0_energy">    -48.57312379 </i>
   </energy>
  </scstep>
  <scstep>
   <time name="diag">    1.10    1.10</time>
   <time name="diis">    7.52    7.52</time>
   <time name="orth">    0.05    0.05</time>
   <time name="total">   10.53   10.53</time>
   <energy>
    <i name="e_fr_energy">    -48.56859878 </i>
    <i name="e_wo_entrp">    -48.57608091 </i>
    <i name="e_0_energy">    -48.57109282 </i>
   </energy>
  </scstep>
  <scstep>
   <time name="diag">    1.10    1.10</time>
   <time name="diis">    8.13    8.13</time>
   <time name="orth">    0.06    0.06</time>
   <time name="total">   11.13   11.14</time>
   <energy>
    <i name="e_fr_energy">    -48.56764215 </i>
    <i name="e_wo_entrp">    -48.57513917 </i>
    <i name="e_0_energy">    -48.57014116 </i>
   </energy>
  </scstep>
  <scstep>
   <time name="diag">    1.10    1.10</time>
   <time name="diis">    6.76    6.76</time>
   <time name="orth">    0.05    0.05</time>
   <time name="total">    9.77    9.77</time>
   <energy>
    <i name="e_fr_energy">    -48.56899074 </i>
    <i name="e_wo_entrp">    -48.57647233 </i>
    <i name="e_0_energy">    -48.57148460 </i>
   </energy>
  </scstep>
  <scstep>
   <time name="diag">    1.10    1.10</time>
   <time name="diis">    7.01    7.01</time>
   <time name="orth">    0.06    0.06</time>
   <time name="total">   10.01   10.02</time>
   <energy>
    <i name="e_fr_energy">    -48.57006654 </i>
    <i name="e_wo_entrp">    -48.57754221 </i>
    <i name="e_0_energy">    -48.57255843 </i>
   </energy>
  </scstep>
  <scstep>
   <time name="diag">    1.10    1.10</time>
   <time name="diis">    6.56    6.56</time>
   <time name="orth">    0.06    0.06</time>
   <time name="total">    9.57    9.58</time>
   <energy>
    <i name="e_fr_energy">    -48.57209483 </i>
    <i name="e_wo_entrp">    -48.57958733 </i>
    <i name="e_0_energy">    -48.57459233 </i>
   </energy>
  </scstep>
  <scstep>
   <time name="diag">    1.10    1.10</time>
   <time name="diis">    6.67    6.68</time>
   <time name="orth">    0.05    0.06</time>
   <time name="total">    9.68    9.69</time>
   <energy>
    <i name="e_fr_energy">    -48.57348461 </i>
    <i name="e_wo_entrp">    -48.58098153 </i>
    <i name="e_0_energy">    -48.57598358 </i>
   </energy>
  </scstep>
  <scstep>
   <time name="diag">    1.10    1.10</time>
   <time name="diis">    6.87    6.88</time>
   <time name="orth">    0.06    0.06</time>
   <time name="total">    9.89    9.89</time>
   <energy>
    <i name="e_fr_energy">    -48.57456640 </i>
    <i name="e_wo_entrp">    -48.58206291 </i>
    <i name="e_0_energy">    -48.57706524 </i>
   </energy>
  </scstep>
  <scstep>
   <time name="diag">    1.10    1.10</time>
   <time name="diis">    6.91    6.92</time>
   <time name="orth">    0.06    0.06</time>
   <time name="total">    9.93    9.93</time>
   <energy>
    <i name="e_fr_energy">    -48.57534873 </i>
    <i name="e_wo_entrp">    -48.58284105 </i>
    <i name="e_0_energy">    -48.57784617 </i>
   </energy>
  </scstep>
  <scstep>
   <time name="diag">    1.10    1.10</time>
   <time name="diis">    6.71    6.71</time>
   <time name="orth">    0.05    0.05</time>
   <time name="total">    9.72    9.73</time>
   <energy>
    <i name="e_fr_energy">    -48.57581309 </i>
    <i name="e_wo_entrp">    -48.58330587 </i>
    <i name="e_0_energy">    -48.57831069 </i>
   </energy>
  </scstep>
  <scstep>
   <time name="diag">    1.10    1.10</time>
   <time name="diis">    6.73    6.74</time>
   <time name="orth">    0.05    0.05</time>
   <time name="total">    9.75    9.75</time>
   <energy>
    <i name="e_fr_energy">    -48.57621271 </i>
    <i name="e_wo_entrp">    -48.58370149 </i>
    <i name="e_0_energy">    -48.57870897 </i>
   </energy>
  </scstep>
  <scstep>
   <time name="diag">    1.10    1.10</time>
   <time name="diis">    6.87    6.88</time>
   <time name="orth">    0.06    0.06</time>
   <time name="total">    9.88    9.89</time>
   <energy>
    <i name="e_fr_energy">    -48.57644791 </i>
    <i name="e_wo_entrp">    -48.58394027 </i>
    <i name="e_0_energy">    -48.57894536 </i>
   </energy>
  </scstep>
  <scstep>
   <time name="diag">    1.10    1.10</time>
   <time name="diis">    6.59    6.59</time>
   <time name="orth">    0.06    0.06</time>
   <time name="total">    9.61    9.62</time>
   <energy>
    <i name="e_fr_energy">    -48.57659859 </i>
    <i name="e_wo_entrp">    -48.58409106 </i>
    <i name="e_0_energy">    -48.57909608 </i>
   </energy>
  </scstep>
  <scstep>
   <time name="diag">    1.10    1.10</time>
   <time name="diis">    6.72    6.73</time>
   <time name="orth">    0.05    0.05</time>
   <time name="total">    9.75    9.75</time>
   <energy>
    <i name="e_fr_energy">    -48.57669414 </i>
    <i name="e_wo_entrp">    -48.58418683 </i>
    <i name="e_0_energy">    -48.57919170 </i>
   </energy>
  </scstep>
  <scstep>
   <time name="diag">    1.10    1.10</time>
   <time name="diis">    6.45    6.46</time>
   <time name="orth">    0.05    0.05</time>
   <time name="total">    9.48    9.48</time>
   <energy>
    <i name="e_fr_energy">    -48.57675575 </i>
    <i name="e_wo_entrp">    -48.58424817 </i>
    <i name="e_0_energy">    -48.57925322 </i>
   </energy>
  </scstep>
  <scstep>
   <time name="diag">    1.10    1.10</time>
   <time name="diis">    5.96    5.96</time>
   <time name="orth">    0.05    0.05</time>
   <time name="total">    8.98    8.98</time>
   <energy>
    <i name="e_fr_energy">    -48.57679328 </i>
    <i name="e_wo_entrp">    -48.58428562 </i>
    <i name="e_0_energy">    -48.57929072 </i>
   </energy>
  </scstep>
  <scstep>
   <time name="diag">    1.10    1.10</time>
   <time name="diis">    5.15    5.16</time>
   <time name="orth">    0.05    0.05</time>
   <time name="total">    8.18    8.19</time>
   <energy>
    <i name="e_fr_energy">    -48.57680273 </i>
    <i name="e_wo_entrp">    -48.58429505 </i>
    <i name="e_0_energy">    -48.57930017 </i>
   </energy>
  </scstep>
  <scstep>
   <time name="diag">    1.10    1.10</time>
   <time name="diis">    4.37    4.37</time>
   <time name="orth">    0.05    0.05</time>
   <time name="total">    7.41    7.41</time>
   <energy>
    <i name="e_fr_energy">    -48.57680870 </i>
    <i name="e_wo_entrp">    -48.58430109 </i>
    <i name="e_0_energy">    -48.57930616 </i>
   </energy>
  </scstep>
  <scstep>
   <time name="diag">    1.10    1.10</time>
   <time name="diis">    4.20    4.21</time>
   <time name="orth">    0.06    0.06</time>
   <time name="total">    7.24    7.25</time>
   <energy>
    <i name="e_fr_energy">    -48.57681207 </i>
    <i name="e_wo_entrp">    -48.58430440 </i>
    <i name="e_0_energy">    -48.57930952 </i>
   </energy>
  </scstep>
  <scstep>
   <time name="diag">    1.10    1.10</time>
   <time name="diis">    4.58    4.59</time>
   <time name="orth">    0.06    0.06</time>
   <time name="total">    7.64    7.64</time>
   <energy>
    <i name="e_fr_energy">    -48.57681378 </i>
    <i name="e_wo_entrp">    -48.58430605 </i>
    <i name="e_0_energy">    -48.57931121 </i>
   </energy>
  </scstep>
  <scstep>
   <time name="diag">    1.10    1.10</time>
   <time name="diis">    4.30    4.30</time>
   <time name="orth">    0.06    0.06</time>
   <time name="total">    7.35    7.35</time>
   <energy>
    <i name="e_fr_energy">    -48.57681465 </i>
    <i name="e_wo_entrp">    -48.58430699 </i>
    <i name="e_0_energy">    -48.57931209 </i>
   </energy>
  </scstep>
  <scstep>
   <time name="diag">    1.10    1.10</time>
   <time name="diis">    4.04    4.05</time>
   <time name="orth">    0.06    0.06</time>
   <time name="total">    7.10    7.11</time>
   <energy>
    <i name="e_fr_energy">    -48.57681530 </i>
    <i name="e_wo_entrp">    -48.58430761 </i>
    <i name="e_0_energy">    -48.57931274 </i>
   </energy>
  </scstep>
  <scstep>
   <time name="diag">    1.10    1.10</time>
   <time name="diis">    4.25    4.25</time>
   <time name="orth">    0.06    0.06</time>
   <time name="total">    7.31    7.32</time>
   <energy>
    <i name="e_fr_energy">    -48.57681579 </i>
    <i name="e_wo_entrp">    -48.58430812 </i>
    <i name="e_0_energy">    -48.57931323 </i>
   </energy>
  </scstep>
  <scstep>
   <time name="diag">    1.09    1.10</time>
   <time name="diis">    3.86    3.86</time>
   <time name="orth">    0.06    0.06</time>
   <time name="total">    6.92    6.92</time>
   <energy>
    <i name="e_fr_energy">    -48.57681619 </i>
    <i name="e_wo_entrp">    -48.58430851 </i>
    <i name="e_0_energy">    -48.57931363 </i>
   </energy>
  </scstep>
  <scstep>
   <time name="diag">    1.10    1.10</time>
   <time name="diis">    3.91    3.91</time>
   <time name="orth">    0.06    0.06</time>
   <time name="total">    6.99    6.99</time>
   <energy>
    <i name="e_fr_energy">    -48.57681650 </i>
    <i name="e_wo_entrp">    -48.58430881 </i>
    <i name="e_0_energy">    -48.57931394 </i>
   </energy>
  </scstep>
  <scstep>
   <time name="diag">    1.10    1.10</time>
   <time name="diis">    3.65    3.66</time>
   <time name="orth">    0.06    0.06</time>
   <time name="total">    6.74    6.74</time>
   <energy>
    <i name="e_fr_energy">    -48.57681663 </i>
    <i name="e_wo_entrp">    -48.58430894 </i>
    <i name="e_0_energy">    -48.57931406 </i>
   </energy>
  </scstep>
  <scstep>
   <time name="diag">    1.10    1.10</time>
   <time name="diis">    3.33    3.33</time>
   <time name="orth">    0.06    0.06</time>
   <time name="total">    6.42    6.42</time>
   <energy>
    <i name="e_fr_energy">    -48.57681673 </i>
    <i name="e_wo_entrp">    -48.58430904 </i>
    <i name="e_0_energy">    -48.57931417 </i>
   </energy>
  </scstep>
  <scstep>
   <time name="diag">    1.10    1.10</time>
   <time name="diis">    3.33    3.33</time>
   <time name="orth">    0.06    0.06</time>
   <time name="total">    5.67    5.67</time>
   <energy>
    <i name="alphaZ">     41.16232785 </i>
    <i name="ewald">  16089.77148198 </i>
    <i name="hartreedc"> -33075.96957350 </i>
    <i name="XCdc">    615.34467007 </i>
    <i name="pawpsdc">  17628.56741628 </i>
    <i name="pawaedc"> -19026.73148318 </i>
    <i name="eentropy">      0.00749230 </i>
    <i name="bandstr">   -982.94839567 </i>
    <i name="atom">  18662.21924712 </i>
    <i name="e_fr_energy">    -48.57681676 </i>
    <i name="e_wo_entrp">    -48.58430907 </i>
    <i name="e_0_energy">    -48.57931420 </i>
   </energy>
  </scstep>
  <structure>
   <crystal>
    <varray name="basis" >
     <v>      15.00000000       0.00000000       0.00000000 </v>
     <v>       0.00000000      15.00000000       0.00000000 </v>
     <v>       0.00000000       0.00000000      15.00000000 </v>
    </varray>
    <i name="volume">   3375.00000000 </i>
    <varray name="rec_basis" >
     <v>       0.06666667       0.00000000       0.00000000 </v>
     <v>       0.00000000       0.06666667       0.00000000 </v>
     <v>       0.00000000       0.00000000       0.06666667 </v>
    </varray>
   </crystal>
   <varray name="positions" >
    <v>       0.29641600       0.42017000       0.56259667 </v>
    <v>       0.36647133       0.54739600       0.49395067 </v>
    <v>       0.39660933       0.29016400       0.56276733 </v>
    <v>       0.52846600       0.50462400       0.47539867 </v>
    <v>       0.55076400       0.34691667       0.53500333 </v>
    <v>       0.44591600       0.43951600       0.60636733 </v>
    <v>       0.41974533       0.40425200       0.44012933 </v>
    <v>       0.22173533       0.56179467       0.55715533 </v>
    <v>       0.33238600       0.54017200       0.66765333 </v>
    <v>       0.34392733       0.67553333       0.56743800 </v>
    <v>       0.48068333       0.66646667       0.47488533 </v>
    <v>       0.64109333       0.48739467       0.59148933 </v>
    <v>       0.49004133       0.59398267       0.61152400 </v>
    <v>       0.75056000       0.50578667       0.64979733 </v>
    <v>       0.81954667       0.51747200       0.68114000 </v>
   </varray>
  </structure>
  <varray name="forces" >
   <v>      -0.31423777      -0.50615361      -0.18758716 </v>
   <v>       0.56268324      -0.40213729      -0.41459702 </v>
   <v>       0.15527703       0.24898689      -0.11976907 </v>
   <v>       0.56391014       0.52431698       0.47963050 </v>
   <v>       0.04555232       0.32551831      -0.25868640 </v>
   <v>       0.51786723      -0.09765141       0.13643309 </v>
   <v>      -0.50274691      -0.74379220       0.47766322 </v>
   <v>      -0.32806967       0.27703475      -0.00309666 </v>
   <v>       0.54521999       0.26159007      -0.41824941 </v>
   <v>       0.00416122       0.59036011       0.50771521 </v>
   <v>      -0.15016229      -0.05190666      -0.09077056 </v>
   <v>      -0.21771347      -0.00672124       0.10184476 </v>
   <v>      -0.24000259      -0.28060002       0.06879639 </v>
   <v>      -0.93368037      -0.22462428      -0.35194975 </v>
   <v>       0.29194190       0.08577962       0.07262283 </v>
  </varray>
  <varray name="stress" >
   <v>      -1.21672024      -0.08031145       0.01714013 </v>
   <v>      -0.08031145       0.61378231       0.49508182 </v>
   <v>       0.01714013       0.49508182      -0.82290118 </v>
  </varray>
  <energy>
   <i name="e_fr_energy">    -48.57681676 </i>
   <i name="e_wo_entrp">    -48.57931420 </i>
   <i name="e_0_energy">      0.00749230 </i>
  </energy>
  <time name="totalsc">  355.09  355.32</time>
  <eigenvalues>
   <array>
    <dimension dim="1">band</dimension>
    <dimension dim="2">kpoint</dimension>
    <dimension dim="3">spin</dimension>
    <field>eigene</field>
    <field>occ</field>
    <set>
     <set comment="spin 1">
      <set comment="kpoint 1">
       <r>  -28.8416    1.0000 </r>
       <r>  -13.9992    1.0000 </r>
       <r>  -11.4502    1.0000 </r>
       <r>  -11.4254    1.0000 </r>
       <r>  -11.2035    1.0000 </r>
       <r>  -10.1105    1.0000 </r>
       <r>   -8.5084    1.0000 </r>
       <r>   -8.1639    1.0000 </r>
       <r>   -7.6386    1.0000 </r>
       <r>   -7.4451    1.0000 </r>
       <r>   -7.3429    1.0000 </r>
       <r>   -7.2916    1.0000 </r>
       <r>   -7.1717    1.0000 </r>
       <r>   -7.0625    1.0000 </r>
       <r>   -6.9645    1.0000 </r>
       <r>   -6.8448    1.0000 </r>
       <r>   -6.6980    1.0000 </r>
       <r>   -6.6570    1.0000 </r>
       <r>   -6.6297    1.0000 </r>
       <r>   -6.5172    1.0000 </r>
       <r>   -6.5137    1.0000 </r>
       <r>   -6.4745    1.0000 </r>
       <r>   -6.4279    1.0000 </r>
       <r>   -6.3920    1.0000 </r>
       <r>   -6.3265    1.0000 </r>
       <r>   -6.3076    1.0000 </r>
       <r>   -6.2761    1.0000 </r>
       <r>   -6.2345    1.0000 </r>
       <r>   -6.1863    1.0000 </r>
       <r>   -6.1576    1.0000 </r>
       <r>   -6.1065    1.0000 </r>
       <r>   -6.0791    1.0000 </r>
       <r>   -6.0502    1.0000 </r>
       <r>   -5.9849    1.0000 </r>
       <r>   -5.9272    1.0000 </r>
       <r>   -5.8187    1.0000 </r>
       <r>   -5.7169    1.0000 </r>
       <r>   -5.6802    1.0000 </r>
       <r>   -5.6328    1.0000 </r>
       <r>   -5.6080    1.0000 </r>
       <r>   -5.5292    1.0000 </r>
       <r>   -5.5150    1.0000 </r>
       <r>   -5.4856    1.0000 </r>
       <r>   -5.4293    1.0000 </r>
       <r>   -5.4016    1.0000 </r>
       <r>   -5.3846    1.0000 </r>
       <r>   -5.3516    1.0000 </r>
       <r>   -5.3032    1.0000 </r>
       <r>   -5.2897    1.0000 </r>
       <r>   -5.2637    1.0000 </r>
       <r>   -5.2441    1.0000 </r>
       <r>   -5.2015    1.0000 </r>
       <r>   -5.1991    1.0000 </r>
       <r>   -5.1563    1.0000 </r>
       <r>   -5.1373    1.0000 </r>
       <r>   -5.1032    1.0000 </r>
       <r>   -5.0703    1.0000 </r>
       <r>   -5.0602    1.0000 </r>
       <r>   -5.0504    1.0000 </r>
       <r>   -5.0304    1.0000 </r>
       <r>   -5.0062    1.0000 </r>
       <r>   -4.9776    1.0000 </r>
       <r>   -4.9389    1.0000 </r>
       <r>   -4.9146    1.0000 </r>
       <r>   -4.8886    1.0000 </r>
       <r>   -4.8736    1.0000 </r>
       <r>   -4.8521    1.0000 </r>
       <r>   -4.8353    1.0000 </r>
       <r>   -4.8120    1.0000 </r>
       <r>   -4.7867    1.0000 </r>
       <r>   -4.7399    1.0000 </r>
       <r>   -4.7092    1.0000 </r>
       <r>   -4.7010    1.0000 </r>
       <r>   -4.4683    1.0000 </r>
       <r>   -4.1549    1.0000 </r>
       <r>   -4.0232    1.0000 </r>
       <r>   -3.5473    1.0000 </r>
       <r>   -2.9827   -0.0000 </r>
       <r>   -2.8963   -0.0000 </r>
       <r>   -2.5158   -0.0000 </r>
       <r>   -2.4169   -0.0000 </r>
       <r>   -1.9213   -0.0000 </r>
       <r>   -1.8565   -0.0000 </r>
       <r>   -1.7037   -0.0000 </r>
       <r>   -1.5365   -0.0000 </r>
       <r>   -1.1107   -0.0000 </r>
       <r>   -0.8826   -0.0000 </r>
       <r>   -0.6671    0.0000 </r>
       <r>   -0.3690    0.0000 </r>
       <r>   -0.2240    0.0000 </r>
       <r>   -0.1050    0.0000 </r>
       <r>    0.0327    0.0000 </r>
      </set>
     </set>
     <set comment="spin 2">
      <set comment="kpoint 1">
       <r>  -28.8272    1.0000 </r>
       <r>  -13.9709    1.0000 </r>
       <r>  -11.4273    1.0000 </r>
       <r>  -11.4009    1.0000 </r>
       <r>  -11.1679    1.0000 </r>
       <r>  -10.0685    1.0000 </r>
       <r>   -8.4865    1.0000 </r>
       <r>   -8.1141    1.0000 </r>
       <r>   -7.5984    1.0000 </r>
       <r>   -7.4192    1.0000 </r>
       <r>   -7.3084    1.0000 </r>
       <r>   -7.2437    1.0000 </r>
       <r>   -7.1416    1.0000 </r>
       <r>   -7.0348    1.0000 </r>
       <r>   -6.9240    1.0000 </r>
       <r>   -6.8143    1.0000 </r>
       <r>   -6.6706    1.0000 </r>
       <r>   -6.6334    1.0000 </r>
       <r>   -6.6002    1.0000 </r>
       <r>   -6.4927    1.0000 </r>
       <r>   -6.4865    1.0000 </r>
       <r>   -6.4554    1.0000 </r>
       <r>   -6.4014    1.0000 </r>
       <r>   -6.3698    1.0000 </r>
       <r>   -6.3054    1.0000 </r>
       <r>   -6.2825    1.0000 </r>
       <r>   -6.2546    1.0000 </r>
       <r>   -6.2066    1.0000 </r>
       <r>   -6.1639    1.0000 </r>
       <r>   -6.1327    1.0000 </r>
       <r>   -6.0815    1.0000 </r>
       <r>   -6.0611    1.0000 </r>
       <r>   -6.0187    1.0000 </r>
       <r>   -5.9653    1.0000 </r>
       <r>   -5.9020    1.0000 </r>
       <r>   -5.7936    1.0000 </r>
       <r>   -5.6846    1.0000 </r>
       <r>   -5.6616    1.0000 </r>
       <r>   -5.6004    1.0000 </r>
       <r>   -5.5822    1.0000 </r>
       <r>   -5.5005    1.0000 </r>
       <r>   -5.4903    1.0000 </r>
       <r>   -5.4631    1.0000 </r>
       <r>   -5.4023    1.0000 </r>
       <r>   -5.3769    1.0000 </r>
       <r>   -5.3530    1.0000 </r>
       <r>   -5.3262    1.0000 </r>
       <r>   -5.2774    1.0000 </r>
       <r>   -5.2617    1.0000 </r>
       <r>   -5.2409    1.0000 </r>
       <r>   -5.2152    1.0000 </r>
       <r>   -5.1794    1.0000 </r>
       <r>   -5.1767    1.0000 </r>
       <r>   -5.1366    1.0000 </r>
       <r>   -5.1121    1.0000 </r>
       <r>   -5.0772    1.0000 </r>
       <r>   -5.0483    1.0000 </r>
       <r>   -5.0387    1.0000 </r>
       <r>   -5.0347    1.0000 </r>
       <r>   -4.9971    1.0000 </r>
       <r>   -4.9863    1.0000 </r>
       <r>   -4.9581    1.0000 </r>
       <r>   -4.9094    1.0000 </r>
       <r>   -4.8892    1.0000 </r>
       <r>   -4.8574    1.0000 </r>
       <r>   -4.8420    1.0000 </r>
       <r>   -4.8239    1.0000 </r>
       <r>   -4.8004    1.0000 </r>
       <r>   -4.7896    1.0000 </r>
       <r>   -4.7542    1.0000 </r>
       <r>   -4.7062    1.0000 </r>
       <r>   -4.6804    1.0000 </r>
       <r>   -4.6719    1.0000 </r>
       <r>   -4.4290    1.0000 </r>
       <r>   -4.0940    1.0129 </r>
       <r>   -3.9887    0.9871 </r>
       <r>   -3.3294   -0.0000 </r>
       <r>   -2.9317   -0.0000 </r>
       <r>   -2.8474   -0.0000 </r>
       <r>   -2.4453   -0.0000 </r>
       <r>   -2.3440   -0.0000 </r>
       <r>   -1.8820   -0.0000 </r>
       <r>   -1.7754   -0.0000 </r>
       <r>   -1.6513   -0.0000 </r>
       <r>   -1.4347   -0.0000 </r>
       <r>   -0.9210    0.0000 </r>
       <r>   -0.8421    0.0000 </r>
       <r>   -0.6083    0.0000 </r>
       <r>   -0.2587    0.0000 </r>
       <r>   -0.1581    0.0000 </r>
       <r>   -0.0502    0.0000 </r>
       <r>    0.0827    0.0000 </r>
      </set>
     </set>
    </set>
   </array>
  </eigenvalues>
  <separator name="orbital magnetization" >
   <v name="MAGDIPOLOUT">      0.00000000      0.00000000      0.00000000</v>
  </separator>
  <dos>
   <i name="efermi">     -3.90983335 </i>
   <total>
    <array>
     <dimension dim="1">gridpoints</dimension>
     <dimension dim="2">spin</dimension>
     <field>energy</field>
     <field>total</field>
     <field>integrated</field>
     <set>
      <set comment="spin 1">
       <r>   -30.2878     0.0000     0.0000 </r>
       <r>   -30.1817     0.0000     0.0000 </r>
       <r>   -30.0757     0.0000     0.0000 </r>
       <r>   -29.9696     0.0000     0.0000 </r>
       <r>   -29.8636     0.0000     0.0000 </r>
       <r>   -29.7575     0.0000     0.0000 </r>
       <r>   -29.6515    -0.0000    -0.0000 </r>
       <r>   -29.5454    -0.0000    -0.0000 </r>
       <r>   -29.4393    -0.0000    -0.0000 </r>
       <r>   -29.3333    -0.0000    -0.0000 </r>
       <r>   -29.2272    -0.0000    -0.0000 </r>
       <r>   -29.1212    -0.0053    -0.0006 </r>
       <r>   -29.0151    -0.3159    -0.0341 </r>
       <r>   -28.9091     1.2489     0.0984 </r>
       <r>   -28.8030    14.1779     1.6020 </r>
       <r>   -28.6970     4.3175     2.0599 </r>
       <r>   -28.5909    -0.5440     2.0022 </r>
       <r>   -28.4848    -0.0211     2.0000 </r>
       <r>   -28.3788    -0.0001     2.0000 </r>
       <r>   -28.2727    -0.0000     2.0000 </r>
       <r>   -28.1667    -0.0000     2.0000 </r>
       <r>   -28.0606     0.0000     2.0000 </r>
       <r>   -27.9546     0.0000     2.0000 </r>
       <r>   -27.8485     0.0000     2.0000 </r>
       <r>   -27.7425     0.0000     2.0000 </r>
       <r>   -27.6364     0.0000     2.0000 </r>
       <r>   -27.5303     0.0000     2.0000 </r>
       <r>   -27.4243     0.0000     2.0000 </r>
       <r>   -27.3182     0.0000     2.0000 </r>
       <r>   -27.2122     0.0000     2.0000 </r>
       <r>   -27.1061     0.0000     2.0000 </r>
       <r>   -27.0001     0.0000     2.0000 </r>
       <r>   -26.8940     0.0000     2.0000 </r>
       <r>   -26.7880     0.0000     2.0000 </r>
       <r>   -26.6819     0.0000     2.0000 </r>
       <r>   -26.5758     0.0000     2.0000 </r>
       <r>   -26.4698     0.0000     2.0000 </r>
       <r>   -26.3637     0.0000     2.0000 </r>
       <r>   -26.2577     0.0000     2.0000 </r>
       <r>   -26.1516     0.0000     2.0000 </r>
       <r>   -26.0456     0.0000     2.0000 </r>
       <r>   -25.9395     0.0000     2.0000 </r>
       <r>   -25.8334     0.0000     2.0000 </r>
       <r>   -25.7274     0.0000     2.0000 </r>
       <r>   -25.6213     0.0000     2.0000 </r>
       <r>   -25.5153     0.0000     2.0000 </r>
       <r>   -25.4092     0.0000     2.0000 </r>
       <r>   -25.3032     0.0000     2.0000 </r>
       <r>   -25.1971     0.0000     2.0000 </r>
       <r>   -25.0911     0.0000     2.0000 </r>
       <r>   -24.9850     0.0000     2.0000 </r>
       <r>   -24.8789     0.0000     2.0000 </r>
       <r>   -24.7729     0.0000     2.0000 </r>
       <r>   -24.6668     0.0000     2.0000 </r>
       <r>   -24.5608     0.0000     2.0000 </r>
       <r>   -24.4547     0.0000     2.0000 </r>
       <r>   -24.3487     0.0000     2.0000 </r>
       <r>   -24.2426     0.0000     2.0000 </r>
       <r>   -24.1366     0.0000     2.0000 </r>
       <r>   -24.0305     0.0000     2.0000 </r>
       <r>   -23.9244     0.0000     2.0000 </r>
       <r>   -23.8184     0.0000     2.0000 </r>
       <r>   -23.7123     0.0000     2.0000 </r>
       <r>   -23.6063     0.0000     2.0000 </r>
       <r>   -23.5002     0.0000     2.0000 </r>
       <r>   -23.3942     0.0000     2.0000 </r>
       <r>   -23.2881     0.0000     2.0000 </r>
       <r>   -23.1821     0.0000     2.0000 </r>
       <r>   -23.0760     0.0000     2.0000 </r>
       <r>   -22.9699     0.0000     2.0000 </r>
       <r>   -22.8639     0.0000     2.0000 </r>
       <r>   -22.7578     0.0000     2.0000 </r>
       <r>   -22.6518     0.0000     2.0000 </r>
       <r>   -22.5457     0.0000     2.0000 </r>
       <r>   -22.4397     0.0000     2.0000 </r>
       <r>   -22.3336     0.0000     2.0000 </r>
       <r>   -22.2276     0.0000     2.0000 </r>
       <r>   -22.1215     0.0000     2.0000 </r>
       <r>   -22.0154     0.0000     2.0000 </r>
       <r>   -21.9094     0.0000     2.0000 </r>
       <r>   -21.8033     0.0000     2.0000 </r>
       <r>   -21.6973     0.0000     2.0000 </r>
       <r>   -21.5912     0.0000     2.0000 </r>
       <r>   -21.4852     0.0000     2.0000 </r>
       <r>   -21.3791     0.0000     2.0000 </r>
       <r>   -21.2730     0.0000     2.0000 </r>
       <r>   -21.1670     0.0000     2.0000 </r>
       <r>   -21.0609     0.0000     2.0000 </r>
       <r>   -20.9549     0.0000     2.0000 </r>
       <r>   -20.8488     0.0000     2.0000 </r>
       <r>   -20.7428     0.0000     2.0000 </r>
       <r>   -20.6367     0.0000     2.0000 </r>
       <r>   -20.5307     0.0000     2.0000 </r>
       <r>   -20.4246     0.0000     2.0000 </r>
       <r>   -20.3185     0.0000     2.0000 </r>
       <r>   -20.2125     0.0000     2.0000 </r>
       <r>   -20.1064     0.0000     2.0000 </r>
       <r>   -20.0004     0.0000     2.0000 </r>
       <r>   -19.8943     0.0000     2.0000 </r>
       <r>   -19.7883     0.0000     2.0000 </r>
       <r>   -19.6822     0.0000     2.0000 </r>
       <r>   -19.5762     0.0000     2.0000 </r>
       <r>   -19.4701     0.0000     2.0000 </r>
       <r>   -19.3640     0.0000     2.0000 </r>
       <r>   -19.2580     0.0000     2.0000 </r>
       <r>   -19.1519     0.0000     2.0000 </r>
       <r>   -19.0459     0.0000     2.0000 </r>
       <r>   -18.9398     0.0000     2.0000 </r>
       <r>   -18.8338     0.0000     2.0000 </r>
       <r>   -18.7277     0.0000     2.0000 </r>
       <r>   -18.6217     0.0000     2.0000 </r>
       <r>   -18.5156     0.0000     2.0000 </r>
       <r>   -18.4095     0.0000     2.0000 </r>
       <r>   -18.3035     0.0000     2.0000 </r>
       <r>   -18.1974     0.0000     2.0000 </r>
       <r>   -18.0914     0.0000     2.0000 </r>
       <r>   -17.9853     0.0000     2.0000 </r>
       <r>   -17.8793     0.0000     2.0000 </r>
       <r>   -17.7732     0.0000     2.0000 </r>
       <r>   -17.6672     0.0000     2.0000 </r>
       <r>   -17.5611     0.0000     2.0000 </r>
       <r>   -17.4550     0.0000     2.0000 </r>
       <r>   -17.3490     0.0000     2.0000 </r>
       <r>   -17.2429     0.0000     2.0000 </r>
       <r>   -17.1369     0.0000     2.0000 </r>
       <r>   -17.0308     0.0000     2.0000 </r>
       <r>   -16.9248     0.0000     2.0000 </r>
       <r>   -16.8187     0.0000     2.0000 </r>
       <r>   -16.7126     0.0000     2.0000 </r>
       <r>   -16.6066     0.0000     2.0000 </r>
       <r>   -16.5005     0.0000     2.0000 </r>
       <r>   -16.3945     0.0000     2.0000 </r>
       <r>   -16.2884     0.0000     2.0000 </r>
       <r>   -16.1824     0.0000     2.0000 </r>
       <r>   -16.0763     0.0000     2.0000 </r>
       <r>   -15.9703     0.0000     2.0000 </r>
       <r>   -15.8642     0.0000     2.0000 </r>
       <r>   -15.7581     0.0000     2.0000 </r>
       <r>   -15.6521     0.0000     2.0000 </r>
       <r>   -15.5460     0.0000     2.0000 </r>
       <r>   -15.4400     0.0000     2.0000 </r>
       <r>   -15.3339     0.0000     2.0000 </r>
       <r>   -15.2279     0.0000     2.0000 </r>
       <r>   -15.1218     0.0000     2.0000 </r>
       <r>   -15.0158     0.0000     2.0000 </r>
       <r>   -14.9097     0.0000     2.0000 </r>
       <r>   -14.8036    -0.0000     2.0000 </r>
       <r>   -14.6976    -0.0000     2.0000 </r>
       <r>   -14.5915    -0.0000     2.0000 </r>
       <r>   -14.4855    -0.0000     2.0000 </r>
       <r>   -14.3794    -0.0000     2.0000 </r>
       <r>   -14.2734    -0.0069     1.9993 </r>
       <r>   -14.1673    -0.3582     1.9613 </r>
       <r>   -14.0613     1.7011     2.1417 </r>
       <r>   -13.9552    14.4143     3.6704 </r>
       <r>   -13.8491     3.6290     4.0553 </r>
       <r>   -13.7431    -0.5047     4.0018 </r>
       <r>   -13.6370    -0.0165     4.0000 </r>
       <r>   -13.5310    -0.0000     4.0000 </r>
       <r>   -13.4249    -0.0000     4.0000 </r>
       <r>   -13.3189    -0.0000     4.0000 </r>
       <r>   -13.2128     0.0000     4.0000 </r>
       <r>   -13.1067     0.0000     4.0000 </r>
       <r>   -13.0007     0.0000     4.0000 </r>
       <r>   -12.8946     0.0000     4.0000 </r>
       <r>   -12.7886     0.0000     4.0000 </r>
       <r>   -12.6825     0.0000     4.0000 </r>
       <r>   -12.5765     0.0000     4.0000 </r>
       <r>   -12.4704     0.0000     4.0000 </r>
       <r>   -12.3644     0.0000     4.0000 </r>
       <r>   -12.2583    -0.0000     4.0000 </r>
       <r>   -12.1522    -0.0000     4.0000 </r>
       <r>   -12.0462    -0.0000     4.0000 </r>
       <r>   -11.9401    -0.0000     4.0000 </r>
       <r>   -11.8341    -0.0000     4.0000 </r>
       <r>   -11.7280    -0.0073     3.9992 </r>
       <r>   -11.6220    -0.4962     3.9466 </r>
       <r>   -11.5159     1.3258     4.0872 </r>
       <r>   -11.4099    26.2564     6.8719 </r>
       <r>   -11.3038    11.3773     8.0785 </r>
       <r>   -11.1977     9.6810     9.1052 </r>
       <r>   -11.0917     9.0678    10.0669 </r>
       <r>   -10.9856    -0.5497    10.0086 </r>
       <r>   -10.8796    -0.0807    10.0000 </r>
       <r>   -10.7735    -0.0004    10.0000 </r>
       <r>   -10.6675    -0.0000    10.0000 </r>
       <r>   -10.5614    -0.0000    10.0000 </r>
       <r>   -10.4554    -0.0001    10.0000 </r>
       <r>   -10.3493    -0.0355     9.9962 </r>
       <r>   -10.2432    -0.6068     9.9319 </r>
       <r>   -10.1372     5.9831    10.5664 </r>
       <r>   -10.0311    13.3013    11.9771 </r>
       <r>    -9.9251     0.4501    12.0248 </r>
       <r>    -9.8190    -0.2314    12.0003 </r>
       <r>    -9.7130    -0.0028    12.0000 </r>
       <r>    -9.6069    -0.0000    12.0000 </r>
       <r>    -9.5009    -0.0000    12.0000 </r>
       <r>    -9.3948    -0.0000    12.0000 </r>
       <r>    -9.2887    -0.0000    12.0000 </r>
       <r>    -9.1827    -0.0000    12.0000 </r>
       <r>    -9.0766    -0.0000    12.0000 </r>
       <r>    -8.9706    -0.0000    12.0000 </r>
       <r>    -8.8645    -0.0001    12.0000 </r>
       <r>    -8.7585    -0.0217    11.9977 </r>
       <r>    -8.6524    -0.5478    11.9396 </r>
       <r>    -8.5463     4.3927    12.4055 </r>
       <r>    -8.4403    14.1407    13.9052 </r>
       <r>    -8.3342     0.8641    13.9968 </r>
       <r>    -8.2282     1.1957    14.1236 </r>
       <r>    -8.1221    14.3242    15.6428 </r>
       <r>    -8.0161     3.9079    16.0572 </r>
       <r>    -7.9100    -0.5294    16.0011 </r>
       <r>    -7.8040    -0.3988    15.9588 </r>
       <r>    -7.6979     1.9336    16.1639 </r>
       <r>    -7.5918    13.9397    17.6423 </r>
       <r>    -7.4858     6.6070    18.3430 </r>
       <r>    -7.3797    18.2613    20.2797 </r>
       <r>    -7.2737    27.3728    23.1827 </r>
       <r>    -7.1676    18.0738    25.0996 </r>
       <r>    -7.0616    18.2417    27.0342 </r>
       <r>    -6.9555    19.9894    29.1542 </r>
       <r>    -6.8495    16.6276    30.9177 </r>
       <r>    -6.7434    12.8762    32.2833 </r>
       <r>    -6.6373    33.6790    35.8551 </r>
       <r>    -6.5313    36.0118    39.6744 </r>
       <r>    -6.4252    51.2935    45.1144 </r>
       <r>    -6.3192    48.2218    50.2286 </r>
       <r>    -6.2131    53.9651    55.9519 </r>
       <r>    -6.1071    52.1362    61.4812 </r>
       <r>    -6.0010    48.2562    66.5991 </r>
       <r>    -5.8950    28.5302    69.6249 </r>
       <r>    -5.7889    17.5610    71.4873 </r>
       <r>    -5.6828    30.8759    74.7619 </r>
       <r>    -5.5768    46.6775    79.7123 </r>
       <r>    -5.4707    51.3185    85.1549 </r>
       <r>    -5.3647    61.8121    91.7105 </r>
       <r>    -5.2586    71.9886    99.3453 </r>
       <r>    -5.1526    76.7953   107.4899 </r>
       <r>    -5.0465    86.5073   116.6645 </r>
       <r>    -4.9404    82.7852   125.4443 </r>
       <r>    -4.8344    86.5406   134.6225 </r>
       <r>    -4.7283    74.5817   142.5323 </r>
       <r>    -4.6223    33.5165   146.0869 </r>
       <r>    -4.5162     2.3481   146.3359 </r>
       <r>    -4.4102    14.0052   147.8213 </r>
       <r>    -4.3041     1.5516   147.9858 </r>
       <r>    -4.1981     3.0273   148.3069 </r>
       <r>    -4.0920    15.5254   149.9535 </r>
       <r>    -3.9859    15.7374   151.6225 </r>
       <r>    -3.8799     4.1411   152.0617 </r>
       <r>    -3.7738    -0.6176   151.9962 </r>
       <r>    -3.6678    -0.6315   151.9292 </r>
       <r>    -3.5617     7.8200   152.7586 </r>
       <r>    -3.4557    11.9716   154.0282 </r>
       <r>    -3.3496    -0.1038   154.0172 </r>
       <r>    -3.2436    -0.1743   153.9987 </r>
       <r>    -3.1375    -0.5007   153.9456 </r>
       <r>    -3.0314     2.4674   154.2073 </r>
       <r>    -2.9254    20.1612   156.3455 </r>
       <r>    -2.8193    15.6625   158.0066 </r>
       <r>    -2.7133     0.0314   158.0100 </r>
       <r>    -2.6072    -0.5541   157.9512 </r>
       <r>    -2.5012    12.1919   159.2442 </r>
       <r>    -2.3951    20.6059   161.4296 </r>
       <r>    -2.2891     6.0972   162.0762 </r>
       <r>    -2.1830    -0.6882   162.0033 </r>
       <r>    -2.0769    -0.5773   161.9420 </r>
       <r>    -1.9709     2.3832   162.1948 </r>
       <r>    -1.8648    22.8772   164.6210 </r>
       <r>    -1.7588    15.7183   166.2881 </r>
       <r>    -1.6527    13.2770   167.6962 </r>
       <r>    -1.5467    11.1387   168.8775 </r>
       <r>    -1.4406    10.9783   170.0418 </r>
       <r>    -1.3346    -0.3173   170.0082 </r>
       <r>    -1.2285    -0.7378   169.9299 </r>
       <r>    -1.1224     8.1945   170.7990 </r>
       <r>    -1.0164    11.0299   171.9688 </r>
       <r>    -0.9103     5.5969   172.5624 </r>
       <r>    -0.8043    12.6669   173.9058 </r>
       <r>    -0.6982     5.8501   174.5262 </r>
       <r>    -0.5922    13.3797   175.9452 </r>
       <r>    -0.4861     0.1095   175.9568 </r>
       <r>    -0.3800     7.6051   176.7634 </r>
       <r>    -0.2740    14.1126   178.2601 </r>
       <r>    -0.1679    15.8157   179.9374 </r>
       <r>    -0.0619    16.3096   181.6672 </r>
       <r>     0.0442    14.9295   183.2505 </r>
       <r>     0.1502     7.7452   184.0720 </r>
       <r>     0.2563    -0.6131   184.0069 </r>
       <r>     0.3623    -0.0651   184.0000 </r>
       <r>     0.4684    -0.0003   184.0000 </r>
       <r>     0.5745    -0.0000   184.0000 </r>
       <r>     0.6805    -0.0000   184.0000 </r>
       <r>     0.7866     0.0000   184.0000 </r>
       <r>     0.8926     0.0000   184.0000 </r>
       <r>     0.9987     0.0000   184.0000 </r>
       <r>     1.1047     0.0000   184.0000 </r>
       <r>     1.2108     0.0000   184.0000 </r>
       <r>     1.3168     0.0000   184.0000 </r>
       <r>     1.4229     0.0000   184.0000 </r>
       <r>     1.5290     0.0000   184.0000 </r>
      </set>
      <set comment="spin 2">
       <r>   -30.2878     0.0000     0.0000 </r>
       <r>   -30.1817     0.0000     0.0000 </r>
       <r>   -30.0757     0.0000     0.0000 </r>
       <r>   -29.9696     0.0000     0.0000 </r>
       <r>   -29.8636     0.0000     0.0000 </r>
       <r>   -29.7575     0.0000     0.0000 </r>
       <r>   -29.6515    -0.0000    -0.0000 </r>
       <r>   -29.5454    -0.0000    -0.0000 </r>
       <r>   -29.4393    -0.0000    -0.0000 </r>
       <r>   -29.3333    -0.0000    -0.0000 </r>
       <r>   -29.2272    -0.0000    -0.0000 </r>
       <r>   -29.1212    -0.0025    -0.0003 </r>
       <r>   -29.0151    -0.2161    -0.0232 </r>
       <r>   -28.9091     0.3205     0.0108 </r>
       <r>   -28.8030    13.0697     1.3969 </r>
       <r>   -28.6970     6.3390     2.0692 </r>
       <r>   -28.5909    -0.6134     2.0042 </r>
       <r>   -28.4848    -0.0392     2.0000 </r>
       <r>   -28.3788    -0.0001     2.0000 </r>
       <r>   -28.2727    -0.0000     2.0000 </r>
       <r>   -28.1667    -0.0000     2.0000 </r>
       <r>   -28.0606     0.0000     2.0000 </r>
       <r>   -27.9546     0.0000     2.0000 </r>
       <r>   -27.8485     0.0000     2.0000 </r>
       <r>   -27.7425     0.0000     2.0000 </r>
       <r>   -27.6364     0.0000     2.0000 </r>
       <r>   -27.5303     0.0000     2.0000 </r>
       <r>   -27.4243     0.0000     2.0000 </r>
       <r>   -27.3182     0.0000     2.0000 </r>
       <r>   -27.2122     0.0000     2.0000 </r>
       <r>   -27.1061     0.0000     2.0000 </r>
       <r>   -27.0001     0.0000     2.0000 </r>
       <r>   -26.8940     0.0000     2.0000 </r>
       <r>   -26.7880     0.0000     2.0000 </r>
       <r>   -26.6819     0.0000     2.0000 </r>
       <r>   -26.5758     0.0000     2.0000 </r>
       <r>   -26.4698     0.0000     2.0000 </r>
       <r>   -26.3637     0.0000     2.0000 </r>
       <r>   -26.2577     0.0000     2.0000 </r>
       <r>   -26.1516     0.0000     2.0000 </r>
       <r>   -26.0456     0.0000     2.0000 </r>
       <r>   -25.9395     0.0000     2.0000 </r>
       <r>   -25.8334     0.0000     2.0000 </r>
       <r>   -25.7274     0.0000     2.0000 </r>
       <r>   -25.6213     0.0000     2.0000 </r>
       <r>   -25.5153     0.0000     2.0000 </r>
       <r>   -25.4092     0.0000     2.0000 </r>
       <r>   -25.3032     0.0000     2.0000 </r>
       <r>   -25.1971     0.0000     2.0000 </r>
       <r>   -25.0911     0.0000     2.0000 </r>
       <r>   -24.9850     0.0000     2.0000 </r>
       <r>   -24.8789     0.0000     2.0000 </r>
       <r>   -24.7729     0.0000     2.0000 </r>
       <r>   -24.6668     0.0000     2.0000 </r>
       <r>   -24.5608     0.0000     2.0000 </r>
       <r>   -24.4547     0.0000     2.0000 </r>
       <r>   -24.3487     0.0000     2.0000 </r>
       <r>   -24.2426     0.0000     2.0000 </r>
       <r>   -24.1366     0.0000     2.0000 </r>
       <r>   -24.0305     0.0000     2.0000 </r>
       <r>   -23.9244     0.0000     2.0000 </r>
       <r>   -23.8184     0.0000     2.0000 </r>
       <r>   -23.7123     0.0000     2.0000 </r>
       <r>   -23.6063     0.0000     2.0000 </r>
       <r>   -23.5002     0.0000     2.0000 </r>
       <r>   -23.3942     0.0000     2.0000 </r>
       <r>   -23.2881     0.0000     2.0000 </r>
       <r>   -23.1821     0.0000     2.0000 </r>
       <r>   -23.0760     0.0000     2.0000 </r>
       <r>   -22.9699     0.0000     2.0000 </r>
       <r>   -22.8639     0.0000     2.0000 </r>
       <r>   -22.7578     0.0000     2.0000 </r>
       <r>   -22.6518     0.0000     2.0000 </r>
       <r>   -22.5457     0.0000     2.0000 </r>
       <r>   -22.4397     0.0000     2.0000 </r>
       <r>   -22.3336     0.0000     2.0000 </r>
       <r>   -22.2276     0.0000     2.0000 </r>
       <r>   -22.1215     0.0000     2.0000 </r>
       <r>   -22.0154     0.0000     2.0000 </r>
       <r>   -21.9094     0.0000     2.0000 </r>
       <r>   -21.8033     0.0000     2.0000 </r>
       <r>   -21.6973     0.0000     2.0000 </r>
       <r>   -21.5912     0.0000     2.0000 </r>
       <r>   -21.4852     0.0000     2.0000 </r>
       <r>   -21.3791     0.0000     2.0000 </r>
       <r>   -21.2730     0.0000     2.0000 </r>
       <r>   -21.1670     0.0000     2.0000 </r>
       <r>   -21.0609     0.0000     2.0000 </r>
       <r>   -20.9549     0.0000     2.0000 </r>
       <r>   -20.8488     0.0000     2.0000 </r>
       <r>   -20.7428     0.0000     2.0000 </r>
       <r>   -20.6367     0.0000     2.0000 </r>
       <r>   -20.5307     0.0000     2.0000 </r>
       <r>   -20.4246     0.0000     2.0000 </r>
       <r>   -20.3185     0.0000     2.0000 </r>
       <r>   -20.2125     0.0000     2.0000 </r>
       <r>   -20.1064     0.0000     2.0000 </r>
       <r>   -20.0004     0.0000     2.0000 </r>
       <r>   -19.8943     0.0000     2.0000 </r>
       <r>   -19.7883     0.0000     2.0000 </r>
       <r>   -19.6822     0.0000     2.0000 </r>
       <r>   -19.5762     0.0000     2.0000 </r>
       <r>   -19.4701     0.0000     2.0000 </r>
       <r>   -19.3640     0.0000     2.0000 </r>
       <r>   -19.2580     0.0000     2.0000 </r>
       <r>   -19.1519     0.0000     2.0000 </r>
       <r>   -19.0459     0.0000     2.0000 </r>
       <r>   -18.9398     0.0000     2.0000 </r>
       <r>   -18.8338     0.0000     2.0000 </r>
       <r>   -18.7277     0.0000     2.0000 </r>
       <r>   -18.6217     0.0000     2.0000 </r>
       <r>   -18.5156     0.0000     2.0000 </r>
       <r>   -18.4095     0.0000     2.0000 </r>
       <r>   -18.3035     0.0000     2.0000 </r>
       <r>   -18.1974     0.0000     2.0000 </r>
       <r>   -18.0914     0.0000     2.0000 </r>
       <r>   -17.9853     0.0000     2.0000 </r>
       <r>   -17.8793     0.0000     2.0000 </r>
       <r>   -17.7732     0.0000     2.0000 </r>
       <r>   -17.6672     0.0000     2.0000 </r>
       <r>   -17.5611     0.0000     2.0000 </r>
       <r>   -17.4550     0.0000     2.0000 </r>
       <r>   -17.3490     0.0000     2.0000 </r>
       <r>   -17.2429     0.0000     2.0000 </r>
       <r>   -17.1369     0.0000     2.0000 </r>
       <r>   -17.0308     0.0000     2.0000 </r>
       <r>   -16.9248     0.0000     2.0000 </r>
       <r>   -16.8187     0.0000     2.0000 </r>
       <r>   -16.7126     0.0000     2.0000 </r>
       <r>   -16.6066     0.0000     2.0000 </r>
       <r>   -16.5005     0.0000     2.0000 </r>
       <r>   -16.3945     0.0000     2.0000 </r>
       <r>   -16.2884     0.0000     2.0000 </r>
       <r>   -16.1824     0.0000     2.0000 </r>
       <r>   -16.0763     0.0000     2.0000 </r>
       <r>   -15.9703     0.0000     2.0000 </r>
       <r>   -15.8642     0.0000     2.0000 </r>
       <r>   -15.7581     0.0000     2.0000 </r>
       <r>   -15.6521     0.0000     2.0000 </r>
       <r>   -15.5460     0.0000     2.0000 </r>
       <r>   -15.4400     0.0000     2.0000 </r>
       <r>   -15.3339     0.0000     2.0000 </r>
       <r>   -15.2279     0.0000     2.0000 </r>
       <r>   -15.1218     0.0000     2.0000 </r>
       <r>   -15.0158     0.0000     2.0000 </r>
       <r>   -14.9097     0.0000     2.0000 </r>
       <r>   -14.8036    -0.0000     2.0000 </r>
       <r>   -14.6976    -0.0000     2.0000 </r>
       <r>   -14.5915    -0.0000     2.0000 </r>
       <r>   -14.4855    -0.0000     2.0000 </r>
       <r>   -14.3794    -0.0000     2.0000 </r>
       <r>   -14.2734    -0.0015     1.9998 </r>
       <r>   -14.1673    -0.1676     1.9821 </r>
       <r>   -14.0613    -0.0569     1.9760 </r>
       <r>   -13.9552    12.1289     3.2624 </r>
       <r>   -13.8491     7.6235     4.0709 </r>
       <r>   -13.7431    -0.6130     4.0059 </r>
       <r>   -13.6370    -0.0553     4.0000 </r>
       <r>   -13.5310    -0.0002     4.0000 </r>
       <r>   -13.4249    -0.0000     4.0000 </r>
       <r>   -13.3189    -0.0000     4.0000 </r>
       <r>   -13.2128     0.0000     4.0000 </r>
       <r>   -13.1067     0.0000     4.0000 </r>
       <r>   -13.0007     0.0000     4.0000 </r>
       <r>   -12.8946     0.0000     4.0000 </r>
       <r>   -12.7886     0.0000     4.0000 </r>
       <r>   -12.6825     0.0000     4.0000 </r>
       <r>   -12.5765     0.0000     4.0000 </r>
       <r>   -12.4704     0.0000     4.0000 </r>
       <r>   -12.3644     0.0000     4.0000 </r>
       <r>   -12.2583    -0.0000     4.0000 </r>
       <r>   -12.1522    -0.0000     4.0000 </r>
       <r>   -12.0462    -0.0000     4.0000 </r>
       <r>   -11.9401    -0.0000     4.0000 </r>
       <r>   -11.8341    -0.0000     4.0000 </r>
       <r>   -11.7280    -0.0020     3.9998 </r>
       <r>   -11.6220    -0.2483     3.9734 </r>
       <r>   -11.5159    -0.5690     3.9131 </r>
       <r>   -11.4099    20.9587     6.1359 </r>
       <r>   -11.3038    18.0316     8.0482 </r>
       <r>   -11.1977     4.6287     8.5391 </r>
       <r>   -11.0917    13.3941     9.9597 </r>
       <r>   -10.9856     0.6362    10.0271 </r>
       <r>   -10.8796    -0.2525    10.0004 </r>
       <r>   -10.7735    -0.0033    10.0000 </r>
       <r>   -10.6675    -0.0000    10.0000 </r>
       <r>   -10.5614    -0.0000    10.0000 </r>
       <r>   -10.4554    -0.0000    10.0000 </r>
       <r>   -10.3493    -0.0049     9.9995 </r>
       <r>   -10.2432    -0.3066     9.9670 </r>
       <r>   -10.1372     1.1544    10.0894 </r>
       <r>   -10.0311    14.1098    11.5858 </r>
       <r>    -9.9251     4.4798    12.0609 </r>
       <r>    -9.8190    -0.5522    12.0024 </r>
       <r>    -9.7130    -0.0223    12.0000 </r>
       <r>    -9.6069    -0.0001    12.0000 </r>
       <r>    -9.5009    -0.0000    12.0000 </r>
       <r>    -9.3948    -0.0000    12.0000 </r>
       <r>    -9.2887    -0.0000    12.0000 </r>
       <r>    -9.1827    -0.0000    12.0000 </r>
       <r>    -9.0766    -0.0000    12.0000 </r>
       <r>    -8.9706    -0.0000    12.0000 </r>
       <r>    -8.8645    -0.0000    12.0000 </r>
       <r>    -8.7585    -0.0077    11.9992 </r>
       <r>    -8.6524    -0.3763    11.9593 </r>
       <r>    -8.5463     1.9053    12.1613 </r>
       <r>    -8.4403    14.4806    13.6971 </r>
       <r>    -8.3342     3.2838    14.0454 </r>
       <r>    -8.2282    -1.0586    13.9331 </r>
       <r>    -8.1221     8.7811    14.8644 </r>
       <r>    -8.0161    11.1404    16.0459 </r>
       <r>    -7.9100    -0.3016    16.0139 </r>
       <r>    -7.8040    -0.2556    15.9868 </r>
       <r>    -7.6979    -0.3443    15.9503 </r>
       <r>    -7.5918    10.6132    17.0759 </r>
       <r>    -7.4858    10.0185    18.1384 </r>
       <r>    -7.3797    13.9967    19.6228 </r>
       <r>    -7.2737    22.9285    22.0545 </r>
       <r>    -7.1676    23.3306    24.5289 </r>
       <r>    -7.0616    18.6547    26.5073 </r>
       <r>    -6.9555    18.1545    28.4327 </r>
       <r>    -6.8495    18.3345    30.3772 </r>
       <r>    -6.7434    14.2251    31.8858 </r>
       <r>    -6.6373    27.1470    34.7649 </r>
       <r>    -6.5313    36.7903    38.6668 </r>
       <r>    -6.4252    49.5383    43.9206 </r>
       <r>    -6.3192    48.3102    49.0442 </r>
       <r>    -6.2131    53.2744    54.6942 </r>
       <r>    -6.1071    51.7548    60.1831 </r>
       <r>    -6.0010    51.2703    65.6206 </r>
       <r>    -5.8950    32.9170    69.1117 </r>
       <r>    -5.7889    17.9992    71.0206 </r>
       <r>    -5.6828    24.8377    73.6548 </r>
       <r>    -5.5768    45.2955    78.4586 </r>
       <r>    -5.4707    49.7187    83.7316 </r>
       <r>    -5.3647    58.5860    89.9450 </r>
       <r>    -5.2586    69.8083    97.3486 </r>
       <r>    -5.1526    79.2099   105.7492 </r>
       <r>    -5.0465    83.0725   114.5596 </r>
       <r>    -4.9404    84.8286   123.5561 </r>
       <r>    -4.8344    78.8511   131.9187 </r>
       <r>    -4.7283    81.6383   140.5770 </r>
       <r>    -4.6223    48.3504   145.7048 </r>
       <r>    -4.5162     3.7934   146.1071 </r>
       <r>    -4.4102    11.3943   147.3156 </r>
       <r>    -4.3041     7.0126   148.0593 </r>
       <r>    -4.1981    -1.1635   147.9359 </r>
       <r>    -4.0920     9.8263   148.9780 </r>
       <r>    -3.9859    20.1030   151.1101 </r>
       <r>    -3.8799     9.0882   152.0739 </r>
       <r>    -3.7738    -0.6059   152.0097 </r>
       <r>    -3.6678    -0.0907   152.0000 </r>
       <r>    -3.5617    -0.0468   151.9951 </r>
       <r>    -3.4557    -0.6183   151.9295 </r>
       <r>    -3.3496     6.9435   152.6659 </r>
       <r>    -3.2436    12.6457   154.0070 </r>
       <r>    -3.1375    -0.0000   154.0070 </r>
       <r>    -3.0314    -0.7765   153.9247 </r>
       <r>    -2.9254    11.4358   155.1375 </r>
       <r>    -2.8193    22.4848   157.5222 </r>
       <r>    -2.7133     5.2107   158.0748 </r>
       <r>    -2.6072    -1.1011   157.9580 </r>
       <r>    -2.5012     1.8074   158.1497 </r>
       <r>    -2.3951    17.3449   159.9892 </r>
       <r>    -2.2891    17.4641   161.8414 </r>
       <r>    -2.1830     1.9327   162.0464 </r>
       <r>    -2.0769    -0.6060   161.9821 </r>
       <r>    -1.9709    -0.1826   161.9627 </r>
       <r>    -1.8648    12.1883   163.2554 </r>
       <r>    -1.7588    19.1409   165.2854 </r>
       <r>    -1.6527    16.5765   167.0434 </r>
       <r>    -1.5467     8.9934   167.9972 </r>
       <r>    -1.4406     8.6167   168.9111 </r>
       <r>    -1.3346    10.7445   170.0506 </r>
       <r>    -1.2285    -0.3554   170.0129 </r>
       <r>    -1.1224    -0.2695   169.9843 </r>
       <r>    -1.0164    -0.5393   169.9271 </r>
       <r>    -0.9103    12.6780   171.2717 </r>
       <r>    -0.8043    22.3704   173.6442 </r>
       <r>    -0.6982     3.7817   174.0453 </r>
       <r>    -0.5922    11.5667   175.2720 </r>
       <r>    -0.4861     7.4764   176.0649 </r>
       <r>    -0.3800    -1.2958   175.9275 </r>
       <r>    -0.2740     6.9768   176.6674 </r>
       <r>    -0.1679    19.9896   178.7874 </r>
       <r>    -0.0619    19.0062   180.8031 </r>
       <r>     0.0442    15.5234   182.4495 </r>
       <r>     0.1502    13.8417   183.9175 </r>
       <r>     0.2563     1.1004   184.0342 </r>
       <r>     0.3623    -0.3171   184.0006 </r>
       <r>     0.4684    -0.0053   184.0000 </r>
       <r>     0.5745    -0.0000   184.0000 </r>
       <r>     0.6805    -0.0000   184.0000 </r>
       <r>     0.7866    -0.0000   184.0000 </r>
       <r>     0.8926     0.0000   184.0000 </r>
       <r>     0.9987     0.0000   184.0000 </r>
       <r>     1.1047     0.0000   184.0000 </r>
       <r>     1.2108     0.0000   184.0000 </r>
       <r>     1.3168     0.0000   184.0000 </r>
       <r>     1.4229     0.0000   184.0000 </r>
       <r>     1.5290     0.0000   184.0000 </r>
      </set>
     </set>
    </array>
   </total>
  </dos>
 </calculation>
 <structure name="finalpos" >
  <crystal>
   <varray name="basis" >
    <v>      15.00000000       0.00000000       0.00000000 </v>
    <v>       0.00000000      15.00000000       0.00000000 </v>
    <v>       0.00000000       0.00000000      15.00000000 </v>
   </varray>
   <i name="volume">   3375.00000000 </i>
   <varray name="rec_basis" >
    <v>       0.06666667       0.00000000       0.00000000 </v>
    <v>       0.00000000       0.06666667       0.00000000 </v>
    <v>       0.00000000       0.00000000       0.06666667 </v>
   </varray>
  </crystal>
  <varray name="positions" >
   <v>       0.29641600       0.42017000       0.56259667 </v>
   <v>       0.36647133       0.54739600       0.49395067 </v>
   <v>       0.39660933       0.29016400       0.56276733 </v>
   <v>       0.52846600       0.50462400       0.47539867 </v>
   <v>       0.55076400       0.34691667       0.53500333 </v>
   <v>       0.44591600       0.43951600       0.60636733 </v>
   <v>       0.41974533       0.40425200       0.44012933 </v>
   <v>       0.22173533       0.56179467       0.55715533 </v>
   <v>       0.33238600       0.54017200       0.66765333 </v>
   <v>       0.34392733       0.67553333       0.56743800 </v>
   <v>       0.48068333       0.66646667       0.47488533 </v>
   <v>       0.64109333       0.48739467       0.59148933 </v>
   <v>       0.49004133       0.59398267       0.61152400 </v>
   <v>       0.75056000       0.50578667       0.64979733 </v>
   <v>       0.81954667       0.51747200       0.68114000 </v>
  </varray>
 </structure>
</modeling>
