8
Lattice="12.0 0.0 0.0 0.0 12.0 0.0 0.0 0.0 12.0" Properties=species:S:1:pos:R:3:masses:R:1 i=0 E="-406.818078803107 eV" pbc="T T T"
C        6.77128474       5.99999998       6.21435135      12.01070000
C        5.22871495       5.99999998       6.21435133      12.01070000
H        4.81898298       5.99999995       5.19585730       1.00794000
H        4.81823678       6.88179540       6.72324426       1.00794000
H        4.81823661       5.11820465       6.72324434       1.00794000
H        7.18101610       6.00000007       5.19585707       1.00794000
H        7.18176260       6.88179545       6.72324443       1.00794000
H        7.18176264       5.11820452       6.72324450       1.00794000
8
Lattice="12.0 0.0 0.0 0.0 12.0 0.0 0.0 0.0 12.0" Properties=species:S:1:pos:R:3:masses:R:1 i=1 E="-399.30482754661153 eV" pbc="T T T"
C        6.59797815       6.00302073       5.74172506      12.01070000
C        5.31718031       6.01227923       4.99610367      12.01070000
H        5.54290733       6.00288096      11.02405850       1.00794000
H        4.35647141       6.09225277       5.49459141       1.00794000
H        5.30143993       5.90426952       3.91778160       1.00794000
H        7.45925040       6.04918260       5.06099362       1.00794000
H        6.68789939       6.84304659       6.45834263       1.00794000
H        6.73585934       5.09487280       6.36639323       1.00794000
8
Lattice="12.0 0.0 0.0 0.0 12.0 0.0 0.0 0.0 12.0" Properties=species:S:1:pos:R:3:masses:R:1 i=2 E="-399.36784763374175 eV" pbc="T T T"
C        6.66633589       5.99557854       5.84081454      12.01070000
C        5.28447626       6.00263986       5.30239223      12.01070000
H        5.33581220       5.98529367       9.84303898       1.00794000
H        4.57553307       5.21264332       5.51061765       1.00794000
H        4.95543994       6.78118737       4.62367191       1.00794000
H        7.43593942       5.98091062       5.04415303       1.00794000
H        6.89378842       6.90711006       6.42553966       1.00794000
H        6.84872052       5.13479816       6.49703367       1.00794000
8
Lattice="12.0 0.0 0.0 0.0 12.0 0.0 0.0 0.0 12.0" Properties=species:S:1:pos:R:3:masses:R:1 i=3 E="-401.87605042621306 eV" pbc="T T T"
C        6.73233884       5.97801888       5.96352492      12.01070000
C        5.23332670       6.03643529       5.93559062      12.01070000
H        5.15022305       6.07124407       8.17677256       1.00794000
H        4.65566636       5.13092937       5.73254788       1.00794000
H        4.84936104       6.83615282       5.26076808       1.00794000
H        7.27020291       5.94679367       5.00001962       1.00794000
H        7.07187484       6.89177577       6.46745135       1.00794000
H        7.03437642       5.10904719       6.55254135       1.00794000
8
Lattice="12.0 0.0 0.0 0.0 12.0 0.0 0.0 0.0 12.0" Properties=species:S:1:pos:R:3:masses:R:1 i=4 E="-406.82507727560443 eV" pbc="T T T"
C        6.77464009       5.99892788       6.02409036      12.01070000
C        5.22606099       6.00198187       6.06799514      12.01070000
H        4.83830317       6.06198552       7.09196064       1.00794000
H        4.80053207       5.09367281       5.62349106       1.00794000
H        4.79861197       6.85205616       5.52189739       1.00794000
H        7.16536553       5.17249629       5.41680983       1.00794000
H        7.17759200       6.92497210       5.59435920       1.00794000
H        7.21819665       5.89489477       7.02265982       1.00794000
8
Lattice="12.0 0.0 0.0 0.0 12.0 0.0 0.0 0.0 12.0" Properties=species:S:1:pos:R:3:masses:R:1 i=5 E="-406.9247612915297 eV" pbc="T T T"
C        6.76460171       5.99764109       6.00127570      12.01070000
C        5.23496789       6.00424234       6.00036206      12.01070000
H        4.83208702       6.02870357       7.02227178       1.00794000
H        4.82892900       5.10944514       5.50873545       1.00794000
H        4.83674209       6.87984243       5.46938149       1.00794000
H        7.16295573       5.12182015       6.53177761       1.00794000
H        7.16745298       5.97388771       4.97934582       1.00794000
H        7.17034463       6.89225242       6.49344021       1.00794000
