8
Lattice="12.0 0.0 0.0 0.0 12.0 0.0 0.0 0.0 12.0" Properties=species:S:1:pos:R:3:masses:R:1 E="-407.02782195477 eV" pbc="T T T"
C        6.76460171       5.99764109       6.00127570      12.01100000
C        5.23496789       6.00424234       6.00036206      12.01100000
H        4.83208702       6.02870357       7.02227178       1.00800000
H        4.82892900       5.10944514       5.50873545       1.00800000
H        4.83674209       6.87984243       5.46938149       1.00800000
H        7.16295573       5.12182015       6.53177761       1.00800000
H        7.16745298       5.97388771       4.97934582       1.00800000
H        7.17034463       6.89225242       6.49344021       1.00800000
