8
Lattice="12.0 0.0 0.0 0.0 12.0 0.0 0.0 0.0 12.0" Properties=species:S:1:pos:R:3:masses:R:1 E="-406.91494615928 eV" pbc="T T T"
C        6.77128474       5.99999998       6.21435135      12.01100000
C        5.22871495       5.99999998       6.21435133      12.01100000
H        4.81898298       5.99999995       5.19585730       1.00800000
H        4.81823678       6.88179540       6.72324426       1.00800000
H        4.81823661       5.11820465       6.72324434       1.00800000
H        7.18101610       6.00000007       5.19585707       1.00800000
H        7.18176260       6.88179545       6.72324443       1.00800000
H        7.18176264       5.11820452       6.72324450       1.00800000
