8
Lattice="12.0 0.0 0.0 0.0 12.0 0.0 0.0 0.0 12.0" Properties=species:S:1:pos:R:3:masses:R:1 E="-399.30482754661 eV" pbc="T T T"
C        6.59797815       6.00302073       5.74172506      12.01070000
C        5.31718031       6.01227923       4.99610367      12.01070000
H        5.54290733       6.00288096      11.02405850       1.00794000
H        4.35647141       6.09225277       5.49459141       1.00794000
H        5.30143993       5.90426952       3.91778160       1.00794000
H        7.45925040       6.04918260       5.06099362       1.00794000
H        6.68789939       6.84304659       6.45834263       1.00794000
H        6.73585934       5.09487280       6.36639323       1.00794000
