180
Lattice="10.239521 0.0 0.0 0.0 11.3526 0.0 0.0 0.0 27.891432" Properties=species:S:1:pos:R:3:masses:R:1 i=0 E="-123798.41215184765 eV" pbc="T T T"
Ti       6.16420919       3.39378548       0.70282722      47.86700000
Ti       7.45399749       3.38968831       4.28591050      47.86700000
Ti       8.83979103       3.39005168       7.81930290      47.86700000
Ti      -0.00195514       3.39437037      11.38095138      47.86700000
Ti       1.03650898       1.50050534       0.70550207      47.86700000
Ti       2.35597211       1.49759743       4.27768499      47.86700000
Ti       3.74693254       1.49797399       7.82241110      47.86700000
Ti       5.14425570       1.50367144      11.39322424      47.86700000
Ti       3.83055221       1.50463018       1.52405771      47.86700000
Ti       5.20033112       1.49795447       5.09915156      47.86700000
Ti       6.60210050       1.49762758       8.63571290      47.86700000
Ti       7.92419627       1.50142305      12.21781099      47.86700000
Ti       8.93834127       3.39669536       1.53010297      47.86700000
Ti       0.08937207       3.39005858       5.08201957      47.86700000
Ti       1.47832315       3.38981928       8.60455599      47.86700000
Ti       2.78339814       3.39368265      12.17099669      47.86700000
O        4.24214438       3.39035644       1.53468709      15.99940000
O        5.57247108       3.39002734       4.96657516      15.99940000
O        6.97369586       3.39005775       8.52996403      15.99940000
O        8.43558288       3.38860841      12.31390624      15.99940000
O        9.33841037       1.49791622       1.54404685      15.99940000
O        0.48173924       1.49790293       4.96366270      15.99940000
O        1.88178292       1.49798621       8.52660630      15.99940000
O        3.28392222       1.49638150      12.24244930      15.99940000
O        1.95810202       1.49904454       2.31496382      15.99940000
O        3.36831447       1.49795954       5.87922564      15.99940000
O        4.82137659       1.49784474       9.40199965      15.99940000
O        6.22621771       1.48654934      12.95435639      15.99940000
O        7.04886460       3.39113412       2.31972559      15.99940000
O        8.50733875       3.39006994       5.87029224      15.99940000
O        9.91590827       3.38992450       9.38646982      15.99940000
O        1.09019992       3.37458811      12.94129516      15.99940000
O        0.50446091       3.38832989       0.62373853      15.99940000
O        1.96548804       3.39008204       4.40400428      15.99940000
O        3.35735467       3.39004515       7.90494500      15.99940000
O        4.74630855       3.39037075      11.39476278      15.99940000
O        5.65117066       1.49633000       0.62034826      15.99940000
O        7.05835193       1.49793867       4.40652467      15.99940000
O        8.44925691       1.49792097       7.90200320      15.99940000
O        9.83465795       1.49802795      11.38730667      15.99940000
O        2.71121553       1.48422796      -0.06037534      15.99940000
O        4.16063447       1.49779097       3.49801157      15.99940000
O        5.56830781       1.49794554       7.04230816      15.99940000
O        7.03574824       1.49896742      10.60570313      15.99940000
O        7.85463608       3.37545795      -0.05934181      15.99940000
O        9.25392154       3.38983640       3.50388527      15.99940000
O        0.42676707       3.39010676       7.03835105      15.99940000
O        1.88129902       3.39134506      10.57727640      15.99940000
H        3.99453146       0.05586619      -0.98260482       1.00794000
H        4.95169475      -0.00251870      13.89741802       1.00794000
H        4.56790194       2.47880108      -1.42138483       1.00794000
O        4.83715673       3.39939202      -1.24280344      15.99940000
H        9.55604671       0.59098417      14.31609735       1.00794000
O        9.25284094       1.50807914      14.17774583      15.99940000
H       10.07549421       1.97818349      13.90400072       1.00794000
H        4.30432715       2.46863620      14.37916641       1.00794000
O        4.08865672       3.39811328      14.17648746      15.99940000
H        9.58445327       0.60034656      -1.36290883       1.00794000
O        9.91840873       1.50912107      -1.23977180      15.99940000
H        9.10948734       2.00816717      -0.97444469       1.00794000
Ti       6.16421355       7.17798225       0.70279827      47.86700000
Ti       7.45400493       7.17389204       4.28589531      47.86700000
Ti       8.83978846       7.17425585       7.81929976      47.86700000
Ti      -0.00195534       7.17858032      11.38094575      47.86700000
Ti       1.03651659       5.28471178       0.70553609      47.86700000
Ti       2.35598390       5.28180367       4.27769184      47.86700000
Ti       3.74693522       5.28218237       7.82242428      47.86700000
Ti       5.14422818       5.28787276      11.39327658      47.86700000
Ti       3.83052513       5.28883190       1.52404472      47.86700000
Ti       5.20034455       5.28216378       5.09914876      47.86700000
Ti       6.60210512       5.28183444       8.63572004      47.86700000
Ti       7.92422334       5.28558624      12.21780796      47.86700000
Ti       8.93833279       7.18090252       1.53012614      47.86700000
Ti       0.08936306       7.17424746       5.08204952      47.86700000
Ti       1.47831501       7.17400702       8.60456651      47.86700000
Ti       2.78338942       7.17792527      12.17102359      47.86700000
O        4.24212103       7.17456187       1.53467728      15.99940000
O        5.57247120       7.17423480       4.96656214      15.99940000
O        6.97369970       7.17425770       8.52995227      15.99940000
O        8.43557020       7.17280118      12.31387130      15.99940000
O        9.33839514       5.28211697       1.54404625      15.99940000
O        0.48172103       5.28210813       4.96367442      15.99940000
O        1.88176880       5.28218543       8.52660590      15.99940000
O        3.28392123       5.28057675      12.24250758      15.99940000
O        1.95809850       5.28324884       2.31498794      15.99940000
O        3.36831930       5.28214469       5.87922340      15.99940000
O        4.82136025       5.28203127       9.40203163      15.99940000
O        6.22622286       5.27073886      12.95429721      15.99940000
O        7.04887053       7.17532790       2.31971272      15.99940000
O        8.50733365       7.17426425       5.87030149      15.99940000
O        9.91589996       7.17412267       9.38646083      15.99940000
O        1.09018731       7.15879641      12.94128340      15.99940000
O        0.50446883       7.17253200       0.62376885      15.99940000
O        1.96548211       7.17427929       4.40401258      15.99940000
O        3.35734785       7.17423940       7.90496528      15.99940000
O        4.74631248       7.17461427      11.39479980      15.99940000
O        5.65117511       5.28054589       0.62038344      15.99940000
O        7.05835924       5.28215203       4.40651914      15.99940000
O        8.44925901       5.28212255       7.90200151      15.99940000
O        9.83469912       5.28221635      11.38732425      15.99940000
O        2.71121850       5.26835311      -0.06030610      15.99940000
O        4.16062672       5.28198001       3.49802477      15.99940000
O        5.56830872       5.28213985       7.04232982      15.99940000
O        7.03572864       5.28313213      10.60572270      15.99940000
O        7.85462984       7.15965338      -0.05938687      15.99940000
O        9.25392170       7.17403140       3.50389581      15.99940000
O        0.42677409       7.17430405       7.03835694      15.99940000
O        1.88127963       7.17555932      10.57730072      15.99940000
H        3.99417143       3.83894782      -0.98220578       1.00794000
H        4.95161376       3.78119437      13.89749352       1.00794000
H        4.56790029       6.26289390      -1.42121139       1.00794000
O        4.83707183       7.18354521      -1.24274821      15.99940000
H        9.55576984       4.37499842      14.31644379       1.00794000
O        9.25271533       5.29211322      14.17781294      15.99940000
H       10.07537476       5.76213294      13.90386268       1.00794000
H        4.30434642       6.25280496      14.37907969       1.00794000
O        4.08869001       7.18229022      14.17643859      15.99940000
H        9.58484871       4.38451351      -1.36317554       1.00794000
O        9.91840132       5.29337102      -1.23974820      15.99940000
H        9.10922496       5.79195194      -0.97431866       1.00794000
Ti       6.16420235      10.96218192       0.70277470      47.86700000
Ti       7.45401067      10.95809060       4.28585713      47.86700000
Ti       8.83979517      10.95845850       7.81927810      47.86700000
Ti      -0.00196221      10.96281112      11.38096108      47.86700000
Ti       1.03650825       9.06889467       0.70550483      47.86700000
Ti       2.35598320       9.06600430       4.27771097      47.86700000
Ti       3.74694042       9.06637454       7.82243479      47.86700000
Ti       5.14423809       9.07208524      11.39329781      47.86700000
Ti       3.83052648       9.07304456       1.52408420      47.86700000
Ti       5.20033556       9.06636767       5.09917605      47.86700000
Ti       6.60210438       9.06603596       8.63572286      47.86700000
Ti       7.92420693       9.06979531      12.21781753      47.86700000
Ti       8.93832087      10.96510131       1.53012728      47.86700000
Ti       0.08936771      10.95845088       5.08204189      47.86700000
Ti       1.47834743      10.95820696       8.60456941      47.86700000
Ti       2.78332982      10.96209965      12.17107435      47.86700000
O        4.24213228      10.95875407       1.53470271      15.99940000
O        5.57250319      10.95842950       4.96658381      15.99940000
O        6.97369551      10.95846169       8.52995172      15.99940000
O        8.43559245      10.95701654      12.31396062      15.99940000
O        9.33840538       9.06630756       1.54405144      15.99940000
O        0.48173139       9.06630488       4.96366967      15.99940000
O        1.88177989       9.06638004       8.52661151      15.99940000
O        3.28390603       9.06481787      12.24248548      15.99940000
O        1.95809428       9.06745243       2.31497193      15.99940000
O        3.36831180       9.06635486       5.87925756      15.99940000
O        4.82136822       9.06623758       9.40205739      15.99940000
O        6.22620736       9.05494071      12.95434786      15.99940000
O        7.04886311      10.95951910       2.31969266      15.99940000
O        8.50733375      10.95847538       5.87029467      15.99940000
O        9.91592885      10.95835001       9.38643503      15.99940000
O        1.09011718      10.94306632      12.94132347      15.99940000
O        0.50445587      10.95672399       0.62377593      15.99940000
O        1.96548730      10.95847578       4.40399703      15.99940000
O        3.35738940      10.95844456       7.90494860      15.99940000
O        4.74632753      10.95878840      11.39480483      15.99940000
O        5.65116104       9.06474026       0.62036053      15.99940000
O        7.05834367       9.06635873       4.40652334      15.99940000
O        8.44923767       9.06631757       7.90201063      15.99940000
O        9.83468201       9.06641791      11.38737809      15.99940000
O        2.71120388       9.05260222      -0.06035037      15.99940000
O        4.16060944       9.06616708       3.49804184      15.99940000
O        5.56831146       9.06636416       7.04232796      15.99940000
O        7.03575967       9.06734625      10.60573053      15.99940000
O        7.85463610      10.94391406      -0.05939152      15.99940000
O        9.25394686      10.95823650       3.50388151      15.99940000
O        0.42680629      10.95850972       7.03834772      15.99940000
O        1.88125310      10.95974606      10.57733994      15.99940000
H        3.99408364       7.62307933      -0.98236850       1.00794000
H        4.95162208       7.56537520      13.89753520       1.00794000
H        4.56660413      10.04735843      -1.42030378       1.00794000
O        4.83708720      10.96776953      -1.24271949      15.99940000
H        9.55543508       8.15907466      14.31668869       1.00794000
O        9.25268740       9.07627581      14.17777616      15.99940000
H       10.07542613       9.54603111      13.90392699       1.00794000
H        4.30485665      10.03716652      14.37873006       1.00794000
O        4.08885631      10.96662359      14.17640401      15.99940000
H        9.58433782       8.16873794      -1.36276511       1.00794000
O        9.91837888       9.07750530      -1.23978707      15.99940000
H        9.10946978       9.57664167      -0.97451258       1.00794000
180
Lattice="10.239521 0.0 0.0 0.0 11.3526 0.0 0.0 0.0 27.891432" Properties=species:S:1:pos:R:3:masses:R:1 i=1 E="-123798.38561640703 eV" pbc="T T T"
Ti       6.16533412       3.39358222       0.70259245      47.86700000
Ti       7.45708283       3.38889603       4.28731525      47.86700000
Ti       8.84519120       3.38832360       7.82299168      47.86700000
Ti       0.01741251       3.38664645      11.38945467      47.86700000
Ti       1.03644459       1.50059785       0.70493941      47.86700000
Ti       2.35617566       1.49784267       4.27666736      47.86700000
Ti       3.74786428       1.49773223       7.82112595      47.86700000
Ti       5.14484070       1.49351843      11.39333382      47.86700000
Ti       3.83071135       1.50466658       1.52463146      47.86700000
Ti       5.20079731       1.49831832       5.09969477      47.86700000
Ti       6.60244495       1.49826743       8.63686525      47.86700000
Ti       7.92337102       1.49490750      12.21969630      47.86700000
Ti       8.93822596       3.39597430       1.53482151      47.86700000
Ti       0.09126284       3.38961853       5.09276753      47.86700000
Ti       1.48143730       3.38883189       8.62442225      47.86700000
Ti       2.80596718       3.39019588      12.19755703      47.86700000
O        4.24233606       3.39035910       1.53454197      15.99940000
O        5.57249517       3.38986229       4.96639447      15.99940000
O        6.97457711       3.39007268       8.53024028      15.99940000
O        8.43874272       3.38369033      12.31453378      15.99940000
O        9.33846190       1.49802639       1.54441509      15.99940000
O        0.48160570       1.49809457       4.96421422      15.99940000
O        1.88164930       1.49824167       8.52883476      15.99940000
O        3.29282279       1.49658629      12.25450157      15.99940000
O        1.95806092       1.49911312       2.31497092      15.99940000
O        3.36854114       1.49792522       5.87881998      15.99940000
O        4.82216654       1.49574840       9.39885868      15.99940000
O        6.22577824       1.42554093      12.95453422      15.99940000
O        7.04913602       3.39104069       2.32044495      15.99940000
O        8.50769507       3.39004867       5.87427548      15.99940000
O        9.91753694       3.38903403       9.39651072      15.99940000
O        1.12838974       3.31752381      12.95835819      15.99940000
O        0.50426217       3.38840937       0.62390418      15.99940000
O        1.96542997       3.39015032       4.40502728      15.99940000
O        3.35669639       3.38971522       7.90604362      15.99940000
O        4.74438921       3.38472897      11.38227984      15.99940000
O        5.65131030       1.49636094       0.62029131      15.99940000
O        7.05885119       1.49797723       4.40670284      15.99940000
O        8.45065043       1.49815481       7.90247095      15.99940000
O        9.83536980       1.49756840      11.38750337      15.99940000
O        2.71127557       1.48410211      -0.06019902      15.99940000
O        4.16029663       1.49781763       3.49770310      15.99940000
O        5.56859475       1.49816708       7.04165701      15.99940000
O        7.03606413       1.50098977      10.60607889      15.99940000
O        7.85518352       3.37524936      -0.05810664      15.99940000
O        9.25400703       3.38982429       3.50819625      15.99940000
O        0.42845526       3.39006116       7.04482637      15.99940000
O        1.88197679       3.39266247      10.59771624      15.99940000
H        3.99464336       0.05634271      -0.98236769       1.00794000
H        4.91623339       0.08555607      13.92170772       1.00794000
H        4.56805735       2.47864874      -1.42073936       1.00794000
O        4.83717283       3.39930068      -1.24274031      15.99940000
H        9.55848070       0.59133281      14.31668553       1.00794000
O        9.25324885       1.50768304      14.17792624      15.99940000
H       10.07685637       1.97889556      13.90696469       1.00794000
H        4.47341245       2.75618909      14.42408937       1.00794000
O        4.18031173       3.62625983      14.09956848      15.99940000
H        9.58124105       0.60126224      -1.35963081       1.00794000
O        9.91808020       1.50935276      -1.23944724      15.99940000
H        9.11070997       2.01085685      -0.97343598       1.00794000
Ti       6.16411881       7.17824290       0.70267971      47.86700000
Ti       7.45453823       7.17491370       4.28635894      47.86700000
Ti       8.84026379       7.17600123       7.81984220      47.86700000
Ti      -0.00917985       7.17617336      11.37981877      47.86700000
Ti       1.03521121       5.28452390       0.70438120      47.86700000
Ti       2.35329643       5.28134432       4.27330426      47.86700000
Ti       3.73902332       5.28096403       7.81179785      47.86700000
Ti       5.13304865       5.27678722      11.36413099      47.86700000
Ti       3.83125868       5.28843488       1.52295725      47.86700000
Ti       5.20282177       5.28163679       5.09535689      47.86700000
Ti       6.60547115       5.28135868       8.62445142      47.86700000
Ti       7.91790048       5.26562364      12.21447351      47.86700000
Ti       8.93789102       7.18058261       1.53098057      47.86700000
Ti       0.08979676       7.17467878       5.08290094      47.86700000
Ti       1.47979613       7.17564945       8.60402671      47.86700000
Ti       2.77894462       7.17882489      12.16154738      47.86700000
O        4.24264285       7.17453901       1.53458400      15.99940000
O        5.57254166       7.17442269       4.96631038      15.99940000
O        6.97394381       7.17467346       8.52923400      15.99940000
O        8.43173031       7.16765806      12.31357066      15.99940000
O        9.33855302       5.28204809       1.54435679      15.99940000
O        0.48166284       5.28187702       4.96400896      15.99940000
O        1.88161143       5.28112045       8.52669300      15.99940000
O        3.28260104       5.28681896      12.22785901      15.99940000
O        1.95784015       5.28321643       2.31485510      15.99940000
O        3.36824198       5.28201572       5.87808924      15.99940000
O        4.82166078       5.28138740       9.39391450      15.99940000
O        6.21998999       5.14496399      12.95010834      15.99940000
O        7.04893920       7.17527837       2.31966955      15.99940000
O        8.50675329       7.17420762       5.87003424      15.99940000
O        9.91440230       7.17348483       9.38597988      15.99940000
O        1.08623455       7.15934101      12.93658359      15.99940000
O        0.50436885       7.17242577       0.62362283      15.99940000
O        1.96545129       7.17409316       4.40416294      15.99940000
O        3.35700470       7.17433936       7.90440946      15.99940000
O        4.74972036       7.17219445      11.39942095      15.99940000
O        5.65129954       5.28049445       0.62025111      15.99940000
O        7.05879994       5.28196418       4.40634070      15.99940000
O        8.45046046       5.28157125       7.90191008      15.99940000
O        9.83625089       5.27564089      11.39117375      15.99940000
O        2.71099292       5.26830893      -0.06016061      15.99940000
O        4.15999745       5.28197086       3.49717275      15.99940000
O        5.56815968       5.28221443       7.03925113      15.99940000
O        7.03218519       5.28821913      10.60352482      15.99940000
O        7.85479089       7.15956379      -0.05945685      15.99940000
O        9.25400552       7.17407334       3.50399934      15.99940000
O        0.42577102       7.17439020       7.03779931      15.99940000
O        1.88037300       7.17619607      10.56361021      15.99940000
H        3.99405434       3.83864471      -0.98211701       1.00794000
H        5.02298864       4.05407052      13.75896553       1.00794000
H        4.56783782       6.26323181      -1.42177366       1.00794000
O        4.83709142       7.18364114      -1.24277211      15.99940000
H        9.56550559       4.37993106      14.32539102       1.00794000
O        9.25274454       5.29220143      14.17820500      15.99940000
H       10.06844319       5.77118722      13.89974193       1.00794000
H        4.15381118       6.24152085      14.42508231       1.00794000
O        4.01037722       7.17522527      14.17815048      15.99940000
H        9.57958628       4.38487728      -1.35614157       1.00794000
O        9.91792699       5.29295528      -1.23943882      15.99940000
H        9.11113287       5.79634091      -0.97518334       1.00794000
Ti       6.16407919      10.96225391       0.70276056      47.86700000
Ti       7.45457565      10.95804347       4.28636978      47.86700000
Ti       8.84107810      10.95844753       7.81986888      47.86700000
Ti       0.00019206      10.96180855      11.38312001      47.86700000
Ti       1.03635635       9.06907626       0.70524338      47.86700000
Ti       2.35656985       9.06620821       4.27715967      47.86700000
Ti       3.74919973       9.06728240       7.82286842      47.86700000
Ti       5.14533423       9.07114587      11.39646594      47.86700000
Ti       3.83053330       9.07292594       1.52450617      47.86700000
Ti       5.20011734       9.06652517       5.10042968      47.86700000
Ti       6.60251955       9.06643159       8.63953457      47.86700000
Ti       7.92476951       9.06694690      12.21995611      47.86700000
Ti       8.93800780      10.96464005       1.53125611      47.86700000
Ti       0.09023242      10.95848312       5.08388533      47.86700000
Ti       1.47888807      10.95779994       8.60997723      47.86700000
Ti       2.78346738      10.96037492      12.18793617      47.86700000
O        4.24265728      10.95872606       1.53481173      15.99940000
O        5.57254146      10.95841927       4.96653230      15.99940000
O        6.97436334      10.95861385       8.53025717      15.99940000
O        8.43690813      10.95535960      12.31338618      15.99940000
O        9.33843090       9.06635701       1.54410417      15.99940000
O        0.48162333       9.06637154       4.96370023      15.99940000
O        1.88164300       9.06740380       8.52668218      15.99940000
O        3.28384738       9.06468433      12.24226882      15.99940000
O        1.95807111       9.06744527       2.31497438      15.99940000
O        3.36851720       9.06635087       5.87910740      15.99940000
O        4.82132257       9.06528307       9.40325293      15.99940000
O        6.22665759       9.05551089      12.95511904      15.99940000
O        7.04900006      10.95947726       2.31994675      15.99940000
O        8.50781250      10.95850576       5.87126649      15.99940000
O        9.91674400      10.95817087       9.38755320      15.99940000
O        1.08550565      10.94288110      12.94636058      15.99940000
O        0.50443954      10.95676754       0.62376024      15.99940000
O        1.96547072      10.95854404       4.40427488      15.99940000
O        3.35711830      10.95846180       7.90534118      15.99940000
O        4.74409850      10.95668703      11.39151214      15.99940000
O        5.65125740       9.06476530       0.62024868      15.99940000
O        7.05852108       9.06652939       4.40657775      15.99940000
O        8.44955140       9.06664094       7.90212022      15.99940000
O        9.83431022       9.06518464      11.38738975      15.99940000
O        2.71126372       9.05250388      -0.06014392      15.99940000
O        4.16032767       9.06619365       3.49792129      15.99940000
O        5.56830952       9.06650561       7.04294593      15.99940000
O        7.03602411       9.06712230      10.60625678      15.99940000
O        7.85477999      10.94381641      -0.05911016      15.99940000
O        9.25408260      10.95826258       3.50473519      15.99940000
O        0.42876564      10.95865864       7.04016039      15.99940000
O        1.88127917      10.96042720      10.59173490      15.99940000
H        3.99398981       7.62324237      -0.98243007       1.00794000
H        4.90267393       7.49776361      13.92130465       1.00794000
H        4.56615996      10.04753652      -1.41986010       1.00794000
O        4.83701201      10.96785600      -1.24266963      15.99940000
H        9.55856914       8.16016853      14.31768522       1.00794000
O        9.25279134       9.07606540      14.17777211      15.99940000
H       10.07447025       9.54860691      13.90495525       1.00794000
H        4.38777808      10.04765838      14.32305157       1.00794000
O        4.08933240      10.96488302      14.17542355      15.99940000
H        9.58190539       8.16939956      -1.36017492       1.00794000
O        9.91813614       9.07763693      -1.23961538      15.99940000
H        9.11021645       9.57874773      -0.97467552       1.00794000
180
Lattice="10.239521 0.0 0.0 0.0 11.3526 0.0 0.0 0.0 27.891432" Properties=species:S:1:pos:R:3:masses:R:1 i=2 E="-123797.88809162867 eV" pbc="T T T"
Ti       6.16849943       3.39287519       0.70109692      47.86700000
Ti       7.46443683       3.38658636       4.28715409      47.86700000
Ti       8.86357707       3.38595572       7.82511462      47.86700000
Ti       0.07852515       3.37821976      11.39332923      47.86700000
Ti       1.03657945       1.50066793       0.70446296      47.86700000
Ti       2.35574858       1.49828026       4.27598595      47.86700000
Ti       3.74664445       1.49873043       7.81883540      47.86700000
Ti       5.14185677       1.49003359      11.38804096      47.86700000
Ti       3.83091895       1.50531053       1.52443769      47.86700000
Ti       5.20118989       1.49944799       5.09828471      47.86700000
Ti       6.60227277       1.50163920       8.63142363      47.86700000
Ti       7.92086893       1.49360863      12.21863668      47.86700000
Ti       8.93887045       3.39538410       1.54209587      47.86700000
Ti       0.09515238       3.38810774       5.11635283      47.86700000
Ti       1.49463574       3.38534888       8.69215801      47.86700000
Ti       2.87057548       3.38457591      12.35368839      47.86700000
O        4.24143980       3.39049525       1.53413341      15.99940000
O        5.57238358       3.38975820       4.96588892      15.99940000
O        6.97450688       3.39153508       8.53228741      15.99940000
O        8.43578192       3.38235264      12.31607242      15.99940000
O        9.33849112       1.49796846       1.54468199      15.99940000
O        0.48150792       1.49791805       4.96435449      15.99940000
O        1.88116954       1.49777776       8.52926361      15.99940000
O        3.29699009       1.49287994      12.31472759      15.99940000
O        1.95794846       1.49914505       2.31479942      15.99940000
O        3.36858373       1.49784690       5.87771583      15.99940000
O        4.82380168       1.49048734       9.39002237      15.99940000
O        6.22459754       1.42690478      12.94733874      15.99940000
O        7.04909106       3.39105514       2.32047235      15.99940000
O        8.50550913       3.39030267       5.87720904      15.99940000
O        9.91494701       3.38948561       9.41757001      15.99940000
O        1.13870657       3.31703146      13.00275313      15.99940000
O        0.50413253       3.38868636       0.62409803      15.99940000
O        1.96559119       3.39055343       4.40609891      15.99940000
O        3.35579085       3.38962258       7.90812826      15.99940000
O        4.67977352       3.37345514      11.30428684      15.99940000
O        5.65142945       1.49634833       0.62031054      15.99940000
O        7.05954788       1.49779698       4.40626101      15.99940000
O        8.45298096       1.49895634       7.90262071      15.99940000
O        9.84006089       1.49900773      11.39005030      15.99940000
O        2.71113255       1.48418557      -0.06047728      15.99940000
O        4.16006695       1.49781689       3.49695867      15.99940000
O        5.56909855       1.49860638       7.03856090      15.99940000
O        7.03394974       1.50197031      10.60444826      15.99940000
O        7.85585614       3.37514614      -0.05720021      15.99940000
O        9.25360292       3.38982028       3.51315828      15.99940000
O        0.42591382       3.39026005       7.05318890      15.99940000
O        1.87937894       3.38978972      10.61841054      15.99940000
H        3.99454030       0.05622985      -0.98266349       1.00794000
H        4.90720484       0.10075763      13.93311503       1.00794000
H        4.56882584       2.47861261      -1.42188960       1.00794000
O        4.83737884       3.39921866      -1.24281391      15.99940000
H        9.55814404       0.59227197      14.31940347       1.00794000
O        9.25255054       1.50786299      14.17749120      15.99940000
H       10.07716595       1.98078325      13.91163552       1.00794000
H        4.47685346       2.86398934      14.35844405       1.00794000