180
Lattice="10.239521 0.0 0.0 0.0 11.3526 0.0 0.0 0.0 27.891432" Properties=species:S:1:pos:R:3:masses:R:1 E="-123797.88809163 eV" pbc="T T T"
Ti       6.16849943       3.39287519       0.70109692      47.86700000
Ti       7.46443683       3.38658636       4.28715409      47.86700000
Ti       8.86357707       3.38595572       7.82511462      47.86700000
Ti       0.07852515       3.37821976      11.39332923      47.86700000
Ti       1.03657945       1.50066793       0.70446296      47.86700000
Ti       2.35574858       1.49828026       4.27598595      47.86700000
Ti       3.74664445       1.49873043       7.81883540      47.86700000
Ti       5.14185677       1.49003359      11.38804096      47.86700000
Ti       3.83091895       1.50531053       1.52443769      47.86700000
Ti       5.20118989       1.49944799       5.09828471      47.86700000
Ti       6.60227277       1.50163920       8.63142363      47.86700000
Ti       7.92086893       1.49360863      12.21863668      47.86700000
Ti       8.93887045       3.39538410       1.54209587      47.86700000
Ti       0.09515238       3.38810774       5.11635283      47.86700000
Ti       1.49463574       3.38534888       8.69215801      47.86700000
Ti       2.87057548       3.38457591      12.35368839      47.86700000
O        4.24143980       3.39049525       1.53413341      15.99940000
O        5.57238358       3.38975820       4.96588892      15.99940000
O        6.97450688       3.39153508       8.53228741      15.99940000
O        8.43578192       3.38235264      12.31607242      15.99940000
O        9.33849112       1.49796846       1.54468199      15.99940000
O        0.48150792       1.49791805       4.96435449      15.99940000
O        1.88116954       1.49777776       8.52926361      15.99940000
O        3.29699009       1.49287994      12.31472759      15.99940000
O        1.95794846       1.49914505       2.31479942      15.99940000
O        3.36858373       1.49784690       5.87771583      15.99940000
O        4.82380168       1.49048734       9.39002237      15.99940000
O        6.22459754       1.42690478      12.94733874      15.99940000
O        7.04909106       3.39105514       2.32047235      15.99940000
O        8.50550913       3.39030267       5.87720904      15.99940000
O        9.91494701       3.38948561       9.41757001      15.99940000
O        1.13870657       3.31703146      13.00275313      15.99940000
O        0.50413253       3.38868636       0.62409803      15.99940000
O        1.96559119       3.39055343       4.40609891      15.99940000
O        3.35579085       3.38962258       7.90812826      15.99940000
O        4.67977352       3.37345514      11.30428684      15.99940000
O        5.65142945       1.49634833       0.62031054      15.99940000
O        7.05954788       1.49779698       4.40626101      15.99940000
O        8.45298096       1.49895634       7.90262071      15.99940000
O        9.84006089       1.49900773      11.39005030      15.99940000
O        2.71113255       1.48418557      -0.06047728      15.99940000
O        4.16006695       1.49781689       3.49695867      15.99940000
O        5.56909855       1.49860638       7.03856090      15.99940000
O        7.03394974       1.50197031      10.60444826      15.99940000
O        7.85585614       3.37514614      -0.05720021      15.99940000
O        9.25360292       3.38982028       3.51315828      15.99940000
O        0.42591382       3.39026005       7.05318890      15.99940000
O        1.87937894       3.38978972      10.61841054      15.99940000
H        3.99454030       0.05622985      -0.98266349       1.00794000
H        4.90720484       0.10075763      13.93311503       1.00794000
H        4.56882584       2.47861261      -1.42188960       1.00794000
O        4.83737884       3.39921866      -1.24281391      15.99940000
H        9.55814404       0.59227197      14.31940347       1.00794000
O        9.25255054       1.50786299      14.17749120      15.99940000
H       10.07716595       1.98078325      13.91163552       1.00794000
H        4.47685346       2.86398934      14.35844405       1.00794000
O        4.18806616       3.69972110      13.94659889      15.99940000
H        9.58107434       0.60177900      -1.36028335       1.00794000
O        9.91809757       1.50968020      -1.23920948      15.99940000
H        9.11094216       2.01128374      -0.97248785       1.00794000
Ti       6.16416191       7.17862853       0.70255480      47.86700000
Ti       7.45543156       7.17697592       4.28659994      47.86700000
Ti       8.84026430       7.17766061       7.82136566      47.86700000
Ti      -0.01768349       7.17852183      11.38360432      47.86700000
Ti       1.03266170       5.28416059       0.70213554      47.86700000
Ti       2.34383353       5.28010762       4.26341592      47.86700000
Ti       3.71233599       5.27766492       7.78021717      47.86700000
Ti       5.06125919       5.25487124      11.28998711      47.86700000
Ti       3.83328977       5.28780261       1.52001465      47.86700000
Ti       5.20939726       5.27990831       5.08397712      47.86700000
Ti       6.60540833       5.27791966       8.60320388      47.86700000
Ti       7.91711359       5.22001550      12.20410463      47.86700000
Ti       8.93759279       7.18074411       1.53162352      47.86700000
Ti       0.08976808       7.17567071       5.08527974      47.86700000
Ti       1.48002741       7.17847164       8.60677571      47.86700000
Ti       2.77550469       7.18687656      12.16007045      47.86700000
O        4.24278807       7.17453405       1.53440716      15.99940000
O        5.57292264       7.17470125       4.96598607      15.99940000
O        6.97485076       7.17368595       8.53065240      15.99940000
O        8.41918781       7.15049455      12.31205395      15.99940000
O        9.33885369       5.28219142       1.54461331      15.99940000
O        0.48173806       5.28216619       4.96403466      15.99940000
O        1.88073738       5.28142003       8.52652520      15.99940000
O        3.27370477       5.29699929      12.16505256      15.99940000
O        1.95738165       5.28325178       2.31480943      15.99940000
O        3.36749625       5.28211877       5.87495762      15.99940000
O        4.81392277       5.28512467       9.37923429      15.99940000
O        6.13854833       4.98325717      13.00553970      15.99940000
O        7.04897379       7.17529323       2.31971607      15.99940000
O        8.50656273       7.17393194       5.87097387      15.99940000
O        9.91365908       7.17211501       9.38800663      15.99940000
O        1.08223338       7.15843684      12.93606311      15.99940000
O        0.50431329       7.17217672       0.62344552      15.99940000
O        1.96541719       7.17378793       4.40466853      15.99940000
O        3.35592428       7.17478445       7.90434814      15.99940000
O        4.75256609       7.17287799      11.39946566      15.99940000
O        5.65133534       5.28052401       0.62022769      15.99940000
O        7.05942875       5.28210908       4.40542307      15.99940000
O        8.44990989       5.28108625       7.90359204      15.99940000
O        9.81641968       5.26794486      11.40071463      15.99940000
O        2.71034263       5.26843410      -0.05995164      15.99940000
O        4.15941688       5.28201383       3.49613988      15.99940000
O        5.56777315       5.28215689       7.03553820      15.99940000
O        6.97826200       5.28934260      10.62766459      15.99940000
O        7.85490332       7.15945168      -0.05925290      15.99940000
O        9.25406153       7.17415073       3.50481027      15.99940000
O        0.42533643       7.17450197       7.03901198      15.99940000
O        1.87674441       7.17917118      10.56307213      15.99940000
H        3.99392525       3.83783275      -0.98237571       1.00794000
H        5.32706819       4.31274007      13.53313329       1.00794000
H        4.56843184       6.26354808      -1.42356049       1.00794000
O        4.83718905       7.18373376      -1.24277091      15.99940000
H        9.57039032       4.38204447      14.33460313       1.00794000
O        9.24966477       5.29027483      14.17890713      15.99940000
H       10.06124442       5.77333748      13.89648404       1.00794000
H        4.15264037       6.22979242      14.41492202       1.00794000
O        4.00802545       7.16798961      14.17676246      15.99940000
H        9.57918582       4.38462867      -1.35535990       1.00794000
O        9.91791261       5.29272804      -1.23915026      15.99940000
H        9.11115968       5.79660913      -0.97540307       1.00794000
Ti       6.16423159      10.96246921       0.70267018      47.86700000
Ti       7.45511715      10.95843560       4.28679781      47.86700000
Ti       8.84125662      10.95927835       7.82100356      47.86700000
Ti       0.00034647      10.96716472      11.38441328      47.86700000
Ti       1.03602670       9.06943192       0.70505284      47.86700000
Ti       2.35616274       9.06678569       4.27641355      47.86700000
Ti       3.74922772       9.06816442       7.82192982      47.86700000
Ti       5.14694218       9.06680374      11.39632516      47.86700000
Ti       3.83062320       9.07325810       1.52375060      47.86700000
Ti       5.19951717       9.06704185       5.09945402      47.86700000
Ti       6.60174987       9.06757313       8.63840123      47.86700000
Ti       7.92500254       9.06111296      12.22042263      47.86700000
Ti       8.93782768      10.96478837       1.53197890      47.86700000
Ti       0.09043544      10.95910154       5.08582825      47.86700000
Ti       1.47967203      10.95877132       8.61271447      47.86700000
Ti       2.78308754      10.96106101      12.19973443      47.86700000
O        4.24266171      10.95861290       1.53470454      15.99940000
O        5.57281201      10.95827104       4.96629421      15.99940000
O        6.97548975      10.95851739       8.53007555      15.99940000
O        8.43649604      10.95462344      12.31196757      15.99940000
O        9.33847686       9.06624423       1.54417108      15.99940000
O        0.48147697       9.06627584       4.96372270      15.99940000
O        1.88119861       9.06772054       8.52676618      15.99940000
O        3.28432199       9.06566202      12.24273683      15.99940000
O        1.95798503       9.06737106       2.31496391      15.99940000
O        3.36858797       9.06628661       5.87879602      15.99940000
O        4.82160158       9.06534058       9.40247823      15.99940000
O        6.22698459       9.05476429      12.95522501      15.99940000
O        7.04902547      10.95944524       2.31997751      15.99940000
O        8.50790708      10.95847640       5.87188471      15.99940000
O        9.91700411      10.95773968       9.38891708      15.99940000
O        1.08257206      10.94034435      12.94826110      15.99940000
O        0.50450165      10.95670600       0.62376740      15.99940000
O        1.96544206      10.95844621       4.40456987      15.99940000
O        3.35651326      10.95803142       7.90544314      15.99940000
O        4.74219614      10.95991307      11.38943260      15.99940000
O        5.65129438       9.06473162       0.62022163      15.99940000
O        7.05896409       9.06656041       4.40637259      15.99940000
O        8.45000527       9.06637322       7.90203527      15.99940000
O        9.83320493       9.06159912      11.38870493      15.99940000
O        2.71111432       9.05255656      -0.06020144      15.99940000
O        4.16023059       9.06617124       3.49769336      15.99940000
O        5.56845890       9.06636524       7.04264799      15.99940000
O        7.03637860       9.06690160      10.60679520      15.99940000
O        7.85487180      10.94379579      -0.05885839      15.99940000
O        9.25411569      10.95819760       3.50527217      15.99940000
O        0.42925876      10.95852516       7.04107830      15.99940000
O        1.88258727      10.96245149      10.59734172      15.99940000
H        3.99379536       7.62299386      -0.98290497       1.00794000
H        4.89893226       7.49510265      13.92277765       1.00794000
H        4.56647289      10.04775731      -1.42094501       1.00794000
O        4.83708491      10.96791651      -1.24262164      15.99940000
H        9.56028633       8.16031145      14.32186352       1.00794000
O        9.25236628       9.07478063      14.17718504      15.99940000
H       10.07335211       9.54929289      13.90548393       1.00794000
H        4.40034555      10.04868162      14.32047500       1.00794000
O        4.08811715      10.96150000      14.17567101      15.99940000
H        9.58188259       8.16961404      -1.36083915       1.00794000
O        9.91819304       9.07770526      -1.23950639      15.99940000
H        9.11022528       9.57890954      -0.97485769       1.00794000
