 vasp.5.4.4.18Apr17-6-g9f103f2a35 (build May 08 2019 13:49:07) complex          
  
 executed on             LinuxIFC date 2019.11.13  13:23:01
 running on   24 total cores
 distrk:  each k-point on   24 cores,    1 groups
 distr:  one band on NCORES_PER_BAND=   6 cores,    4 groups


--------------------------------------------------------------------------------------------------------


 INCAR:
 POTCAR:    PAW_PBE Cu 22Jun2005                  
 POTCAR:    PAW_PBE C 08Apr2002                   
 POTCAR:    PAW_PBE O 08Apr2002                   
 POTCAR:    PAW_PBE Cu 22Jun2005                  
   VRHFIN =Cu: d10 p1                                                           
   LEXCH  = PE                                                                  
   EATOM  =  1390.9808 eV,  102.2342 Ry                                         
                                                                                
   TITEL  = PAW_PBE Cu 22Jun2005                                                
   LULTRA =        F    use ultrasoft PP ?                                      
   IUNSCR =        1    unscreen: 0-lin 1-nonlin 2-no                           
   RPACOR =    2.000    partial core radius                                     
   POMASS =   63.546; ZVAL   =   11.000    mass and valenz                      
   RCORE  =    2.300    outmost cutoff radius                                   
   RWIGS  =    2.200; RWIGS  =    1.164    wigner-seitz radius (au A)           
   ENMAX  =  295.446; ENMIN  =  221.585 eV                                      
   ICORE  =        3    local potential                                         
   LCOR   =        T    correct aug charges                                     
   LPAW   =        T    paw PP                                                  
   EAUG   =  586.980                                                            
   DEXC   =    0.000                                                            
   RMAX   =    2.344    core radius for proj-oper                               
   RAUG   =    1.300    factor for augmentation sphere                          
   RDEP   =    2.302    radius for radial grids                                 
   RDEPT  =    1.771    core radius for aug-charge                              
                                                                                
   Atomic configuration                                                         
    9 entries                                                                   
     n  l   j            E        occ.                                          
     1  0  0.50     -8850.2468   2.0000                                         
     2  0  0.50     -1062.3498   2.0000                                         
     2  1  1.50      -916.8226   6.0000                                         
     3  0  0.50      -114.6929   2.0000                                         
     3  1  1.50       -72.1325   6.0000                                         
     3  2  2.50        -5.0394  10.0000                                         
     4  0  0.50        -4.6097   1.0000                                         
     4  1  0.50        -4.0817   0.0000                                         
     4  3  2.50        -1.3606   0.0000                                         
   Description                                                                  
     l       E           TYP  RCUT    TYP  RCUT                                 
     2     -5.0393973     23  2.200                                             
     2     10.8846608     23  2.200                                             
     0     -4.6097109     23  2.200                                             
     0      8.2520465     23  2.200                                             
     1     -2.7211652     23  2.200                                             
     1     21.7055443     23  2.200                                             
     3      2.7211652     23  2.300                                             
  local pseudopotential read in
  partial core-charges read in
  partial kinetic energy density read in
  atomic valenz-charges read in
  non local Contribution for L=           2  read in
    real space projection operators read in
  non local Contribution for L=           2  read in
    real space projection operators read in
  non local Contribution for L=           0  read in
    real space projection operators read in
  non local Contribution for L=           0  read in
    real space projection operators read in
  non local Contribution for L=           1  read in
    real space projection operators read in
  non local Contribution for L=           1  read in
    real space projection operators read in
    PAW grid and wavefunctions read in
 
   number of l-projection  operators is LMAX  =           6
   number of lm-projection operators is LMMAX =          18
 
 POTCAR:    PAW_PBE C 08Apr2002                   
   VRHFIN =C: s2p2                                                              
   LEXCH  = PE                                                                  
   EATOM  =   147.1560 eV,   10.8157 Ry                                         
                                                                                
   TITEL  = PAW_PBE C 08Apr2002                                                 
   LULTRA =        F    use ultrasoft PP ?                                      
   IUNSCR =        1    unscreen: 0-lin 1-nonlin 2-no                           
   RPACOR =    1.200    partial core radius                                     
   POMASS =   12.011; ZVAL   =    4.000    mass and valenz                      
   RCORE  =    1.500    outmost cutoff radius                                   
   RWIGS  =    1.630; RWIGS  =    0.863    wigner-seitz radius (au A)           
   ENMAX  =  400.000; ENMIN  =  300.000 eV                                      
   ICORE  =        2    local potential                                         
   LCOR   =        T    correct aug charges                                     
   LPAW   =        T    paw PP                                                  
   EAUG   =  644.873                                                            
   DEXC   =    0.000                                                            
   RMAX   =    1.529    core radius for proj-oper                               
   RAUG   =    1.300    factor for augmentation sphere                          
   RDEP   =    1.501    radius for radial grids                                 
   RDEPT  =    1.300    core radius for aug-charge                              
                                                                                
   Atomic configuration                                                         
    4 entries                                                                   
     n  l   j            E        occ.                                          
     1  0  0.50      -273.3789   2.0000                                         
     2  0  0.50       -13.7508   2.0000                                         
     2  1  0.50        -5.2854   2.0000                                         
     3  2  1.50        -5.4423   0.0000                                         
   Description                                                                  
     l       E           TYP  RCUT    TYP  RCUT                                 
     0    -13.7508458     23  1.200                                             
     0     -8.2022199     23  1.200                                             
     1     -5.2854383     23  1.500                                             
     1     34.0145650     23  1.500                                             
     2     -5.4423304      7  1.500                                             
  local pseudopotential read in
  partial core-charges read in
  partial kinetic energy density read in
  atomic valenz-charges read in
  non local Contribution for L=           0  read in
    real space projection operators read in
  non local Contribution for L=           0  read in
    real space projection operators read in
  non local Contribution for L=           1  read in
    real space projection operators read in
  non local Contribution for L=           1  read in
    real space projection operators read in
    PAW grid and wavefunctions read in
 
   number of l-projection  operators is LMAX  =           4
   number of lm-projection operators is LMMAX =           8
 
 POTCAR:    PAW_PBE O 08Apr2002                   
   VRHFIN =O: s2p4                                                              
   LEXCH  = PE                                                                  
   EATOM  =   432.3788 eV,   31.7789 Ry                                         
                                                                                
   TITEL  = PAW_PBE O 08Apr2002                                                 
   LULTRA =        F    use ultrasoft PP ?                                      
   IUNSCR =        1    unscreen: 0-lin 1-nonlin 2-no                           
   RPACOR =    1.200    partial core radius                                     
   POMASS =   16.000; ZVAL   =    6.000    mass and valenz                      
   RCORE  =    1.520    outmost cutoff radius                                   
   RWIGS  =    1.550; RWIGS  =    0.820    wigner-seitz radius (au A)           
   ENMAX  =  400.000; ENMIN  =  300.000 eV                                      
   ICORE  =        2    local potential                                         
   LCOR   =        T    correct aug charges                                     
   LPAW   =        T    paw PP                                                  
   EAUG   =  605.392                                                            
   DEXC   =    0.000                                                            
   RMAX   =    1.553    core radius for proj-oper                               
   RAUG   =    1.300    factor for augmentation sphere                          
   RDEP   =    1.550    radius for radial grids                                 
   RDEPT  =    1.329    core radius for aug-charge                              
                                                                                
   Atomic configuration                                                         
    4 entries                                                                   
     n  l   j            E        occ.                                          
     1  0  0.50      -514.6923   2.0000                                         
     2  0  0.50       -23.9615   2.0000                                         
     2  1  0.50        -9.0305   4.0000                                         
     3  2  1.50        -9.5241   0.0000                                         
   Description                                                                  
     l       E           TYP  RCUT    TYP  RCUT                                 
     0    -23.9615318     23  1.200                                             
     0     -9.5240782     23  1.200                                             
     1     -9.0304911     23  1.520                                             
     1      8.1634956     23  1.520                                             
     2     -9.5240782      7  1.500                                             
  local pseudopotential read in
  partial core-charges read in
  partial kinetic energy density read in
  kinetic energy density of atom read in
  atomic valenz-charges read in
  non local Contribution for L=           0  read in
    real space projection operators read in
  non local Contribution for L=           0  read in
    real space projection operators read in
  non local Contribution for L=           1  read in
    real space projection operators read in
  non local Contribution for L=           1  read in
    real space projection operators read in
    PAW grid and wavefunctions read in
 
   number of l-projection  operators is LMAX  =           4
   number of lm-projection operators is LMMAX =           8
 
  PAW_PBE Cu 22Jun2005                  :
 energy of atom  1       EATOM=-1390.9808
 kinetic energy error for atom=    0.0033 (will be added to EATOM!!)
  PAW_PBE C 08Apr2002                   :
 energy of atom  2       EATOM= -147.1560
 kinetic energy error for atom=    0.0057 (will be added to EATOM!!)
  PAW_PBE O 08Apr2002                   :
 energy of atom  3       EATOM= -432.3788
 kinetic energy error for atom=    0.0168 (will be added to EATOM!!)
 
 
 POSCAR: Cu13 C1 O1                              
  positions in cartesian coordinates
  No initial velocities read in
 exchange correlation table for  LEXCH =        8
   RHO(1)=    0.500       N(1)  =     2000
   RHO(2)=  100.500       N(2)  =     4000
 


--------------------------------------------------------------------------------------------------------


 ion  position               nearest neighbor table
   1  0.290  0.419  0.553-   8 2.42   3 2.43   6 2.50   2 2.50   7 2.56   9 2.57
   2  0.378  0.547  0.492-   7 2.38  10 2.39  11 2.42   4 2.46   8 2.50   1 2.50  13 2.53   9 2.62
                             6 2.66
   3  0.393  0.296  0.561-   6 2.35   7 2.41   1 2.43   5 2.49
   4  0.536  0.504  0.480-  12 2.37   7 2.40   2 2.46  11 2.51   5 2.54  13 2.57   6 2.61
   5  0.550  0.343  0.532-   6 2.40   3 2.49   7 2.53   4 2.54  12 2.70
   6  0.445  0.435  0.611-   3 2.35  13 2.40   5 2.40   9 2.49   1 2.50   7 2.60   4 2.61   2 2.66

   7  0.419  0.401  0.443-   2 2.38   4 2.40   3 2.41   5 2.53   1 2.56   6 2.60
   8  0.224  0.567  0.551-   9 2.34   1 2.42   2 2.50  10 2.66
   9  0.333  0.546  0.660-   8 2.34  13 2.40   6 2.49  10 2.52   1 2.57   2 2.62
  10  0.354  0.685  0.567-   2 2.39  11 2.44  13 2.49   9 2.52   8 2.66
  11  0.488  0.664  0.476-  13 2.41   2 2.42  10 2.44   4 2.51
  12  0.627  0.487  0.608-  14 1.81   4 2.37  13 2.69   5 2.70
  13  0.481  0.590  0.619-   6 2.40   9 2.40  11 2.41  10 2.49   2 2.53   4 2.57  12 2.69
  14  0.741  0.496  0.647-  15 1.13  12 1.81
  15  0.816  0.502  0.654-  14 1.13
 

IMPORTANT INFORMATION: All symmetrisations will be switched off!
NOSYMM: (Re-)initialisation of all symmetry stuff for point group C_1.

 
 

Automatic generation of k-mesh.
 generate k-points for:    1    1    1
Space group operators:
 irot       det(A)        alpha          n_x          n_y          n_z        tau_x        tau_y        tau_z
    1     1.000000     0.000000     1.000000     0.000000     0.000000     0.000000     0.000000     0.000000
 
 Subroutine IBZKPT returns following result:
 ===========================================
 
 Found      1 irreducible k-points:
 
 Following reciprocal coordinates:
            Coordinates               Weight
  0.000000  0.000000  0.000000      1.000000
 
 Following cartesian coordinates:
            Coordinates               Weight
  0.000000  0.000000  0.000000      1.000000
 


--------------------------------------------------------------------------------------------------------




 Dimension of arrays:
   k-points           NKPTS =      1   k-points in BZ     NKDIM =      1   number of bands    NBANDS=     92
   number of dos      NEDOS =    301   number of ions     NIONS =     15
   non local maximal  LDIM  =      6   non local SUM 2l+1 LMDIM =     18
   total plane-waves  NPLWV = ******
   max r-space proj   IRMAX =      1   max aug-charges    IRDMAX=  15028
   dimension x,y,z NGX =   120 NGY =  120 NGZ =  120
   dimension x,y,z NGXF=   240 NGYF=  240 NGZF=  240
   support grid    NGXF=   240 NGYF=  240 NGZF=  240
   ions per type =              13   1   1
   NGX,Y,Z   is equivalent  to a cutoff of  13.30, 13.30, 13.30 a.u.
   NGXF,Y,Z  is equivalent  to a cutoff of  26.60, 26.60, 26.60 a.u.

 SYSTEM =  CuCO                                    
 POSCAR =  Cu13 C1 O1                              

 Startparameter for this run:
   NWRITE =      2    write-flag & timer
   PREC   = accura    normal or accurate (medium, high low for compatibility)
   ISTART =      0    job   : 0-new  1-cont  2-samecut
   ICHARG =      2    charge: 1-file 2-atom 10-const
   ISPIN  =      2    spin polarized calculation?
   LNONCOLLINEAR =      F non collinear calculations
   LSORBIT =      F    spin-orbit coupling
   INIWAV =      1    electr: 0-lowe 1-rand  2-diag
   LASPH  =      F    aspherical Exc in radial PAW
   METAGGA=      F    non-selfconsistent MetaGGA calc.

 Electronic Relaxation 1
   ENCUT  =  600.0 eV  44.10 Ry    6.64 a.u.  29.96 29.96 29.96*2*pi/ulx,y,z
   ENINI  =  600.0     initial cutoff
   ENAUG  =  644.9 eV  augmentation charge cutoff
   NELM   =    300;   NELMIN=  3; NELMDL= -5     # of ELM steps 
   EDIFF  = 0.1E-06   stopping-criterion for ELM
   LREAL  =      F    real-space projection
   NLSPLINE    = F    spline interpolate recip. space projectors
   LCOMPAT=      F    compatible to vasp.4.4
   GGA_COMPAT  = T    GGA compatible to vasp.4.4-vasp.4.6
   LMAXPAW     = -100 max onsite density
   LMAXMIX     =    2 max onsite mixed and CHGCAR
   VOSKOWN=      0    Vosko Wilk Nusair interpolation
   ROPT   =    0.00000   0.00000   0.00000
 Ionic relaxation
   EDIFFG = -.1E-02   stopping-criterion for IOM
   NSW    =      0    number of steps for IOM
   NBLOCK =      1;   KBLOCK =      1    inner block; outer block 
   IBRION =     -1    ionic relax: 0-MD 1-quasi-New 2-CG
   NFREE  =      0    steps in history (QN), initial steepest desc. (CG)
   ISIF   =      2    stress and relaxation
   IWAVPR =     10    prediction:  0-non 1-charg 2-wave 3-comb
   ISYM   =      0    0-nonsym 1-usesym 2-fastsym
   LCORR  =      T    Harris-Foulkes like correction to forces

   POTIM  = 0.5000    time-step for ionic-motion
   TEIN   =    0.0    initial temperature
   TEBEG  =    0.0;   TEEND  =   0.0 temperature during run
   SMASS  =  -3.00    Nose mass-parameter (am)
   estimated Nose-frequenzy (Omega)   =  0.10E-29 period in steps =****** mass=  -0.514E-26a.u.
   SCALEE = 1.0000    scale energy and forces
   NPACO  =    256;   APACO  = 16.0  distance and # of slots for P.C.
   PSTRESS=    0.0 pullay stress

  Mass of Ions in am
   POMASS =  63.55 12.01 16.00
  Ionic Valenz
   ZVAL   =  11.00  4.00  6.00
  Atomic Wigner-Seitz radii
   RWIGS  =  -1.00 -1.00 -1.00
  virtual crystal weights 
   VCA    =   1.00  1.00  1.00
   NELECT =     153.0000    total number of electrons
   NUPDOWN=       1.0000    fix difference up-down

 DOS related values:
   EMIN   =  10.00;   EMAX   =-10.00  energy-range for DOS
   EFERMI =   0.00
   ISMEAR =     1;   SIGMA  =   0.10  broadening in eV -4-tet -1-fermi 0-gaus

 Electronic relaxation 2 (details)
   IALGO  =     68    algorithm
   LDIAG  =      T    sub-space diagonalisation (order eigenvalues)
   LSUBROT=      F    optimize rotation matrix (better conditioning)
   TURBO    =      0    0=normal 1=particle mesh
   IRESTART =      0    0=no restart 2=restart with 2 vectors
   NREBOOT  =      0    no. of reboots
   NMIN     =      0    reboot dimension
   EREF     =   0.00    reference energy to select bands
   IMIX   =      4    mixing-type and parameters
     AMIX     =   0.40;   BMIX     =  1.00
     AMIX_MAG =   1.60;   BMIX_MAG =  1.00
     AMIN     =   0.10
     WC   =   100.;   INIMIX=   1;  MIXPRE=   1;  MAXMIX= -45

 Intra band minimization:
   WEIMIN = 0.0000     energy-eigenvalue tresh-hold
   EBREAK =  0.27E-09  absolut break condition
   DEPER  =   0.30     relativ break condition  

   TIME   =   0.40     timestep for ELM

  volume/ion in A,a.u.               =     225.00      1518.37
  Fermi-wavevector in a.u.,A,eV,Ry     =   0.583733  1.103095  4.636102  0.340744
  Thomas-Fermi vector in A             =   1.629149
 
 Write flags
   LWAVE        =      F    write WAVECAR
   LDOWNSAMPLE  =      F    k-point downsampling of WAVECAR
   LCHARG       =      F    write CHGCAR
   LVTOT        =      F    write LOCPOT, total local potential
   LVHAR        =      F    write LOCPOT, Hartree potential only
   LELF         =      F    write electronic localiz. function (ELF)
   LORBIT       =      0    0 simple, 1 ext, 2 COOP (PROOUT), +10 PAW based schemes


 Dipole corrections
   LMONO  =      F    monopole corrections only (constant potential shift)
   LDIPOL =      F    correct potential (dipole corrections)
   IDIPOL =      0    1-x, 2-y, 3-z, 4-all directions 
   EPSILON=  1.0000000 bulk dielectric constant

 Exchange correlation treatment:
   GGA     =    PE    GGA type
   LEXCH   =     8    internal setting for exchange type
   VOSKOWN=      0    Vosko Wilk Nusair interpolation
   LHFCALC =     F    Hartree Fock is set to
   LHFONE  =     F    Hartree Fock one center treatment
   AEXX    =    0.0000 exact exchange contribution

 Linear response parameters
   LEPSILON=     F    determine dielectric tensor
   LRPA    =     F    only Hartree local field effects (RPA)
   LNABLA  =     F    use nabla operator in PAW spheres
   LVEL    =     F    velocity operator in full k-point grid
   LINTERFAST=   F  fast interpolation
   KINTER  =     0    interpolate to denser k-point grid
   CSHIFT  =0.1000    complex shift for real part using Kramers Kronig
   OMEGAMAX=  -1.0    maximum frequency
   DEG_THRESHOLD= 0.2000000E-02 threshold for treating states as degnerate
   RTIME   =   -0.100 relaxation time in fs
  (WPLASMAI=    0.000 imaginary part of plasma frequency in eV, 0.658/RTIME)
   DFIELD  = 0.0000000 0.0000000 0.0000000 field for delta impulse in time
 
 Orbital magnetization related:
   ORBITALMAG=     F  switch on orbital magnetization
   LCHIMAG   =     F  perturbation theory with respect to B field
   DQ        =  0.001000  dq finite difference perturbation B field
   LLRAUG    =     F  two centre corrections for induced B field



--------------------------------------------------------------------------------------------------------


 Static calculation
 charge density and potential will be updated during run
 spin polarized calculation
 RMM-DIIS sequential band-by-band and
  variant of blocked Davidson during initial phase
 perform sub-space diagonalisation
    before iterative eigenvector-optimisation
 modified Broyden-mixing scheme, WC =      100.0
 initial mixing is a Kerker type mixing with AMIX =  0.4000 and BMIX =      1.0000
 Hartree-type preconditioning will be used
 using additional bands           15
 reciprocal scheme for non local part
 use partial core corrections
 calculate Harris-corrections to forces 
   (improved forces if not selfconsistent)
 use gradient corrections 
 use of overlap-Matrix (Vanderbilt PP)
 Methfessel and Paxton  Order N= 1 SIGMA  =   0.10


--------------------------------------------------------------------------------------------------------


  energy-cutoff  :      600.00
  volume of cell :     3375.00
      direct lattice vectors                 reciprocal lattice vectors
    15.000000000  0.000000000  0.000000000     0.066666667  0.000000000  0.000000000
     0.000000000 15.000000000  0.000000000     0.000000000  0.066666667  0.000000000
     0.000000000  0.000000000 15.000000000     0.000000000  0.000000000  0.066666667

  length of vectors
    15.000000000 15.000000000 15.000000000     0.066666667  0.066666667  0.066666667


 
 k-points in units of 2pi/SCALE and weight: read from INCAR                         
   0.00000000  0.00000000  0.00000000       1.000
 
 k-points in reciprocal lattice and weights: read from INCAR                         
   0.00000000  0.00000000  0.00000000       1.000
 
 position of ions in fractional coordinates (direct lattice) 
   0.28958667  0.41944800  0.55339867
   0.37799733  0.54666600  0.49185867
   0.39335533  0.29553000  0.56100867
   0.53580933  0.50430933  0.48031867
   0.54979000  0.34342467  0.53180333
   0.44517400  0.43452067  0.61124267
   0.41874267  0.40136867  0.44302467
   0.22361667  0.56657400  0.55082867
   0.33254000  0.54626267  0.66023200
   0.35448667  0.68468000  0.56745667
   0.48773400  0.66429867  0.47629267
   0.62721200  0.48705867  0.60771200
   0.48094800  0.59002400  0.61851533
   0.74119333  0.49568800  0.64733067
   0.81572000  0.50209067  0.65385667
 
 position of ions in cartesian coordinates  (Angst):
   4.34380000  6.29172000  8.30098000
   5.66996000  8.19999000  7.37788000
   5.90033000  4.43295000  8.41513000
   8.03714000  7.56464000  7.20478000
   8.24685000  5.15137000  7.97705000
   6.67761000  6.51781000  9.16864000
   6.28114000  6.02053000  6.64537000
   3.35425000  8.49861000  8.26243000
   4.98810000  8.19394000  9.90348000
   5.31730000 10.27020000  8.51185000
   7.31601000  9.96448000  7.14439000
   9.40818000  7.30588000  9.11568000
   7.21422000  8.85036000  9.27773000
  11.11790000  7.43532000  9.70996000
  12.23580000  7.53136000  9.80785000
 


--------------------------------------------------------------------------------------------------------


 k-point  1 :   0.0000 0.0000 0.0000  plane waves:  112451

 maximum and minimum number of plane-waves per node :     18753    18726

 maximum number of plane-waves:    112451
 maximum index in each direction: 
   IXMAX=   29   IYMAX=   29   IZMAX=   29
   IXMIN=  -29   IYMIN=  -29   IZMIN=  -29


 parallel 3D FFT for wavefunctions:
    minimum data exchange during FFTs selected (reduces bandwidth)
 parallel 3D FFT for charge:
    minimum data exchange during FFTs selected (reduces bandwidth)


 total amount of memory used by VASP MPI-rank0   158680. kBytes
=======================================================================

   base      :      30000. kBytes
   nonl-proj :      12601. kBytes
   fftplans  :      27994. kBytes
   grid      :      74150. kBytes
   one-center:         93. kBytes
   wavefun   :      13842. kBytes
 
     INWAV:  cpu time    0.0000: real time    0.0001
 Broyden mixing: mesh for mixing (old mesh)
   NGX = 59   NGY = 59   NGZ = 59
  (NGX  =240   NGY  =240   NGZ  =240)
  gives a total of 205379 points

 initial charge density was supplied:
 charge density of overlapping atoms calculated
 number of electron     153.0000000 magnetization       1.0000000
 keeping initial charge density in first step


--------------------------------------------------------------------------------------------------------


 Maximum index for augmentation-charges          706 (set IRDMAX)


--------------------------------------------------------------------------------------------------------


 First call to EWALD:  gamma=   0.118
 Maximum number of real-space cells 3x 3x 3
 Maximum number of reciprocal cells 3x 3x 3

    FEWALD:  cpu time    0.0016: real time    0.0021


--------------------------------------- Iteration      1(   1)  ---------------------------------------


    POTLOK:  cpu time    1.1801: real time    1.1833
    SETDIJ:  cpu time    0.0177: real time    0.0177
     EDDAV:  cpu time    7.4966: real time    7.5000
       DOS:  cpu time    0.0004: real time    0.0004
    --------------------------------------------
      LOOP:  cpu time    8.6947: real time    8.7014

 eigenvalue-minimisations  :   376
 total energy-change (2. order) : 0.1120991E+04  (-0.4460494E+04)
 number of electron     153.0000000 magnetization       1.0000000
 augmentation part      153.0000000 magnetization       1.0000000

 Free energy of the ion-electron system (eV)
  ---------------------------------------------------
  alpha Z        PSCENC =        41.16232785
  Ewald energy   TEWEN  =     16257.78983566
  -Hartree energ DENC   =    -33278.75283899
  -exchange      EXHF   =         0.00000000
  -V(xc)+E(xc)   XCENC  =       623.44567578
  PAW double counting   =     16421.75059358   -17800.06104309
  entropy T*S    EENTRO =        -0.00819246
  eigenvalues    EBANDS =       193.44543171
  atomic energy  EATOM  =     18662.21924712
  Solvation  Ediel_sol  =         0.00000000
  ---------------------------------------------------
  free energy    TOTEN  =      1120.99103715 eV

  energy without entropy =     1120.99922961  energy(sigma->0) =     1120.99376797


--------------------------------------------------------------------------------------------------------




--------------------------------------- Iteration      1(   2)  ---------------------------------------


     EDDAV:  cpu time    7.3578: real time    7.3614
       DOS:  cpu time    0.0003: real time    0.0003
    --------------------------------------------
      LOOP:  cpu time    7.3581: real time    7.3617

 eigenvalue-minimisations  :   368
 total energy-change (2. order) :-0.1029826E+04  (-0.9784040E+03)
 number of electron     153.0000000 magnetization       1.0000000
 augmentation part      153.0000000 magnetization       1.0000000

 Free energy of the ion-electron system (eV)
  ---------------------------------------------------
  alpha Z        PSCENC =        41.16232785
  Ewald energy   TEWEN  =     16257.78983566
  -Hartree energ DENC   =    -33278.75283899
  -exchange      EXHF   =         0.00000000
  -V(xc)+E(xc)   XCENC  =       623.44567578
  PAW double counting   =     16421.75059358   -17800.06104309
  entropy T*S    EENTRO =         0.00529451
  eigenvalues    EBANDS =      -836.39449882
  atomic energy  EATOM  =     18662.21924712
  Solvation  Ediel_sol  =         0.00000000
  ---------------------------------------------------
  free energy    TOTEN  =        91.16459359 eV

  energy without entropy =       91.15929909  energy(sigma->0) =       91.16282876


--------------------------------------------------------------------------------------------------------




--------------------------------------- Iteration      1(   3)  ---------------------------------------


     EDDAV:  cpu time   11.4963: real time   11.5004
       DOS:  cpu time    0.0003: real time    0.0003
    --------------------------------------------
      LOOP:  cpu time   11.4966: real time   11.5007

 eigenvalue-minimisations  :   648
 total energy-change (2. order) :-0.1236506E+03  (-0.1152746E+03)
 number of electron     153.0000000 magnetization       1.0000000
 augmentation part      153.0000000 magnetization       1.0000000

 Free energy of the ion-electron system (eV)
  ---------------------------------------------------
  alpha Z        PSCENC =        41.16232785
  Ewald energy   TEWEN  =     16257.78983566
  -Hartree energ DENC   =    -33278.75283899
  -exchange      EXHF   =         0.00000000
  -V(xc)+E(xc)   XCENC  =       623.44567578
  PAW double counting   =     16421.75059358   -17800.06104309
  entropy T*S    EENTRO =         0.00606853
  eigenvalues    EBANDS =      -960.04585848
  atomic energy  EATOM  =     18662.21924712
  Solvation  Ediel_sol  =         0.00000000
  ---------------------------------------------------
  free energy    TOTEN  =       -32.48599205 eV

  energy without entropy =      -32.49206058  energy(sigma->0) =      -32.48801489


--------------------------------------------------------------------------------------------------------




--------------------------------------- Iteration      1(   4)  ---------------------------------------


     EDDAV:  cpu time   10.1936: real time   10.1997
       DOS:  cpu time    0.0003: real time    0.0003
    --------------------------------------------
      LOOP:  cpu time   10.1939: real time   10.2000

 eigenvalue-minimisations  :   560
 total energy-change (2. order) :-0.2332409E+02  (-0.2298221E+02)
 number of electron     153.0000000 magnetization       1.0000000
 augmentation part      153.0000000 magnetization       1.0000000

 Free energy of the ion-electron system (eV)
  ---------------------------------------------------
  alpha Z        PSCENC =        41.16232785
  Ewald energy   TEWEN  =     16257.78983566
  -Hartree energ DENC   =    -33278.75283899
  -exchange      EXHF   =         0.00000000
  -V(xc)+E(xc)   XCENC  =       623.44567578
  PAW double counting   =     16421.75059358   -17800.06104309
  entropy T*S    EENTRO =         0.00898255
  eigenvalues    EBANDS =      -983.37285790
  atomic energy  EATOM  =     18662.21924712
  Solvation  Ediel_sol  =         0.00000000
  ---------------------------------------------------
  free energy    TOTEN  =       -55.81007745 eV

  energy without entropy =      -55.81906000  energy(sigma->0) =      -55.81307163


--------------------------------------------------------------------------------------------------------




--------------------------------------- Iteration      1(   5)  ---------------------------------------


     EDDAV:  cpu time   12.0047: real time   12.0084
       DOS:  cpu time    0.0003: real time    0.0003
    CHARGE:  cpu time    0.7228: real time    0.7229
    MIXING:  cpu time    0.0230: real time    0.0230
    --------------------------------------------
      LOOP:  cpu time   12.7508: real time   12.7546

 eigenvalue-minimisations  :   680
 total energy-change (2. order) :-0.1533332E+01  (-0.1411657E+01)
 number of electron     152.9999988 magnetization       1.0000000
 augmentation part       87.5128659 magnetization       0.3674049

 Broyden mixing:
  rms(total) = 0.23717E+01    rms(broyden)= 0.23716E+01
  rms(prec ) = 0.27183E+01
  weight for this iteration     100.00

 Free energy of the ion-electron system (eV)
  ---------------------------------------------------
  alpha Z        PSCENC =        41.16232785
  Ewald energy   TEWEN  =     16257.78983566
  -Hartree energ DENC   =    -33278.75283899
  -exchange      EXHF   =         0.00000000
  -V(xc)+E(xc)   XCENC  =       623.44567578
  PAW double counting   =     16421.75059358   -17800.06104309
  entropy T*S    EENTRO =         0.00881691
  eigenvalues    EBANDS =      -984.90602430
  atomic energy  EATOM  =     18662.21924712
  Solvation  Ediel_sol  =         0.00000000
  ---------------------------------------------------
  free energy    TOTEN  =       -57.34340948 eV

  energy without entropy =      -57.35222640  energy(sigma->0) =      -57.34634845


--------------------------------------------------------------------------------------------------------




--------------------------------------- Iteration      1(   6)  ---------------------------------------


    POTLOK:  cpu time    1.1660: real time    1.1672
    SETDIJ:  cpu time    0.0174: real time    0.0174
    EDDIAG:  cpu time    1.1162: real time    1.1168
  RMM-DIIS:  cpu time    6.9260: real time    6.9290
    ORTHCH:  cpu time    0.0606: real time    0.0606
       DOS:  cpu time    0.0005: real time    0.0005
    CHARGE:  cpu time    0.6427: real time    0.6427
    MIXING:  cpu time    0.0233: real time    0.0234
    --------------------------------------------
      LOOP:  cpu time    9.9527: real time    9.9574

 eigenvalue-minimisations  :   419
 total energy-change (2. order) : 0.1064934E+01  (-0.1210335E+02)
 number of electron     152.9999986 magnetization       1.0000000
 augmentation part       95.7330723 magnetization       0.0831419

 Broyden mixing:
  rms(total) = 0.15527E+01    rms(broyden)= 0.15525E+01
  rms(prec ) = 0.17890E+01
  weight for this iteration     100.00

 eigenvalues of (default mixing * dielectric matrix)
  average eigenvalue GAMMA=   0.6161
  0.6161

 Free energy of the ion-electron system (eV)
  ---------------------------------------------------
  alpha Z        PSCENC =        41.16232785
  Ewald energy   TEWEN  =     16257.78983566
  -Hartree energ DENC   =    -33029.52346647
  -exchange      EXHF   =         0.00000000
  -V(xc)+E(xc)   XCENC  =       611.29579696
  PAW double counting   =     16707.27867480   -18031.21759302
  entropy T*S    EENTRO =         0.00924726
  eigenvalues    EBANDS =     -1275.29254574
  atomic energy  EATOM  =     18662.21924712
  Solvation  Ediel_sol  =         0.00000000
  ---------------------------------------------------
  free energy    TOTEN  =       -56.27847558 eV

  energy without entropy =      -56.28772284  energy(sigma->0) =      -56.28155800


--------------------------------------------------------------------------------------------------------




--------------------------------------- Iteration      1(   7)  ---------------------------------------


    POTLOK:  cpu time    1.1674: real time    1.1714
    SETDIJ:  cpu time    0.0170: real time    0.0170
    EDDIAG:  cpu time    1.1191: real time    1.1195
  RMM-DIIS:  cpu time    6.0636: real time    6.0653
    ORTHCH:  cpu time    0.0610: real time    0.0609
       DOS:  cpu time    0.0004: real time    0.0004
    CHARGE:  cpu time    0.6564: real time    0.6566
    MIXING:  cpu time    0.0238: real time    0.0238
    --------------------------------------------
      LOOP:  cpu time    9.1085: real time    9.1149

 eigenvalue-minimisations  :   381
 total energy-change (2. order) : 0.7089825E+01  (-0.2523624E+01)
 number of electron     152.9999987 magnetization       1.0000000
 augmentation part       92.8850670 magnetization       0.1050872

 Broyden mixing:
  rms(total) = 0.39039E+00    rms(broyden)= 0.39036E+00
  rms(prec ) = 0.47918E+00
  weight for this iteration     100.00

 eigenvalues of (default mixing * dielectric matrix)
  average eigenvalue GAMMA=   0.9430
  1.2219  0.6640

 Free energy of the ion-electron system (eV)
  ---------------------------------------------------
  alpha Z        PSCENC =        41.16232785
  Ewald energy   TEWEN  =     16257.78983566
  -Hartree energ DENC   =    -33165.62746613
  -exchange      EXHF   =         0.00000000
  -V(xc)+E(xc)   XCENC  =       615.78137961
  PAW double counting   =     17055.91968391   -18429.61409399
  entropy T*S    EENTRO =         0.00933005
  eigenvalues    EBANDS =     -1086.82889440
  atomic energy  EATOM  =     18662.21924712
  Solvation  Ediel_sol  =         0.00000000
  ---------------------------------------------------
  free energy    TOTEN  =       -49.18865033 eV

  energy without entropy =      -49.19798038  energy(sigma->0) =      -49.19176034


--------------------------------------------------------------------------------------------------------




--------------------------------------- Iteration      1(   8)  ---------------------------------------


    POTLOK:  cpu time    1.1665: real time    1.1668
    SETDIJ:  cpu time    0.0173: real time    0.0173
    EDDIAG:  cpu time    1.1185: real time    1.1188
  RMM-DIIS:  cpu time    6.5499: real time    6.5664
    ORTHCH:  cpu time    0.0602: real time    0.0604
       DOS:  cpu time    0.0005: real time    0.0005
    CHARGE:  cpu time    0.6720: real time    0.6720
    MIXING:  cpu time    0.0242: real time    0.0242
    --------------------------------------------
      LOOP:  cpu time    9.6091: real time    9.6264

 eigenvalue-minimisations  :   423
 total energy-change (2. order) : 0.2141961E+00  (-0.4253440E+00)
 number of electron     152.9999987 magnetization       1.0000000
 augmentation part       92.0991367 magnetization       0.1003579

 Broyden mixing:
  rms(total) = 0.30989E+00    rms(broyden)= 0.30986E+00
  rms(prec ) = 0.34940E+00
  weight for this iteration     100.00

 eigenvalues of (default mixing * dielectric matrix)
  average eigenvalue GAMMA=   0.9303
  1.3942  0.6984  0.6984

 Free energy of the ion-electron system (eV)
  ---------------------------------------------------
  alpha Z        PSCENC =        41.16232785
  Ewald energy   TEWEN  =     16257.78983566
  -Hartree energ DENC   =    -33215.00529471
  -exchange      EXHF   =         0.00000000
  -V(xc)+E(xc)   XCENC  =       616.21314423
  PAW double counting   =     17426.64962188   -18820.07709032
  entropy T*S    EENTRO =         0.00899804
  eigenvalues    EBANDS =     -1017.93524401
  atomic energy  EATOM  =     18662.21924712
  Solvation  Ediel_sol  =         0.00000000
  ---------------------------------------------------
  free energy    TOTEN  =       -48.97445426 eV

  energy without entropy =      -48.98345230  energy(sigma->0) =      -48.97745360


--------------------------------------------------------------------------------------------------------




--------------------------------------- Iteration      1(   9)  ---------------------------------------


    POTLOK:  cpu time    1.1672: real time    1.1687
    SETDIJ:  cpu time    0.0173: real time    0.0173
    EDDIAG:  cpu time    1.1169: real time    1.1176
  RMM-DIIS:  cpu time    6.7288: real time    6.7305
    ORTHCH:  cpu time    0.0604: real time    0.0604
       DOS:  cpu time    0.0005: real time    0.0005
    CHARGE:  cpu time    0.6711: real time    0.6714
    MIXING:  cpu time    0.0250: real time    0.0250
    --------------------------------------------
      LOOP:  cpu time    9.7872: real time    9.7914

 eigenvalue-minimisations  :   415
 total energy-change (2. order) : 0.5822616E-01  (-0.1008794E+00)
 number of electron     152.9999987 magnetization       1.0000000
 augmentation part       92.2947218 magnetization       0.0910362

 Broyden mixing:
  rms(total) = 0.18304E+00    rms(broyden)= 0.18304E+00
  rms(prec ) = 0.21711E+00
  weight for this iteration     100.00

 eigenvalues of (default mixing * dielectric matrix)
  average eigenvalue GAMMA=   1.0451
  2.1087  0.7878  0.7878  0.4961

 Free energy of the ion-electron system (eV)
  ---------------------------------------------------
  alpha Z        PSCENC =        41.16232785
  Ewald energy   TEWEN  =     16257.78983566
  -Hartree energ DENC   =    -33212.59039386
  -exchange      EXHF   =         0.00000000
  -V(xc)+E(xc)   XCENC  =       615.73946565
  PAW double counting   =     17533.80645223   -18928.71840076
  entropy T*S    EENTRO =         0.00889886
  eigenvalues    EBANDS =     -1018.33366085
  atomic energy  EATOM  =     18662.21924712
  Solvation  Ediel_sol  =         0.00000000
  ---------------------------------------------------
  free energy    TOTEN  =       -48.91622810 eV

  energy without entropy =      -48.92512696  energy(sigma->0) =      -48.91919439


--------------------------------------------------------------------------------------------------------




--------------------------------------- Iteration      1(  10)  ---------------------------------------


    POTLOK:  cpu time    1.1681: real time    1.1693
    SETDIJ:  cpu time    0.0179: real time    0.0179
    EDDIAG:  cpu time    1.1166: real time    1.1172
  RMM-DIIS:  cpu time    6.7835: real time    6.7854
    ORTHCH:  cpu time    0.0602: real time    0.0602
       DOS:  cpu time    0.0004: real time    0.0004
    CHARGE:  cpu time    0.6726: real time    0.6729
    MIXING:  cpu time    0.0260: real time    0.0260
    --------------------------------------------
      LOOP:  cpu time    9.8452: real time    9.8494

 eigenvalue-minimisations  :   417
 total energy-change (2. order) : 0.6107784E-01  (-0.2259956E-01)
 number of electron     152.9999987 magnetization       1.0000000
 augmentation part       92.4999884 magnetization       0.0793717

 Broyden mixing:
  rms(total) = 0.60105E-01    rms(broyden)= 0.60101E-01
  rms(prec ) = 0.79322E-01
  weight for this iteration     100.00

 eigenvalues of (default mixing * dielectric matrix)
  average eigenvalue GAMMA=   1.0549
  2.1400  1.1106  0.7760  0.7760  0.4721

 Free energy of the ion-electron system (eV)
  ---------------------------------------------------
  alpha Z        PSCENC =        41.16232785
  Ewald energy   TEWEN  =     16257.78983566
  -Hartree energ DENC   =    -33209.96974784
  -exchange      EXHF   =         0.00000000
  -V(xc)+E(xc)   XCENC  =       615.29587806
  PAW double counting   =     17641.09105315   -19037.34984419
  entropy T*S    EENTRO =         0.00892086
  eigenvalues    EBANDS =     -1019.10282093
  atomic energy  EATOM  =     18662.21924712
  Solvation  Ediel_sol  =         0.00000000
  ---------------------------------------------------
  free energy    TOTEN  =       -48.85515026 eV

  energy without entropy =      -48.86407112  energy(sigma->0) =      -48.85812388


--------------------------------------------------------------------------------------------------------




--------------------------------------- Iteration      1(  11)  ---------------------------------------


    POTLOK:  cpu time    1.1693: real time    1.1717
    SETDIJ:  cpu time    0.0172: real time    0.0172
    EDDIAG:  cpu time    1.1169: real time    1.1174
  RMM-DIIS:  cpu time    6.8348: real time    6.8366
    ORTHCH:  cpu time    0.0594: real time    0.0594
       DOS:  cpu time    0.0004: real time    0.0004
    CHARGE:  cpu time    0.6726: real time    0.6729
    MIXING:  cpu time    0.0263: real time    0.0263
    --------------------------------------------
      LOOP:  cpu time    9.8969: real time    9.9019

 eigenvalue-minimisations  :   430
 total energy-change (2. order) : 0.1154047E-01  (-0.7275573E-02)
 number of electron     152.9999987 magnetization       1.0000000
 augmentation part       92.4189985 magnetization       0.0842817

 Broyden mixing:
  rms(total) = 0.38948E-01    rms(broyden)= 0.38945E-01
  rms(prec ) = 0.51126E-01
  weight for this iteration     100.00

 eigenvalues of (default mixing * dielectric matrix)
  average eigenvalue GAMMA=   1.0408
  2.1896  1.4080  0.7833  0.7833  0.6020  0.4790

 Free energy of the ion-electron system (eV)
  ---------------------------------------------------
  alpha Z        PSCENC =        41.16232785
  Ewald energy   TEWEN  =     16257.78983566
  -Hartree energ DENC   =    -33218.47858918
  -exchange      EXHF   =         0.00000000
  -V(xc)+E(xc)   XCENC  =       615.44125621
  PAW double counting   =     17689.96262689   -19088.36972256
  entropy T*S    EENTRO =         0.00883358
  eigenvalues    EBANDS =     -1008.57942535
  atomic energy  EATOM  =     18662.21924712
  Solvation  Ediel_sol  =         0.00000000
  ---------------------------------------------------
  free energy    TOTEN  =       -48.84360979 eV

  energy without entropy =      -48.85244336  energy(sigma->0) =      -48.84655431


--------------------------------------------------------------------------------------------------------




--------------------------------------- Iteration      1(  12)  ---------------------------------------


    POTLOK:  cpu time    1.1759: real time    1.1763
    SETDIJ:  cpu time    0.0172: real time    0.0171
    EDDIAG:  cpu time    1.1169: real time    1.1174
  RMM-DIIS:  cpu time    6.9803: real time    6.9820
    ORTHCH:  cpu time    0.0593: real time    0.0593
       DOS:  cpu time    0.0004: real time    0.0004
    CHARGE:  cpu time    0.6711: real time    0.6714
    MIXING:  cpu time    0.0273: real time    0.0273
    --------------------------------------------
      LOOP:  cpu time   10.0484: real time   10.0513

 eigenvalue-minimisations  :   423
 total energy-change (2. order) : 0.2310988E-02  (-0.1937801E-02)
 number of electron     152.9999987 magnetization       1.0000000
 augmentation part       92.4175387 magnetization       0.0838737

 Broyden mixing:
  rms(total) = 0.19201E-01    rms(broyden)= 0.19200E-01
  rms(prec ) = 0.31200E-01
  weight for this iteration     100.00

 eigenvalues of (default mixing * dielectric matrix)
  average eigenvalue GAMMA=   1.0871
  2.3714  1.7288  1.0744  0.7129  0.7129  0.5464  0.4627

 Free energy of the ion-electron system (eV)
  ---------------------------------------------------
  alpha Z        PSCENC =        41.16232785
  Ewald energy   TEWEN  =     16257.78983566
  -Hartree energ DENC   =    -33221.47815125
  -exchange      EXHF   =         0.00000000
  -V(xc)+E(xc)   XCENC  =       615.48214538
  PAW double counting   =     17698.33189567   -19097.04437061
  entropy T*S    EENTRO =         0.00886569
  eigenvalues    EBANDS =     -1005.31309430
  atomic energy  EATOM  =     18662.21924712
  Solvation  Ediel_sol  =         0.00000000
  ---------------------------------------------------
  free energy    TOTEN  =       -48.84129880 eV

  energy without entropy =      -48.85016449  energy(sigma->0) =      -48.84425403


--------------------------------------------------------------------------------------------------------




--------------------------------------- Iteration      1(  13)  ---------------------------------------


    POTLOK:  cpu time    1.1691: real time    1.1698
    SETDIJ:  cpu time    0.0174: real time    0.0174
    EDDIAG:  cpu time    1.1159: real time    1.1164
  RMM-DIIS:  cpu time    7.0095: real time    7.0116
    ORTHCH:  cpu time    0.0593: real time    0.0593
       DOS:  cpu time    0.0004: real time    0.0004
    CHARGE:  cpu time    0.6708: real time    0.6708
    MIXING:  cpu time    0.0278: real time    0.0278
    --------------------------------------------
      LOOP:  cpu time   10.0702: real time   10.0735

 eigenvalue-minimisations  :   428
 total energy-change (2. order) : 0.1120082E-02  (-0.5860914E-03)
 number of electron     152.9999987 magnetization       1.0000000
 augmentation part       92.4329424 magnetization       0.0842331

 Broyden mixing:
  rms(total) = 0.93692E-02    rms(broyden)= 0.93688E-02
  rms(prec ) = 0.19729E-01
  weight for this iteration     100.00

 eigenvalues of (default mixing * dielectric matrix)
  average eigenvalue GAMMA=   1.1263
  2.4075  2.0003  1.3237  0.8059  0.7502  0.7502  0.5234  0.4491

 Free energy of the ion-electron system (eV)
  ---------------------------------------------------
  alpha Z        PSCENC =        41.16232785
  Ewald energy   TEWEN  =     16257.78983566
  -Hartree energ DENC   =    -33225.47871676
  -exchange      EXHF   =         0.00000000
  -V(xc)+E(xc)   XCENC  =       615.49742729
  PAW double counting   =     17701.78466008   -19100.45036838
  entropy T*S    EENTRO =         0.00884442
  eigenvalues    EBANDS =     -1001.37343601
  atomic energy  EATOM  =     18662.21924712
  Solvation  Ediel_sol  =         0.00000000
  ---------------------------------------------------
  free energy    TOTEN  =       -48.84017872 eV

  energy without entropy =      -48.84902314  energy(sigma->0) =      -48.84312686


--------------------------------------------------------------------------------------------------------




--------------------------------------- Iteration      1(  14)  ---------------------------------------


    POTLOK:  cpu time    1.1669: real time    1.1711
    SETDIJ:  cpu time    0.0171: real time    0.0171
    EDDIAG:  cpu time    1.1173: real time    1.1176
  RMM-DIIS:  cpu time    6.9957: real time    6.9975
    ORTHCH:  cpu time    0.0599: real time    0.0599
       DOS:  cpu time    0.0005: real time    0.0005
    CHARGE:  cpu time    0.6715: real time    0.6717
    MIXING:  cpu time    0.0288: real time    0.0288
    --------------------------------------------
      LOOP:  cpu time   10.0576: real time   10.0642

 eigenvalue-minimisations  :   415
 total energy-change (2. order) :-0.1216200E-02  (-0.3503654E-03)
 number of electron     152.9999987 magnetization       1.0000000
 augmentation part       92.4434194 magnetization       0.0842336

 Broyden mixing:
  rms(total) = 0.10649E-01    rms(broyden)= 0.10649E-01
  rms(prec ) = 0.16570E-01
  weight for this iteration     100.00

 eigenvalues of (default mixing * dielectric matrix)
  average eigenvalue GAMMA=   1.1558
  2.4329  2.4329  1.2840  1.1030  0.7482  0.7482  0.6972  0.5036  0.4524

 Free energy of the ion-electron system (eV)
  ---------------------------------------------------
  alpha Z        PSCENC =        41.16232785
  Ewald energy   TEWEN  =     16257.78983566
  -Hartree energ DENC   =    -33230.64843246
  -exchange      EXHF   =         0.00000000
  -V(xc)+E(xc)   XCENC  =       615.53082998
  PAW double counting   =     17694.36446878   -19092.71017326
  entropy T*S    EENTRO =         0.00884181
  eigenvalues    EBANDS =      -996.55834040
  atomic energy  EATOM  =     18662.21924712
  Solvation  Ediel_sol  =         0.00000000
  ---------------------------------------------------
  free energy    TOTEN  =       -48.84139492 eV

  energy without entropy =      -48.85023673  energy(sigma->0) =      -48.84434219


--------------------------------------------------------------------------------------------------------




--------------------------------------- Iteration      1(  15)  ---------------------------------------


    POTLOK:  cpu time    1.1682: real time    1.1700
    SETDIJ:  cpu time    0.0174: real time    0.0174
    EDDIAG:  cpu time    1.1170: real time    1.1178
  RMM-DIIS:  cpu time    6.6864: real time    6.6887
    ORTHCH:  cpu time    0.0592: real time    0.0592
       DOS:  cpu time    0.0005: real time    0.0005
    CHARGE:  cpu time    0.6720: real time    0.6720
    MIXING:  cpu time    0.0297: real time    0.0297
    --------------------------------------------
      LOOP:  cpu time    9.7504: real time    9.7553

 eigenvalue-minimisations  :   410
 total energy-change (2. order) :-0.1229735E-02  (-0.1532109E-03)
 number of electron     152.9999987 magnetization       1.0000000
 augmentation part       92.4371468 magnetization       0.0845458

 Broyden mixing:
  rms(total) = 0.57310E-02    rms(broyden)= 0.57308E-02
  rms(prec ) = 0.10061E-01
  weight for this iteration     100.00

 eigenvalues of (default mixing * dielectric matrix)
  average eigenvalue GAMMA=   1.2027
  2.7172  2.7172  1.3859  1.3859  0.8173  0.7415  0.7415  0.5773  0.4534  0.4902

 Free energy of the ion-electron system (eV)
  ---------------------------------------------------
  alpha Z        PSCENC =        41.16232785
  Ewald energy   TEWEN  =     16257.78983566
  -Hartree energ DENC   =    -33234.11943411
  -exchange      EXHF   =         0.00000000
  -V(xc)+E(xc)   XCENC  =       615.56697751
  PAW double counting   =     17689.25845255   -19087.51865927
  entropy T*S    EENTRO =         0.00883901
  eigenvalues    EBANDS =      -993.21021096
  atomic energy  EATOM  =     18662.21924712
  Solvation  Ediel_sol  =         0.00000000
  ---------------------------------------------------
  free energy    TOTEN  =       -48.84262465 eV

  energy without entropy =      -48.85146366  energy(sigma->0) =      -48.84557099


--------------------------------------------------------------------------------------------------------




--------------------------------------- Iteration      1(  16)  ---------------------------------------


    POTLOK:  cpu time    1.1676: real time    1.1687
    SETDIJ:  cpu time    0.0178: real time    0.0178
    EDDIAG:  cpu time    1.1159: real time    1.1162
  RMM-DIIS:  cpu time    6.3634: real time    6.3653
    ORTHCH:  cpu time    0.0589: real time    0.0589
       DOS:  cpu time    0.0005: real time    0.0005
    CHARGE:  cpu time    0.6705: real time    0.6708
    MIXING:  cpu time    0.0310: real time    0.0310
    --------------------------------------------
      LOOP:  cpu time    9.4255: real time    9.4292

 eigenvalue-minimisations  :   397
 total energy-change (2. order) :-0.1612226E-02  (-0.9994584E-04)
 number of electron     152.9999987 magnetization       1.0000000
 augmentation part       92.4298194 magnetization       0.0848125

 Broyden mixing:
  rms(total) = 0.48162E-02    rms(broyden)= 0.48159E-02
  rms(prec ) = 0.72754E-02
  weight for this iteration     100.00

 eigenvalues of (default mixing * dielectric matrix)
  average eigenvalue GAMMA=   1.2381
  3.2561  2.6351  1.5220  1.5220  0.9595  0.7590  0.7590  0.7256  0.4507  0.5232
  0.5068

 Free energy of the ion-electron system (eV)
  ---------------------------------------------------
  alpha Z        PSCENC =        41.16232785
  Ewald energy   TEWEN  =     16257.78983566
  -Hartree energ DENC   =    -33236.94486007
  -exchange      EXHF   =         0.00000000
  -V(xc)+E(xc)   XCENC  =       615.59585297
  PAW double counting   =     17685.46047958   -19083.69766496
  entropy T*S    EENTRO =         0.00883128
  eigenvalues    EBANDS =      -990.43828631
  atomic energy  EATOM  =     18662.21924712
  Solvation  Ediel_sol  =         0.00000000
  ---------------------------------------------------
  free energy    TOTEN  =       -48.84423688 eV

  energy without entropy =      -48.85306816  energy(sigma->0) =      -48.84718064


--------------------------------------------------------------------------------------------------------




--------------------------------------- Iteration      1(  17)  ---------------------------------------


    POTLOK:  cpu time    1.1676: real time    1.1686
    SETDIJ:  cpu time    0.0172: real time    0.0172
    EDDIAG:  cpu time    1.1170: real time    1.1173
  RMM-DIIS:  cpu time    6.5751: real time    6.5772
    ORTHCH:  cpu time    0.0590: real time    0.0590
       DOS:  cpu time    0.0004: real time    0.0004
    CHARGE:  cpu time    0.6719: real time    0.6720
    MIXING:  cpu time    0.0315: real time    0.0315
    --------------------------------------------
      LOOP:  cpu time    9.6397: real time    9.6434

 eigenvalue-minimisations  :   400
 total energy-change (2. order) :-0.1779312E-02  (-0.4835017E-04)
 number of electron     152.9999987 magnetization       1.0000000
 augmentation part       92.4318603 magnetization       0.0847602

 Broyden mixing:
  rms(total) = 0.21792E-02    rms(broyden)= 0.21792E-02
  rms(prec ) = 0.37691E-02
  weight for this iteration     100.00

 eigenvalues of (default mixing * dielectric matrix)
  average eigenvalue GAMMA=   1.3638
  4.5747  2.5883  2.1510  1.2994  1.2994  0.7736  0.7736  0.7784  0.6641  0.4513
  0.5215  0.4905

 Free energy of the ion-electron system (eV)
  ---------------------------------------------------
  alpha Z        PSCENC =        41.16232785
  Ewald energy   TEWEN  =     16257.78983566
  -Hartree energ DENC   =    -33238.75497993
  -exchange      EXHF   =         0.00000000
  -V(xc)+E(xc)   XCENC  =       615.60243536
  PAW double counting   =     17683.44185506   -19081.64597048
  entropy T*S    EENTRO =         0.00883079
  eigenvalues    EBANDS =      -988.66959762
  atomic energy  EATOM  =     18662.21924712
  Solvation  Ediel_sol  =         0.00000000
  ---------------------------------------------------
  free energy    TOTEN  =       -48.84601619 eV

  energy without entropy =      -48.85484698  energy(sigma->0) =      -48.84895979


--------------------------------------------------------------------------------------------------------




--------------------------------------- Iteration      1(  18)  ---------------------------------------


    POTLOK:  cpu time    1.1697: real time    1.1730
    SETDIJ:  cpu time    0.0174: real time    0.0174
    EDDIAG:  cpu time    1.1138: real time    1.1144
  RMM-DIIS:  cpu time    7.0376: real time    7.0409
    ORTHCH:  cpu time    0.0547: real time    0.0547
       DOS:  cpu time    0.0004: real time    0.0004
    CHARGE:  cpu time    0.6718: real time    0.6721
    MIXING:  cpu time    0.0324: real time    0.0324
    --------------------------------------------
      LOOP:  cpu time   10.0979: real time   10.1054

 eigenvalue-minimisations  :   431
 total energy-change (2. order) :-0.8957658E-03  (-0.2047592E-04)
 number of electron     152.9999987 magnetization       1.0000000
 augmentation part       92.4313558 magnetization       0.0848479

 Broyden mixing:
  rms(total) = 0.13699E-02    rms(broyden)= 0.13698E-02
  rms(prec ) = 0.25553E-02
  weight for this iteration     100.00

 eigenvalues of (default mixing * dielectric matrix)
  average eigenvalue GAMMA=   1.3924
  5.2559  2.6535  2.2372  1.3466  1.3466  0.8471  0.8471  0.7493  0.7493  0.6137
  0.4517  0.5156  0.4870

 Free energy of the ion-electron system (eV)
  ---------------------------------------------------
  alpha Z        PSCENC =        41.16232785
  Ewald energy   TEWEN  =     16257.78983566
  -Hartree energ DENC   =    -33239.68656864
  -exchange      EXHF   =         0.00000000
  -V(xc)+E(xc)   XCENC  =       615.60506013
  PAW double counting   =     17683.30194325   -19081.52232723
  entropy T*S    EENTRO =         0.00882949
  eigenvalues    EBANDS =      -987.72525959
  atomic energy  EATOM  =     18662.21924712
  Solvation  Ediel_sol  =         0.00000000
  ---------------------------------------------------
  free energy    TOTEN  =       -48.84691196 eV

  energy without entropy =      -48.85574145  energy(sigma->0) =      -48.84985512


--------------------------------------------------------------------------------------------------------




--------------------------------------- Iteration      1(  19)  ---------------------------------------


    POTLOK:  cpu time    1.1696: real time    1.1700
    SETDIJ:  cpu time    0.0173: real time    0.0173
    EDDIAG:  cpu time    1.1131: real time    1.1136
  RMM-DIIS:  cpu time    6.9747: real time    6.9778
    ORTHCH:  cpu time    0.0545: real time    0.0545
       DOS:  cpu time    0.0004: real time    0.0004
    CHARGE:  cpu time    0.6721: real time    0.6724
    MIXING:  cpu time    0.0335: real time    0.0335
    --------------------------------------------
      LOOP:  cpu time   10.0351: real time   10.0394

 eigenvalue-minimisations  :   423
 total energy-change (2. order) :-0.7801044E-03  (-0.8765179E-05)
 number of electron     152.9999987 magnetization       1.0000000
 augmentation part       92.4321134 magnetization       0.0848692

 Broyden mixing:
  rms(total) = 0.11531E-02    rms(broyden)= 0.11531E-02
  rms(prec ) = 0.18977E-02
  weight for this iteration     100.00

 eigenvalues of (default mixing * dielectric matrix)
  average eigenvalue GAMMA=   1.4576
  5.9533  2.7622  2.2142  1.7023  1.5485  1.2174  0.8331  0.7567  0.7567  0.6691
  0.4514  0.5469  0.5112  0.4836

 Free energy of the ion-electron system (eV)
  ---------------------------------------------------
  alpha Z        PSCENC =        41.16232785
  Ewald energy   TEWEN  =     16257.78983566
  -Hartree energ DENC   =    -33240.05235577
  -exchange      EXHF   =         0.00000000
  -V(xc)+E(xc)   XCENC  =       615.60332127
  PAW double counting   =     17683.47194094   -19081.69420764
  entropy T*S    EENTRO =         0.00883025
  eigenvalues    EBANDS =      -987.35663176
  atomic energy  EATOM  =     18662.21924712
  Solvation  Ediel_sol  =         0.00000000
  ---------------------------------------------------
  free energy    TOTEN  =       -48.84769206 eV

  energy without entropy =      -48.85652231  energy(sigma->0) =      -48.85063548


--------------------------------------------------------------------------------------------------------




--------------------------------------- Iteration      1(  20)  ---------------------------------------


    POTLOK:  cpu time    1.1696: real time    1.1700
    SETDIJ:  cpu time    0.0173: real time    0.0173
    EDDIAG:  cpu time    1.1123: real time    1.1130
  RMM-DIIS:  cpu time    6.5099: real time    6.5125
    ORTHCH:  cpu time    0.0547: real time    0.0547
       DOS:  cpu time    0.0004: real time    0.0004
    CHARGE:  cpu time    0.6721: real time    0.6723
    MIXING:  cpu time    0.0354: real time    0.0354
    --------------------------------------------
      LOOP:  cpu time    9.5717: real time    9.5757

 eigenvalue-minimisations  :   402
 total energy-change (2. order) :-0.5593954E-03  (-0.4972939E-05)
 number of electron     152.9999987 magnetization       1.0000000
 augmentation part       92.4320534 magnetization       0.0848795

 Broyden mixing:
  rms(total) = 0.60307E-03    rms(broyden)= 0.60306E-03
  rms(prec ) = 0.11271E-02
  weight for this iteration     100.00

 eigenvalues of (default mixing * dielectric matrix)
  average eigenvalue GAMMA=   1.4787
  6.3929  2.8998  2.3436  2.0695  1.3207  1.3207  0.8666  0.8666  0.7457  0.7457
  0.6369  0.4513  0.5189  0.5189  0.4833

 Free energy of the ion-electron system (eV)
  ---------------------------------------------------
  alpha Z        PSCENC =        41.16232785
  Ewald energy   TEWEN  =     16257.78983566
  -Hartree energ DENC   =    -33240.23523707
  -exchange      EXHF   =         0.00000000
  -V(xc)+E(xc)   XCENC  =       615.60226088
  PAW double counting   =     17683.85814703   -19082.08901198
  entropy T*S    EENTRO =         0.00883101
  eigenvalues    EBANDS =      -987.16465196
  atomic energy  EATOM  =     18662.21924712
  Solvation  Ediel_sol  =         0.00000000
  ---------------------------------------------------
  free energy    TOTEN  =       -48.84825146 eV

  energy without entropy =      -48.85708247  energy(sigma->0) =      -48.85119513


--------------------------------------------------------------------------------------------------------




--------------------------------------- Iteration      1(  21)  ---------------------------------------


    POTLOK:  cpu time    1.1689: real time    1.1694
    SETDIJ:  cpu time    0.0177: real time    0.0177
    EDDIAG:  cpu time    1.1109: real time    1.1113
  RMM-DIIS:  cpu time    6.6185: real time    6.6216
    ORTHCH:  cpu time    0.0552: real time    0.0552
       DOS:  cpu time    0.0004: real time    0.0004
    CHARGE:  cpu time    0.6701: real time    0.6702
    MIXING:  cpu time    0.0368: real time    0.0368
    --------------------------------------------
      LOOP:  cpu time    9.6786: real time    9.6826

 eigenvalue-minimisations  :   404
 total energy-change (2. order) :-0.3989779E-03  (-0.2809653E-05)
 number of electron     152.9999987 magnetization       1.0000000
 augmentation part       92.4327464 magnetization       0.0848676

 Broyden mixing:
  rms(total) = 0.54503E-03    rms(broyden)= 0.54501E-03
  rms(prec ) = 0.84890E-03
  weight for this iteration     100.00

 eigenvalues of (default mixing * dielectric matrix)
  average eigenvalue GAMMA=   1.5221
  6.7179  3.3745  2.4800  2.1613  1.4484  1.4484  0.9669  0.9669  0.7524  0.7524
  0.6865  0.6232  0.4514  0.4832  0.5271  0.5136

 Free energy of the ion-electron system (eV)
  ---------------------------------------------------
  alpha Z        PSCENC =        41.16232785
  Ewald energy   TEWEN  =     16257.78983566
  -Hartree energ DENC   =    -33240.24895321
  -exchange      EXHF   =         0.00000000
  -V(xc)+E(xc)   XCENC  =       615.60066484
  PAW double counting   =     17684.05632051   -19082.28444282
  entropy T*S    EENTRO =         0.00883184
  eigenvalues    EBANDS =      -987.15248221
  atomic energy  EATOM  =     18662.21924712
  Solvation  Ediel_sol  =         0.00000000
  ---------------------------------------------------
  free energy    TOTEN  =       -48.84865044 eV

  energy without entropy =      -48.85748227  energy(sigma->0) =      -48.85159438


--------------------------------------------------------------------------------------------------------




--------------------------------------- Iteration      1(  22)  ---------------------------------------


    POTLOK:  cpu time    1.1693: real time    1.1727
    SETDIJ:  cpu time    0.0171: real time    0.0171
    EDDIAG:  cpu time    1.1103: real time    1.1107
  RMM-DIIS:  cpu time    6.6562: real time    6.6592
    ORTHCH:  cpu time    0.0556: real time    0.0556
       DOS:  cpu time    0.0004: real time    0.0004
    CHARGE:  cpu time    0.6704: real time    0.6706
    MIXING:  cpu time    0.0388: real time    0.0388
    --------------------------------------------
      LOOP:  cpu time    9.7180: real time    9.7250

 eigenvalue-minimisations  :   406
 total energy-change (2. order) :-0.2391898E-03  (-0.1711545E-05)
 number of electron     152.9999987 magnetization       1.0000000
 augmentation part       92.4323432 magnetization       0.0848603

 Broyden mixing:
  rms(total) = 0.28892E-03    rms(broyden)= 0.28889E-03
  rms(prec ) = 0.51023E-03
  weight for this iteration     100.00

 eigenvalues of (default mixing * dielectric matrix)
  average eigenvalue GAMMA=   1.5738
  7.1589  4.1096  2.4934  2.1463  1.7640  1.3027  1.3027  0.8800  0.8800  0.7553
  0.7553  0.6594  0.5774  0.4513  0.4821  0.5277  0.5086

 Free energy of the ion-electron system (eV)
  ---------------------------------------------------
  alpha Z        PSCENC =        41.16232785
  Ewald energy   TEWEN  =     16257.78983566
  -Hartree energ DENC   =    -33240.32940670
  -exchange      EXHF   =         0.00000000
  -V(xc)+E(xc)   XCENC  =       615.60059005
  PAW double counting   =     17684.21834113   -19082.45114638
  entropy T*S    EENTRO =         0.00883104
  eigenvalues    EBANDS =      -987.06750940
  atomic energy  EATOM  =     18662.21924712
  Solvation  Ediel_sol  =         0.00000000
  ---------------------------------------------------
  free energy    TOTEN  =       -48.84888963 eV

  energy without entropy =      -48.85772066  energy(sigma->0) =      -48.85183330


--------------------------------------------------------------------------------------------------------




--------------------------------------- Iteration      1(  23)  ---------------------------------------


    POTLOK:  cpu time    1.1681: real time    1.1695
    SETDIJ:  cpu time    0.0171: real time    0.0171
    EDDIAG:  cpu time    1.1116: real time    1.1120
  RMM-DIIS:  cpu time    6.5750: real time    6.5778
    ORTHCH:  cpu time    0.0557: real time    0.0557
       DOS:  cpu time    0.0005: real time    0.0005
    CHARGE:  cpu time    0.6694: real time    0.6699
    MIXING:  cpu time    0.0408: real time    0.0408
    --------------------------------------------
      LOOP:  cpu time    9.6381: real time    9.6433

 eigenvalue-minimisations  :   408
 total energy-change (2. order) :-0.1247421E-03  (-0.7623677E-06)
 number of electron     152.9999987 magnetization       1.0000000
 augmentation part       92.4319536 magnetization       0.0848708

 Broyden mixing:
  rms(total) = 0.19646E-03    rms(broyden)= 0.19645E-03
  rms(prec ) = 0.32427E-03
  weight for this iteration     100.00

 eigenvalues of (default mixing * dielectric matrix)
  average eigenvalue GAMMA=   1.5760
  7.4033  4.3379  2.4414  2.2886  1.8461  1.3509  1.3509  0.9586  0.9586  0.7581
  0.7581  0.7036  0.6828  0.4513  0.5667  0.4812  0.5147  0.5147

 Free energy of the ion-electron system (eV)
  ---------------------------------------------------
  alpha Z        PSCENC =        41.16232785
  Ewald energy   TEWEN  =     16257.78983566
  -Hartree energ DENC   =    -33240.40331157
  -exchange      EXHF   =         0.00000000
  -V(xc)+E(xc)   XCENC  =       615.60078388
  PAW double counting   =     17684.21460674   -19082.44943855
  entropy T*S    EENTRO =         0.00883095
  eigenvalues    EBANDS =      -986.99189646
  atomic energy  EATOM  =     18662.21924712
  Solvation  Ediel_sol  =         0.00000000
  ---------------------------------------------------
  free energy    TOTEN  =       -48.84901437 eV

  energy without entropy =      -48.85784532  energy(sigma->0) =      -48.85195802


--------------------------------------------------------------------------------------------------------




--------------------------------------- Iteration      1(  24)  ---------------------------------------


    POTLOK:  cpu time    1.1691: real time    1.1714
    SETDIJ:  cpu time    0.0174: real time    0.0174
    EDDIAG:  cpu time    1.1144: real time    1.1155
  RMM-DIIS:  cpu time    6.4104: real time    6.4136
    ORTHCH:  cpu time    0.0554: real time    0.0554
       DOS:  cpu time    0.0004: real time    0.0004
    CHARGE:  cpu time    0.6690: real time    0.6693
    MIXING:  cpu time    0.0432: real time    0.0432
    --------------------------------------------
      LOOP:  cpu time    9.4792: real time    9.4861

 eigenvalue-minimisations  :   399
 total energy-change (2. order) :-0.9516989E-04  (-0.6611901E-06)
 number of electron     152.9999987 magnetization       1.0000000
 augmentation part       92.4319414 magnetization       0.0848759

 Broyden mixing:
  rms(total) = 0.17189E-03    rms(broyden)= 0.17189E-03
  rms(prec ) = 0.26158E-03
  weight for this iteration     100.00

 eigenvalues of (default mixing * dielectric matrix)
  average eigenvalue GAMMA=   1.6124
  7.7604  4.6925  2.5355  2.5355  1.8229  1.4993  1.4993  1.1224  0.9057  0.9057
  0.7642  0.7642  0.6891  0.6202  0.4513  0.5499  0.4815  0.5199  0.5162

 Free energy of the ion-electron system (eV)
  ---------------------------------------------------
  alpha Z        PSCENC =        41.16232785
  Ewald energy   TEWEN  =     16257.78983566
  -Hartree energ DENC   =    -33240.41708507
  -exchange      EXHF   =         0.00000000
  -V(xc)+E(xc)   XCENC  =       615.60080261
  PAW double counting   =     17684.12164727   -19082.35448397
  entropy T*S    EENTRO =         0.00883098
  eigenvalues    EBANDS =      -986.98023199
  atomic energy  EATOM  =     18662.21924712
  Solvation  Ediel_sol  =         0.00000000
  ---------------------------------------------------
  free energy    TOTEN  =       -48.84910954 eV

  energy without entropy =      -48.85794052  energy(sigma->0) =      -48.85205320


--------------------------------------------------------------------------------------------------------




--------------------------------------- Iteration      1(  25)  ---------------------------------------


    POTLOK:  cpu time    1.1680: real time    1.1700
    SETDIJ:  cpu time    0.0170: real time    0.0170
    EDDIAG:  cpu time    1.1127: real time    1.1132
  RMM-DIIS:  cpu time    6.4063: real time    6.4088
    ORTHCH:  cpu time    0.0551: real time    0.0551
       DOS:  cpu time    0.0004: real time    0.0004
    CHARGE:  cpu time    0.6690: real time    0.6694
    MIXING:  cpu time    0.0453: real time    0.0453
    --------------------------------------------
      LOOP:  cpu time    9.4740: real time    9.4794

 eigenvalue-minimisations  :   393
 total energy-change (2. order) :-0.6460460E-04  (-0.6173083E-06)
 number of electron     152.9999987 magnetization       1.0000000
 augmentation part       92.4322147 magnetization       0.0848836

 Broyden mixing:
  rms(total) = 0.10101E-03    rms(broyden)= 0.10099E-03
  rms(prec ) = 0.15268E-03
  weight for this iteration     100.00

 eigenvalues of (default mixing * dielectric matrix)
  average eigenvalue GAMMA=   1.6471
  7.9675  5.1609  2.8406  2.5364  1.8966  1.8966  1.3145  1.3145  0.9584  0.9584
  0.7653  0.7653  0.7356  0.6904  0.6172  0.4513  0.5563  0.4812  0.5175  0.5175

 Free energy of the ion-electron system (eV)
  ---------------------------------------------------
  alpha Z        PSCENC =        41.16232785
  Ewald energy   TEWEN  =     16257.78983566
  -Hartree energ DENC   =    -33240.39812451
  -exchange      EXHF   =         0.00000000
  -V(xc)+E(xc)   XCENC  =       615.60051577
  PAW double counting   =     17684.01170412   -19082.23990910
  entropy T*S    EENTRO =         0.00883119
  eigenvalues    EBANDS =      -987.00360224
  atomic energy  EATOM  =     18662.21924712
  Solvation  Ediel_sol  =         0.00000000
  ---------------------------------------------------
  free energy    TOTEN  =       -48.84917414 eV

  energy without entropy =      -48.85800533  energy(sigma->0) =      -48.85211787


--------------------------------------------------------------------------------------------------------




--------------------------------------- Iteration      1(  26)  ---------------------------------------


    POTLOK:  cpu time    1.1699: real time    1.1722
    SETDIJ:  cpu time    0.0179: real time    0.0179
    EDDIAG:  cpu time    1.1121: real time    1.1126
  RMM-DIIS:  cpu time    6.2240: real time    6.2254
    ORTHCH:  cpu time    0.0560: real time    0.0562
       DOS:  cpu time    0.0004: real time    0.0004
    CHARGE:  cpu time    0.6703: real time    0.6703
    MIXING:  cpu time    0.0484: real time    0.0484
    --------------------------------------------
      LOOP:  cpu time    9.2989: real time    9.3034

 eigenvalue-minimisations  :   364
 total energy-change (2. order) :-0.2552728E-04  (-0.2460193E-06)
 number of electron     152.9999987 magnetization       1.0000000
 augmentation part       92.4323321 magnetization       0.0848879

 Broyden mixing:
  rms(total) = 0.76439E-04    rms(broyden)= 0.76436E-04
  rms(prec ) = 0.10918E-03
  weight for this iteration     100.00

 eigenvalues of (default mixing * dielectric matrix)
  average eigenvalue GAMMA=   1.6525
  8.1136  5.4530  3.1218  2.5203  2.0795  1.8186  1.3998  1.3998  1.0006  1.0006
  0.7918  0.7918  0.7419  0.7419  0.6099  0.6099  0.4513  0.4810  0.5413  0.5170
  0.5170

 Free energy of the ion-electron system (eV)
  ---------------------------------------------------
  alpha Z        PSCENC =        41.16232785
  Ewald energy   TEWEN  =     16257.78983566
  -Hartree energ DENC   =    -33240.39629192
  -exchange      EXHF   =         0.00000000
  -V(xc)+E(xc)   XCENC  =       615.60038775
  PAW double counting   =     17683.99705714   -19082.22422848
  entropy T*S    EENTRO =         0.00883117
  eigenvalues    EBANDS =      -987.00636597
  atomic energy  EATOM  =     18662.21924712
  Solvation  Ediel_sol  =         0.00000000
  ---------------------------------------------------
  free energy    TOTEN  =       -48.84919967 eV

  energy without entropy =      -48.85803084  energy(sigma->0) =      -48.85214339


--------------------------------------------------------------------------------------------------------




--------------------------------------- Iteration      1(  27)  ---------------------------------------


    POTLOK:  cpu time    1.1707: real time    1.1713
    SETDIJ:  cpu time    0.0172: real time    0.0172
    EDDIAG:  cpu time    1.1124: real time    1.1127
  RMM-DIIS:  cpu time    4.7793: real time    4.7806
    ORTHCH:  cpu time    0.0560: real time    0.0560
       DOS:  cpu time    0.0004: real time    0.0004
    CHARGE:  cpu time    0.6708: real time    0.6711
    MIXING:  cpu time    0.0516: real time    0.0516
    --------------------------------------------
      LOOP:  cpu time    7.8583: real time    7.8608

 eigenvalue-minimisations  :   282
 total energy-change (2. order) :-0.1174716E-04  (-0.1078654E-06)
 number of electron     152.9999987 magnetization       1.0000000
 augmentation part       92.4322002 magnetization       0.0848754

 Broyden mixing:
  rms(total) = 0.60667E-04    rms(broyden)= 0.60664E-04
  rms(prec ) = 0.83124E-04
  weight for this iteration     100.00

 eigenvalues of (default mixing * dielectric matrix)
  average eigenvalue GAMMA=   1.6374
  8.1534  5.6852  3.2453  2.5054  2.2305  1.6966  1.4271  1.4271  1.0286  0.9750
  0.9750  0.8174  0.7625  0.7625  0.6836  0.6041  0.4513  0.5477  0.5477  0.4814
  0.5082  0.5082

 Free energy of the ion-electron system (eV)
  ---------------------------------------------------
  alpha Z        PSCENC =        41.16232785
  Ewald energy   TEWEN  =     16257.78983566
  -Hartree energ DENC   =    -33240.40221392
  -exchange      EXHF   =         0.00000000
  -V(xc)+E(xc)   XCENC  =       615.60047041
  PAW double counting   =     17683.99607003   -19082.22437967
  entropy T*S    EENTRO =         0.00883115
  eigenvalues    EBANDS =      -986.99940005
  atomic energy  EATOM  =     18662.21924712
  Solvation  Ediel_sol  =         0.00000000
  ---------------------------------------------------
  free energy    TOTEN  =       -48.84921142 eV

  energy without entropy =      -48.85804257  energy(sigma->0) =      -48.85215513


--------------------------------------------------------------------------------------------------------




--------------------------------------- Iteration      1(  28)  ---------------------------------------


    POTLOK:  cpu time    1.1689: real time    1.1692
    SETDIJ:  cpu time    0.0173: real time    0.0173
    EDDIAG:  cpu time    1.1121: real time    1.1128
  RMM-DIIS:  cpu time    4.4001: real time    4.4013
    ORTHCH:  cpu time    0.0556: real time    0.0558
       DOS:  cpu time    0.0004: real time    0.0004
    CHARGE:  cpu time    0.6713: real time    0.6713
    MIXING:  cpu time    0.0554: real time    0.0554
[...]
     66      -4.8853      1.00000
     67      -4.8680      1.00000
     68      -4.8478      1.00000
     69      -4.8388      1.00000
     70      -4.7938      1.00000
     71      -4.7805      1.00000
     72      -4.7308      1.00000
     73      -4.6981      1.00000
     74      -4.5080      1.00000
     75      -4.1386      1.00000
     76      -4.0911      1.00000
     77      -3.5357      1.00000
     78      -2.9723     -0.00000
     79      -2.8421     -0.00000
     80      -2.4932     -0.00000
     81      -2.2911     -0.00000
     82      -1.9449     -0.00000
     83      -1.8090     -0.00000
     84      -1.6972     -0.00000
     85      -1.3531     -0.00000
     86      -1.0533     -0.00000
     87      -0.9171     -0.00000
     88      -0.6888      0.00000
     89      -0.3739      0.00000
     90      -0.1157      0.00000
     91       0.0787      0.00000
     92       0.2903      0.00000

 spin component 2

 k-point     1 :       0.0000    0.0000    0.0000
  band No.  band energies     occupation 
      1     -29.0536      1.00000
      2     -13.8714      1.00000
      3     -11.6044      1.00000
      4     -11.5269      1.00000
      5     -11.1996      1.00000
      6     -10.0659      1.00000
      7      -8.5200      1.00000
      8      -8.0825      1.00000
      9      -7.6201      1.00000
     10      -7.4394      1.00000
     11      -7.3312      1.00000
     12      -7.2208      1.00000
     13      -7.1865      1.00000
     14      -7.0498      1.00000
     15      -6.9859      1.00000
     16      -6.8753      1.00000
     17      -6.7272      1.00000
     18      -6.6814      1.00000
     19      -6.6029      1.00000
     20      -6.5368      1.00000
     21      -6.5088      1.00000
     22      -6.5044      1.00000
     23      -6.4103      1.00000
     24      -6.3846      1.00000
     25      -6.3651      1.00000
     26      -6.3356      1.00000
     27      -6.2786      1.00000
     28      -6.2448      1.00000
     29      -6.1764      1.00000
     30      -6.1665      1.00000
     31      -6.1181      1.00000
     32      -6.0956      1.00000
     33      -6.0138      1.00000
     34      -5.9817      1.00000
     35      -5.8567      1.00000
     36      -5.7782      1.00000
     37      -5.7268      1.00000
     38      -5.6707      1.00000
     39      -5.6452      1.00000
     40      -5.5586      1.00000
     41      -5.5516      1.00000
     42      -5.4795      1.00000
     43      -5.4714      1.00000
     44      -5.4210      1.00000
     45      -5.3823      1.00000
     46      -5.3539      1.00000
     47      -5.3131      1.00000
     48      -5.2978      1.00000
     49      -5.2839      1.00000
     50      -5.2695      1.00000
     51      -5.2388      1.00000
     52      -5.1941      1.00000
     53      -5.1903      1.00000
     54      -5.1767      1.00000
     55      -5.1420      1.00000
     56      -5.1098      1.00000
     57      -5.0889      1.00000
     58      -5.0715      1.00000
     59      -5.0662      1.00000
     60      -5.0195      1.00000
     61      -5.0059      1.00000
     62      -4.9631      1.00000
     63      -4.9540      1.00000
     64      -4.9256      1.00000
     65      -4.8720      1.00000
     66      -4.8598      1.00000
     67      -4.8451      1.00000
     68      -4.8156      1.00000
     69      -4.7996      1.00000
     70      -4.7636      1.00000
     71      -4.7411      1.00000
     72      -4.7062      1.00000
     73      -4.6665      1.00000
     74      -4.4642      1.00000
     75      -4.0725      1.01701
     76      -4.0564      0.98299
     77      -3.3266     -0.00000
     78      -2.9207     -0.00000
     79      -2.7894     -0.00000
     80      -2.4247     -0.00000
     81      -2.2021     -0.00000
     82      -1.9155     -0.00000
     83      -1.7312     -0.00000
     84      -1.6312     -0.00000
     85      -1.2438      0.00000
     86      -0.9120      0.00000
     87      -0.8544      0.00000
     88      -0.6162      0.00000
     89      -0.2713      0.00000
     90      -0.1992      0.00000
     91      -0.0394      0.00000
     92       0.1540      0.00000


--------------------------------------------------------------------------------------------------------


 soft charge-density along one line, spin component           1
         0         1         2         3         4         5         6         7         8         9
 total charge-density along one line
 
 soft charge-density along one line, spin component           2
         0         1         2         3         4         5         6         7         8         9
 total charge-density along one line
 
 pseudopotential strength for first ion, spin component:           1
-10.503   0.004  -0.018   0.003  -0.011   1.009  -0.003   0.016
  0.004 -10.472  -0.006   0.010   0.003  -0.003   0.986   0.004
 -0.018  -0.006 -10.454   0.004  -0.011   0.016   0.004   0.971
  0.003   0.010   0.004 -10.460  -0.001  -0.002  -0.009  -0.003
 -0.011   0.003  -0.011  -0.001 -10.483   0.008  -0.002   0.009
  1.009  -0.003   0.016  -0.002   0.008   6.298   0.002  -0.013
 -0.003   0.986   0.004  -0.009  -0.002   0.002   6.311  -0.003
  0.016   0.004   0.971  -0.003   0.009  -0.013  -0.003   6.323
 -0.002  -0.009  -0.003   0.975   0.001   0.002   0.008   0.002
  0.008  -0.002   0.009   0.001   0.994  -0.005   0.001  -0.007
 -0.008   0.000  -0.006  -0.001  -0.004   0.005   0.000  -0.000
 -0.014   0.001  -0.011  -0.001  -0.007   0.009   0.000  -0.001
 -0.013  -0.001   0.005  -0.000   0.009   0.008   0.001  -0.003
 -0.000  -0.007  -0.001  -0.012  -0.000   0.000   0.005   0.001
 -0.006  -0.000   0.008  -0.001  -0.013   0.003   0.000  -0.006
 -0.013  -0.002   0.005  -0.001   0.010   0.008   0.002  -0.004
 -0.001  -0.007  -0.002  -0.013  -0.000   0.001   0.004   0.001
 -0.005  -0.001   0.008  -0.002  -0.014   0.001   0.001  -0.006
 pseudopotential strength for first ion, spin component:           2
-10.456   0.002  -0.010  -0.006   0.004   0.972  -0.002   0.008
  0.002 -10.457  -0.006   0.009   0.001  -0.002   0.973   0.005
 -0.010  -0.006 -10.439   0.002  -0.007   0.008   0.005   0.959
 -0.006   0.009   0.002 -10.443  -0.004   0.005  -0.008  -0.002
  0.004   0.001  -0.007  -0.004 -10.465  -0.003  -0.001   0.006
  0.972  -0.002   0.008   0.005  -0.003   6.322   0.002  -0.005
 -0.002   0.973   0.005  -0.008  -0.001   0.002   6.319  -0.003
  0.008   0.005   0.959  -0.002   0.006  -0.005  -0.003   6.330
  0.005  -0.008  -0.002   0.961   0.002  -0.003   0.005   0.001
 -0.003  -0.001   0.006   0.002   0.979   0.002   0.000  -0.004
 -0.003   0.001  -0.003  -0.001  -0.002   0.000   0.000  -0.002
 -0.006   0.002  -0.005  -0.002  -0.004   0.001   0.000  -0.003
 -0.014  -0.001   0.005   0.000   0.008   0.012   0.000  -0.005
  0.000  -0.008  -0.001  -0.014   0.000  -0.000   0.006  -0.000
 -0.009   0.000   0.008  -0.000  -0.014   0.007  -0.000  -0.007
 -0.016  -0.001   0.006   0.000   0.010   0.013   0.000  -0.006
  0.000  -0.009  -0.001  -0.015   0.001  -0.001   0.007  -0.001
 -0.011   0.000   0.010   0.000  -0.016   0.008  -0.001  -0.009
 total augmentation occupancy for first ion, spin component:           1
  1.931   0.006  -0.007   0.002  -0.003  -0.010  -0.002   0.008  -0.001   0.003  -0.019   0.014   0.035  -0.003   0.033  -0.020
  0.006   1.928  -0.006   0.008  -0.000  -0.002  -0.020   0.005  -0.002   0.000  -0.004  -0.001  -0.000   0.036  -0.004  -0.001
 -0.007  -0.006   1.947   0.003  -0.003   0.008   0.005  -0.027  -0.003   0.004  -0.011   0.010  -0.010   0.001  -0.019   0.006
  0.002   0.008   0.003   1.937  -0.004  -0.001  -0.002  -0.003  -0.023   0.003   0.006   0.001   0.004   0.057   0.001   0.000
 -0.003  -0.000  -0.003  -0.004   1.938   0.003   0.000   0.004   0.003  -0.016  -0.012   0.006  -0.010   0.006   0.034   0.012
 -0.010  -0.002   0.008  -0.001   0.003   0.014   0.000   0.002   0.000   0.001  -0.031   0.000   0.020  -0.000   0.007  -0.001
 -0.002  -0.020   0.005  -0.002   0.000   0.000   0.008   0.000   0.001  -0.001   0.006  -0.001   0.001   0.011   0.001  -0.000
  0.008   0.005  -0.027  -0.003   0.004   0.002   0.000   0.007  -0.000   0.001  -0.041   0.005  -0.005  -0.001  -0.008   0.000
 -0.001  -0.002  -0.003  -0.023   0.003   0.000   0.001  -0.000   0.009  -0.001  -0.005   0.001  -0.002   0.019  -0.001  -0.000
  0.003   0.000   0.004   0.003  -0.016   0.001  -0.001   0.001  -0.001   0.012  -0.013   0.000  -0.019  -0.003   0.022   0.001
 -0.019  -0.004  -0.011   0.006  -0.012  -0.031   0.006  -0.041  -0.005  -0.013   1.631  -0.114   0.110   0.002   0.180  -0.015
  0.014  -0.001   0.010   0.001   0.006   0.000  -0.001   0.005   0.001   0.000  -0.114   0.013  -0.016   0.001  -0.026   0.002
  0.035  -0.000  -0.010   0.004  -0.010   0.020   0.001  -0.005  -0.002  -0.019   0.110  -0.016   0.182   0.003  -0.043  -0.011
 -0.003   0.036   0.001   0.057   0.006  -0.000   0.011  -0.001   0.019  -0.003   0.002   0.001   0.003   0.083  -0.007  -0.001
  0.033  -0.004  -0.019   0.001   0.034   0.007   0.001  -0.008  -0.001   0.022   0.180  -0.026  -0.043  -0.007   0.142   0.001
 -0.020  -0.001   0.006   0.000   0.012  -0.001  -0.000   0.000  -0.000   0.001  -0.015   0.002  -0.011  -0.001   0.001   0.001
  0.000  -0.013  -0.001  -0.021   0.000  -0.000  -0.001   0.000  -0.001   0.000  -0.000  -0.000  -0.001  -0.005   0.000   0.000
 -0.012   0.000   0.010  -0.001  -0.020   0.000  -0.000   0.001   0.000  -0.001  -0.025   0.003   0.001   0.000  -0.010   0.000
 total augmentation occupancy for first ion, spin component:           2
  0.019  -0.002   0.002  -0.006   0.008  -0.003   0.000  -0.002   0.001  -0.002   0.036   0.006  -0.011   0.007  -0.019  -0.001
 -0.002   0.000  -0.000   0.002  -0.001   0.000   0.001  -0.000   0.001   0.000  -0.003  -0.001   0.002  -0.003   0.002   0.000
  0.002  -0.000   0.001  -0.001   0.001  -0.002  -0.000   0.002   0.000  -0.001   0.005   0.000  -0.000   0.003  -0.001   0.000
 -0.006   0.002  -0.001   0.003  -0.002   0.001   0.001   0.000   0.002   0.000  -0.011  -0.002   0.003  -0.006   0.006   0.000
  0.008  -0.001   0.001  -0.002   0.003  -0.002   0.000  -0.001   0.000   0.001   0.015   0.003  -0.002   0.002  -0.010  -0.000
 -0.003   0.000  -0.002   0.001  -0.002   0.001  -0.000   0.000  -0.000   0.000  -0.008  -0.001   0.002  -0.002   0.004   0.000
  0.000   0.001  -0.000   0.001   0.000  -0.000  -0.000   0.000  -0.000  -0.000   0.000   0.000   0.000   0.000  -0.000  -0.000
 -0.002  -0.000   0.002   0.000  -0.001   0.000   0.000  -0.000  -0.000   0.000  -0.002  -0.000   0.000  -0.000   0.001   0.000
  0.001   0.001   0.000   0.002   0.000  -0.000  -0.000  -0.000  -0.000  -0.000   0.002   0.000  -0.001   0.000  -0.001  -0.000
 -0.002   0.000  -0.001   0.000   0.001   0.000  -0.000   0.000  -0.000  -0.000  -0.003  -0.000   0.001  -0.001   0.001  -0.000
  0.036  -0.003   0.005  -0.011   0.015  -0.008   0.000  -0.002   0.002  -0.003   0.082   0.005  -0.020   0.016  -0.038  -0.000
  0.006  -0.001   0.000  -0.002   0.003  -0.001   0.000  -0.000   0.000  -0.000   0.005   0.001  -0.001   0.001  -0.002  -0.000
 -0.011   0.002  -0.000   0.003  -0.002   0.002   0.000   0.000  -0.001   0.001  -0.020  -0.001   0.004  -0.003   0.006   0.000
  0.007  -0.003   0.003  -0.006   0.002  -0.002   0.000  -0.000   0.000  -0.001   0.016   0.001  -0.003   0.003  -0.006  -0.000
 -0.019   0.002  -0.001   0.006  -0.010   0.004  -0.000   0.001  -0.001   0.001  -0.038  -0.002   0.006  -0.006   0.014   0.000
 -0.001   0.000   0.000   0.000  -0.000   0.000  -0.000   0.000  -0.000  -0.000  -0.000  -0.000   0.000  -0.000   0.000   0.000
  0.000  -0.001   0.000  -0.001   0.000   0.000  -0.000  -0.000   0.000   0.000  -0.000   0.000   0.000   0.000   0.000  -0.000
 -0.001   0.000   0.000   0.001  -0.001   0.000   0.000   0.000  -0.000   0.000  -0.000  -0.000   0.000  -0.000   0.000   0.000


------------------------ aborting loop because EDIFF is reached ----------------------------------------


    CHARGE:  cpu time    0.6700: real time    0.6703
    FORLOC:  cpu time    0.0652: real time    0.0652
    FORNL :  cpu time    1.5363: real time    1.5365
    STRESS:  cpu time    5.9051: real time    5.9067
    FORCOR:  cpu time    1.1728: real time    1.1749
    FORHAR:  cpu time    0.1907: real time    0.1909
    MIXING:  cpu time    0.1131: real time    0.1131
    OFIELD:  cpu time    0.0000: real time    0.0001

  FORCE on cell =-STRESS in cart. coord.  units (eV):
  Direction    XX          YY          ZZ          XY          YZ          ZX
  --------------------------------------------------------------------------------------
  Alpha Z    41.16233    41.16233    41.16233
  Ewald   10334.02503  7390.31306 -1466.56410  -778.89191   399.00117   120.94491
  Hartree 15428.07057 12878.71044  4933.62864  -712.76093   351.80551    75.20019
  E(xc)    -876.34596  -877.92040  -879.62205    -0.04145     0.05668     0.22544
  Local  -27152.12321-21699.72325 -4905.13757  1495.03610  -749.11093  -190.37273
  n-local  -331.61278  -322.94626  -329.14363    -1.87402    -0.07162     0.23352
  augment  1222.06161  1226.29370  1232.76156     0.11029    -0.71707    -1.31868
  Kinetic  1336.94813  1364.20128  1371.07589    -1.55018    -0.95477    -3.70397
  Fock        0.00000     0.00000     0.00000     0.00000     0.00000     0.00000
  -------------------------------------------------------------------------------------
  Total       2.18572     0.09090    -1.83892     0.02790     0.00896     1.20869
  in kB       1.03760     0.04315    -0.87297     0.01325     0.00426     0.57379
  external pressure =        0.07 kB  Pullay stress =        0.00 kB


 VOLUME and BASIS-vectors are now :
 -----------------------------------------------------------------------------
  energy-cutoff  :      600.00
  volume of cell :     3375.00
      direct lattice vectors                 reciprocal lattice vectors
    15.000000000  0.000000000  0.000000000     0.066666667  0.000000000  0.000000000
     0.000000000 15.000000000  0.000000000     0.000000000  0.066666667  0.000000000
     0.000000000  0.000000000 15.000000000     0.000000000  0.000000000  0.066666667

  length of vectors
    15.000000000 15.000000000 15.000000000     0.066666667  0.066666667  0.066666667


 FORCES acting on ions
    electron-ion (+dipol)            ewald-force                    non-local-force                 convergence-correction
 -----------------------------------------------------------------------------------------------
   0.110E+04 0.669E+03 -.740E+01   -.109E+04 -.666E+03 0.766E+01   -.479E+01 -.289E+01 -.233E+00   0.844E-05 -.394E-06 0.304E-05
   0.460E+03 -.339E+03 0.896E+03   -.459E+03 0.336E+03 -.896E+03   -.192E+01 0.243E+01 0.350E+00   -.274E-05 -.648E-05 -.225E-04
   0.315E+03 0.129E+04 -.187E+03   -.313E+03 -.128E+04 0.185E+03   -.192E+01 -.897E+01 0.178E+01   0.196E-04 -.591E-05 -.632E-06
   -.862E+03 -.133E+03 0.881E+03   0.860E+03 0.132E+03 -.877E+03   0.220E+01 0.715E+00 -.444E+01   -.497E-05 0.115E-06 0.412E-05
   -.822E+03 0.100E+04 0.150E+03   0.817E+03 -.994E+03 -.149E+03   0.513E+01 -.608E+01 -.126E+01   0.375E-05 -.118E-04 0.348E-05
   -.140E+03 0.506E+03 -.931E+03   0.139E+03 -.504E+03 0.930E+03   0.139E+01 -.233E+01 0.507E+00   -.126E-05 0.205E-05 0.282E-04
   0.169E+03 0.623E+03 0.123E+04   -.168E+03 -.619E+03 -.122E+04   -.917E+00 -.487E+01 -.607E+01   0.724E-05 0.115E-04 0.893E-05
   0.123E+04 -.356E+03 0.145E+03   -.122E+04 0.353E+03 -.142E+03   -.872E+01 0.351E+01 -.303E+01   -.201E-04 0.794E-05 -.685E-05
   0.582E+03 -.196E+03 -.122E+04   -.578E+03 0.196E+03 0.121E+04   -.365E+01 -.230E-02 0.709E+01   0.211E-04 -.622E-05 -.174E-05
   0.452E+03 -.126E+04 -.136E+03   -.449E+03 0.125E+04 0.134E+03   -.353E+01 0.717E+01 0.166E+01   -.146E-05 0.860E-05 0.325E-06
   -.496E+03 -.105E+04 0.701E+03   0.492E+03 0.104E+04 -.695E+03   0.450E+01 0.600E+01 -.638E+01   -.606E-05 -.463E-05 0.991E-05
   -.832E+03 0.854E+01 -.409E+03   0.830E+03 -.888E+01 0.405E+03   0.760E+00 0.880E-01 0.348E+01   0.548E-04 -.339E-05 0.200E-04
   -.561E+03 -.732E+03 -.864E+03   0.559E+03 0.728E+03 0.861E+03   0.318E+01 0.412E+01 0.245E+01   0.258E-05 -.192E-04 0.113E-04
   -.107E+03 0.281E+01 -.121E+03   0.836E+02 -.482E+01 0.119E+03   0.200E+02 0.175E+01 0.106E+01   0.131E-04 -.563E-06 0.376E-05
   -.436E+03 -.311E+02 -.120E+03   0.501E+03 0.366E+02 0.126E+03   -.616E+02 -.527E+01 -.533E+01   -.103E-04 -.269E-05 0.221E-07
 -----------------------------------------------------------------------------------------------
   0.499E+02 0.464E+01 0.839E+01   0.284E-12 0.711E-13 0.853E-13   -.499E+02 -.464E+01 -.839E+01   0.837E-04 -.311E-04 0.614E-04
 
 
 POSITION                                       TOTAL-FORCE (eV/Angst)
 -----------------------------------------------------------------------------------
      4.34380      6.29172      8.30098         0.180960      0.116296      0.026291
      5.66996      8.19999      7.37788        -0.401120      0.132798      0.146384
      5.90033      4.43295      8.41513        -0.012374     -0.398639     -0.028688
      8.03714      7.56464      7.20478        -0.048889      0.066567      0.220321
      8.24685      5.15137      7.97705        -0.006540      0.413764     -0.094167
      6.67761      6.51781      9.16864         0.335112      0.198057     -0.098151
      6.28114      6.02053      6.64537        -0.005142     -0.293416      0.317357
      3.35425      8.49861      8.26243         0.077925      0.261865     -0.169014
      4.98810      8.19394      9.90348         0.194143     -0.112815     -0.317523
      5.31730     10.27020      8.51185        -0.224438     -0.140944      0.124860
      7.31601      9.96448      7.14439         0.084286     -0.048562      0.123119
      9.40818      7.30588      9.11568        -0.693667     -0.250102     -0.111032
      7.21422      8.85036      9.27773         0.406780      0.025178     -0.236526
     11.11790      7.43532      9.70996        -3.268114     -0.262646     -0.230303
     12.23580      7.53136      9.80785         3.381077      0.292599      0.327072
 -----------------------------------------------------------------------------------
    total drift:                                0.003792     -0.002618      0.000564


--------------------------------------------------------------------------------------------------------



  FREE ENERGIE OF THE ION-ELECTRON SYSTEM (eV)
  ---------------------------------------------------
  free  energy   TOTEN  =       -48.84922375 eV

  energy  without entropy=      -48.85805494  energy(sigma->0) =      -48.85216748
 


--------------------------------------------------------------------------------------------------------


    POTLOK:  cpu time    1.1897: real time    1.1900


--------------------------------------------------------------------------------------------------------


     LOOP+:  cpu time  344.3335: real time  344.5311
    4ORBIT:  cpu time    0.0000: real time    0.0000

 total amount of memory used by VASP MPI-rank0   158680. kBytes
=======================================================================

   base      :      30000. kBytes
   nonl-proj :      12601. kBytes
   fftplans  :      27994. kBytes
   grid      :      74150. kBytes
   one-center:         93. kBytes
   wavefun   :      13842. kBytes
 
  
  
 General timing and accounting informations for this job:
 ========================================================
  
                  Total CPU time used (sec):      348.400
                            User time (sec):      335.940
                          System time (sec):       12.460
                         Elapsed time (sec):      348.638
  
                   Maximum memory used (kb):      283156.
                   Average memory used (kb):           0.
  
                          Minor page faults:       291922
                          Major page faults:            0
                 Voluntary context switches:          827
