 vasp.5.4.4.18Apr17-6-g9f103f2a35 (build May 08 2019 13:49:07) complex          
  
 executed on             LinuxIFC date 2019.11.13  14:10:32
 running on   24 total cores
 distrk:  each k-point on   24 cores,    1 groups
 distr:  one band on NCORES_PER_BAND=   6 cores,    4 groups


--------------------------------------------------------------------------------------------------------


 INCAR:
 POTCAR:    PAW_PBE Cu 22Jun2005                  
 POTCAR:    PAW_PBE C 08Apr2002                   
 POTCAR:    PAW_PBE O 08Apr2002                   
 POTCAR:    PAW_PBE Cu 22Jun2005                  
   VRHFIN =Cu: d10 p1                                                           
   LEXCH  = PE                                                                  
   EATOM  =  1390.9808 eV,  102.2342 Ry                                         
                                                                                
   TITEL  = PAW_PBE Cu 22Jun2005                                                
   LULTRA =        F    use ultrasoft PP ?                                      
   IUNSCR =        1    unscreen: 0-lin 1-nonlin 2-no                           
   RPACOR =    2.000    partial core radius                                     
   POMASS =   63.546; ZVAL   =   11.000    mass and valenz                      
   RCORE  =    2.300    outmost cutoff radius                                   
   RWIGS  =    2.200; RWIGS  =    1.164    wigner-seitz radius (au A)           
   ENMAX  =  295.446; ENMIN  =  221.585 eV                                      
   ICORE  =        3    local potential                                         
   LCOR   =        T    correct aug charges                                     
   LPAW   =        T    paw PP                                                  
   EAUG   =  586.980                                                            
   DEXC   =    0.000                                                            
   RMAX   =    2.344    core radius for proj-oper                               
   RAUG   =    1.300    factor for augmentation sphere                          
   RDEP   =    2.302    radius for radial grids                                 
   RDEPT  =    1.771    core radius for aug-charge                              
                                                                                
   Atomic configuration                                                         
    9 entries                                                                   
     n  l   j            E        occ.                                          
     1  0  0.50     -8850.2468   2.0000                                         
     2  0  0.50     -1062.3498   2.0000                                         
     2  1  1.50      -916.8226   6.0000                                         
     3  0  0.50      -114.6929   2.0000                                         
     3  1  1.50       -72.1325   6.0000                                         
     3  2  2.50        -5.0394  10.0000                                         
     4  0  0.50        -4.6097   1.0000                                         
     4  1  0.50        -4.0817   0.0000                                         
     4  3  2.50        -1.3606   0.0000                                         
   Description                                                                  
     l       E           TYP  RCUT    TYP  RCUT                                 
     2     -5.0393973     23  2.200                                             
     2     10.8846608     23  2.200                                             
     0     -4.6097109     23  2.200                                             
     0      8.2520465     23  2.200                                             
     1     -2.7211652     23  2.200                                             
     1     21.7055443     23  2.200                                             
     3      2.7211652     23  2.300                                             
  local pseudopotential read in
  partial core-charges read in
  partial kinetic energy density read in
  atomic valenz-charges read in
  non local Contribution for L=           2  read in
    real space projection operators read in
  non local Contribution for L=           2  read in
    real space projection operators read in
  non local Contribution for L=           0  read in
    real space projection operators read in
  non local Contribution for L=           0  read in
    real space projection operators read in
  non local Contribution for L=           1  read in
    real space projection operators read in
  non local Contribution for L=           1  read in
    real space projection operators read in
    PAW grid and wavefunctions read in
 
   number of l-projection  operators is LMAX  =           6
   number of lm-projection operators is LMMAX =          18
 
 POTCAR:    PAW_PBE C 08Apr2002                   
   VRHFIN =C: s2p2                                                              
   LEXCH  = PE                                                                  
   EATOM  =   147.1560 eV,   10.8157 Ry                                         
                                                                                
   TITEL  = PAW_PBE C 08Apr2002                                                 
   LULTRA =        F    use ultrasoft PP ?                                      
   IUNSCR =        1    unscreen: 0-lin 1-nonlin 2-no                           
   RPACOR =    1.200    partial core radius                                     
   POMASS =   12.011; ZVAL   =    4.000    mass and valenz                      
   RCORE  =    1.500    outmost cutoff radius                                   
   RWIGS  =    1.630; RWIGS  =    0.863    wigner-seitz radius (au A)           
   ENMAX  =  400.000; ENMIN  =  300.000 eV                                      
   ICORE  =        2    local potential                                         
   LCOR   =        T    correct aug charges                                     
   LPAW   =        T    paw PP                                                  
   EAUG   =  644.873                                                            
   DEXC   =    0.000                                                            
   RMAX   =    1.529    core radius for proj-oper                               
   RAUG   =    1.300    factor for augmentation sphere                          
   RDEP   =    1.501    radius for radial grids                                 
   RDEPT  =    1.300    core radius for aug-charge                              
                                                                                
   Atomic configuration                                                         
    4 entries                                                                   
     n  l   j            E        occ.                                          
     1  0  0.50      -273.3789   2.0000                                         
     2  0  0.50       -13.7508   2.0000                                         
     2  1  0.50        -5.2854   2.0000                                         
     3  2  1.50        -5.4423   0.0000                                         
   Description                                                                  
     l       E           TYP  RCUT    TYP  RCUT                                 
     0    -13.7508458     23  1.200                                             
     0     -8.2022199     23  1.200                                             
     1     -5.2854383     23  1.500                                             
     1     34.0145650     23  1.500                                             
     2     -5.4423304      7  1.500                                             
  local pseudopotential read in
  partial core-charges read in
  partial kinetic energy density read in
  atomic valenz-charges read in
  non local Contribution for L=           0  read in
    real space projection operators read in
  non local Contribution for L=           0  read in
    real space projection operators read in
  non local Contribution for L=           1  read in
    real space projection operators read in
  non local Contribution for L=           1  read in
    real space projection operators read in
    PAW grid and wavefunctions read in
 
   number of l-projection  operators is LMAX  =           4
   number of lm-projection operators is LMMAX =           8
 
 POTCAR:    PAW_PBE O 08Apr2002                   
   VRHFIN =O: s2p4                                                              
   LEXCH  = PE                                                                  
   EATOM  =   432.3788 eV,   31.7789 Ry                                         
                                                                                
   TITEL  = PAW_PBE O 08Apr2002                                                 
   LULTRA =        F    use ultrasoft PP ?                                      
   IUNSCR =        1    unscreen: 0-lin 1-nonlin 2-no                           
   RPACOR =    1.200    partial core radius                                     
   POMASS =   16.000; ZVAL   =    6.000    mass and valenz                      
   RCORE  =    1.520    outmost cutoff radius                                   
   RWIGS  =    1.550; RWIGS  =    0.820    wigner-seitz radius (au A)           
   ENMAX  =  400.000; ENMIN  =  300.000 eV                                      
   ICORE  =        2    local potential                                         
   LCOR   =        T    correct aug charges                                     
   LPAW   =        T    paw PP                                                  
   EAUG   =  605.392                                                            
   DEXC   =    0.000                                                            
   RMAX   =    1.553    core radius for proj-oper                               
   RAUG   =    1.300    factor for augmentation sphere                          
   RDEP   =    1.550    radius for radial grids                                 
   RDEPT  =    1.329    core radius for aug-charge                              
                                                                                
   Atomic configuration                                                         
    4 entries                                                                   
     n  l   j            E        occ.                                          
     1  0  0.50      -514.6923   2.0000                                         
     2  0  0.50       -23.9615   2.0000                                         
     2  1  0.50        -9.0305   4.0000                                         
     3  2  1.50        -9.5241   0.0000                                         
   Description                                                                  
     l       E           TYP  RCUT    TYP  RCUT                                 
     0    -23.9615318     23  1.200                                             
     0     -9.5240782     23  1.200                                             
     1     -9.0304911     23  1.520                                             
     1      8.1634956     23  1.520                                             
     2     -9.5240782      7  1.500                                             
  local pseudopotential read in
  partial core-charges read in
  partial kinetic energy density read in
  kinetic energy density of atom read in
  atomic valenz-charges read in
  non local Contribution for L=           0  read in
    real space projection operators read in
  non local Contribution for L=           0  read in
    real space projection operators read in
  non local Contribution for L=           1  read in
    real space projection operators read in
  non local Contribution for L=           1  read in
    real space projection operators read in
    PAW grid and wavefunctions read in
 
   number of l-projection  operators is LMAX  =           4
   number of lm-projection operators is LMMAX =           8
 
  PAW_PBE Cu 22Jun2005                  :
 energy of atom  1       EATOM=-1390.9808
 kinetic energy error for atom=    0.0033 (will be added to EATOM!!)
  PAW_PBE C 08Apr2002                   :
 energy of atom  2       EATOM= -147.1560
 kinetic energy error for atom=    0.0057 (will be added to EATOM!!)
  PAW_PBE O 08Apr2002                   :
 energy of atom  3       EATOM= -432.3788
 kinetic energy error for atom=    0.0168 (will be added to EATOM!!)
 
 
 POSCAR: Cu13 C1 O1                              
  positions in cartesian coordinates
  No initial velocities read in
 exchange correlation table for  LEXCH =        8
   RHO(1)=    0.500       N(1)  =     2000
   RHO(2)=  100.500       N(2)  =     4000
 


--------------------------------------------------------------------------------------------------------


 ion  position               nearest neighbor table
   1  0.291  0.420  0.553-   8 2.41   7 2.49   2 2.50   3 2.50   9 2.51   6 2.56
   2  0.377  0.547  0.488-   7 2.39   4 2.42  10 2.43   8 2.43  11 2.44   1 2.50   9 2.59  13 2.61
                             6 2.74
   3  0.398  0.293  0.567-   7 2.39   6 2.40   5 2.46   1 2.50
   4  0.533  0.505  0.482-  12 2.35   7 2.39   2 2.42  13 2.52  11 2.53   5 2.53   6 2.57
   5  0.549  0.345  0.532-   6 2.40   3 2.46   7 2.46   4 2.53  12 2.60
   6  0.448  0.437  0.615-  13 2.36   5 2.40   3 2.40   9 2.47   1 2.56   4 2.57   7 2.60  12 2.66
                             2 2.74
   7  0.419  0.399  0.449-   2 2.39   4 2.39   3 2.39   5 2.46   1 2.49   6 2.60
   8  0.227  0.567  0.546-   9 2.29   1 2.41   2 2.43  10 2.64
   9  0.332  0.546  0.654-   8 2.29  13 2.44   6 2.47  10 2.50   1 2.51   2 2.59
  10  0.354  0.687  0.567-  11 2.42   2 2.43   9 2.50  13 2.55   8 2.64
  11  0.487  0.667  0.477-  13 2.42  10 2.42   2 2.44   4 2.53
  12  0.620  0.482  0.611-  14 1.84   4 2.35   5 2.60  13 2.61   6 2.66
  13  0.484  0.591  0.618-   6 2.36  11 2.42   9 2.44   4 2.52  10 2.55  12 2.61   2 2.61
  14  0.736  0.493  0.646-  15 1.15  12 1.84
  15  0.813  0.489  0.638-  14 1.15
 

IMPORTANT INFORMATION: All symmetrisations will be switched off!
NOSYMM: (Re-)initialisation of all symmetry stuff for point group C_1.

 
 

Automatic generation of k-mesh.
 generate k-points for:    1    1    1
Space group operators:
 irot       det(A)        alpha          n_x          n_y          n_z        tau_x        tau_y        tau_z
    1     1.000000     0.000000     1.000000     0.000000     0.000000     0.000000     0.000000     0.000000
 
 Subroutine IBZKPT returns following result:
 ===========================================
 
 Found      1 irreducible k-points:
 
 Following reciprocal coordinates:
            Coordinates               Weight
  0.000000  0.000000  0.000000      1.000000
 
 Following cartesian coordinates:
            Coordinates               Weight
  0.000000  0.000000  0.000000      1.000000
 


--------------------------------------------------------------------------------------------------------




 Dimension of arrays:
   k-points           NKPTS =      1   k-points in BZ     NKDIM =      1   number of bands    NBANDS=     92
   number of dos      NEDOS =    301   number of ions     NIONS =     15
   non local maximal  LDIM  =      6   non local SUM 2l+1 LMDIM =     18
   total plane-waves  NPLWV = ******
   max r-space proj   IRMAX =      1   max aug-charges    IRDMAX=  15028
   dimension x,y,z NGX =   120 NGY =  120 NGZ =  120
   dimension x,y,z NGXF=   240 NGYF=  240 NGZF=  240
   support grid    NGXF=   240 NGYF=  240 NGZF=  240
   ions per type =              13   1   1
   NGX,Y,Z   is equivalent  to a cutoff of  13.30, 13.30, 13.30 a.u.
   NGXF,Y,Z  is equivalent  to a cutoff of  26.60, 26.60, 26.60 a.u.

 SYSTEM =  CuCO                                    
 POSCAR =  Cu13 C1 O1                              

 Startparameter for this run:
   NWRITE =      2    write-flag & timer
   PREC   = accura    normal or accurate (medium, high low for compatibility)
   ISTART =      0    job   : 0-new  1-cont  2-samecut
   ICHARG =      2    charge: 1-file 2-atom 10-const
   ISPIN  =      2    spin polarized calculation?
   LNONCOLLINEAR =      F non collinear calculations
   LSORBIT =      F    spin-orbit coupling
   INIWAV =      1    electr: 0-lowe 1-rand  2-diag
   LASPH  =      F    aspherical Exc in radial PAW
   METAGGA=      F    non-selfconsistent MetaGGA calc.

 Electronic Relaxation 1
   ENCUT  =  600.0 eV  44.10 Ry    6.64 a.u.  29.96 29.96 29.96*2*pi/ulx,y,z
   ENINI  =  600.0     initial cutoff
   ENAUG  =  644.9 eV  augmentation charge cutoff
   NELM   =    300;   NELMIN=  3; NELMDL= -5     # of ELM steps 
   EDIFF  = 0.1E-06   stopping-criterion for ELM
   LREAL  =      F    real-space projection
   NLSPLINE    = F    spline interpolate recip. space projectors
   LCOMPAT=      F    compatible to vasp.4.4
   GGA_COMPAT  = T    GGA compatible to vasp.4.4-vasp.4.6
   LMAXPAW     = -100 max onsite density
   LMAXMIX     =    2 max onsite mixed and CHGCAR
   VOSKOWN=      0    Vosko Wilk Nusair interpolation
   ROPT   =    0.00000   0.00000   0.00000
 Ionic relaxation
   EDIFFG = -.1E-02   stopping-criterion for IOM
   NSW    =      0    number of steps for IOM
   NBLOCK =      1;   KBLOCK =      1    inner block; outer block 
   IBRION =     -1    ionic relax: 0-MD 1-quasi-New 2-CG
   NFREE  =      0    steps in history (QN), initial steepest desc. (CG)
   ISIF   =      2    stress and relaxation
   IWAVPR =     10    prediction:  0-non 1-charg 2-wave 3-comb
   ISYM   =      0    0-nonsym 1-usesym 2-fastsym
   LCORR  =      T    Harris-Foulkes like correction to forces

   POTIM  = 0.5000    time-step for ionic-motion
   TEIN   =    0.0    initial temperature
   TEBEG  =    0.0;   TEEND  =   0.0 temperature during run
   SMASS  =  -3.00    Nose mass-parameter (am)
   estimated Nose-frequenzy (Omega)   =  0.10E-29 period in steps =****** mass=  -0.514E-26a.u.
   SCALEE = 1.0000    scale energy and forces
   NPACO  =    256;   APACO  = 16.0  distance and # of slots for P.C.
   PSTRESS=    0.0 pullay stress

  Mass of Ions in am
   POMASS =  63.55 12.01 16.00
  Ionic Valenz
   ZVAL   =  11.00  4.00  6.00
  Atomic Wigner-Seitz radii
   RWIGS  =  -1.00 -1.00 -1.00
  virtual crystal weights 
   VCA    =   1.00  1.00  1.00
   NELECT =     153.0000    total number of electrons
   NUPDOWN=       1.0000    fix difference up-down

 DOS related values:
   EMIN   =  10.00;   EMAX   =-10.00  energy-range for DOS
   EFERMI =   0.00
   ISMEAR =     1;   SIGMA  =   0.10  broadening in eV -4-tet -1-fermi 0-gaus

 Electronic relaxation 2 (details)
   IALGO  =     68    algorithm
   LDIAG  =      T    sub-space diagonalisation (order eigenvalues)
   LSUBROT=      F    optimize rotation matrix (better conditioning)
   TURBO    =      0    0=normal 1=particle mesh
   IRESTART =      0    0=no restart 2=restart with 2 vectors
   NREBOOT  =      0    no. of reboots
   NMIN     =      0    reboot dimension
   EREF     =   0.00    reference energy to select bands
   IMIX   =      4    mixing-type and parameters
     AMIX     =   0.40;   BMIX     =  1.00
     AMIX_MAG =   1.60;   BMIX_MAG =  1.00
     AMIN     =   0.10
     WC   =   100.;   INIMIX=   1;  MIXPRE=   1;  MAXMIX= -45

 Intra band minimization:
   WEIMIN = 0.0000     energy-eigenvalue tresh-hold
   EBREAK =  0.27E-09  absolut break condition
   DEPER  =   0.30     relativ break condition  

   TIME   =   0.40     timestep for ELM

  volume/ion in A,a.u.               =     225.00      1518.37
  Fermi-wavevector in a.u.,A,eV,Ry     =   0.583733  1.103095  4.636102  0.340744
  Thomas-Fermi vector in A             =   1.629149
 
 Write flags
   LWAVE        =      F    write WAVECAR
   LDOWNSAMPLE  =      F    k-point downsampling of WAVECAR
   LCHARG       =      F    write CHGCAR
   LVTOT        =      F    write LOCPOT, total local potential
   LVHAR        =      F    write LOCPOT, Hartree potential only
   LELF         =      F    write electronic localiz. function (ELF)
   LORBIT       =      0    0 simple, 1 ext, 2 COOP (PROOUT), +10 PAW based schemes


 Dipole corrections
   LMONO  =      F    monopole corrections only (constant potential shift)
   LDIPOL =      F    correct potential (dipole corrections)
   IDIPOL =      0    1-x, 2-y, 3-z, 4-all directions 
   EPSILON=  1.0000000 bulk dielectric constant

 Exchange correlation treatment:
   GGA     =    PE    GGA type
   LEXCH   =     8    internal setting for exchange type
   VOSKOWN=      0    Vosko Wilk Nusair interpolation
   LHFCALC =     F    Hartree Fock is set to
   LHFONE  =     F    Hartree Fock one center treatment
   AEXX    =    0.0000 exact exchange contribution

 Linear response parameters
   LEPSILON=     F    determine dielectric tensor
   LRPA    =     F    only Hartree local field effects (RPA)
   LNABLA  =     F    use nabla operator in PAW spheres
   LVEL    =     F    velocity operator in full k-point grid
   LINTERFAST=   F  fast interpolation
   KINTER  =     0    interpolate to denser k-point grid
   CSHIFT  =0.1000    complex shift for real part using Kramers Kronig
   OMEGAMAX=  -1.0    maximum frequency
   DEG_THRESHOLD= 0.2000000E-02 threshold for treating states as degnerate
   RTIME   =   -0.100 relaxation time in fs
  (WPLASMAI=    0.000 imaginary part of plasma frequency in eV, 0.658/RTIME)
   DFIELD  = 0.0000000 0.0000000 0.0000000 field for delta impulse in time
 
 Orbital magnetization related:
   ORBITALMAG=     F  switch on orbital magnetization
   LCHIMAG   =     F  perturbation theory with respect to B field
   DQ        =  0.001000  dq finite difference perturbation B field
   LLRAUG    =     F  two centre corrections for induced B field



--------------------------------------------------------------------------------------------------------


 Static calculation
 charge density and potential will be updated during run
 spin polarized calculation
 RMM-DIIS sequential band-by-band and
  variant of blocked Davidson during initial phase
 perform sub-space diagonalisation
    before iterative eigenvector-optimisation
 modified Broyden-mixing scheme, WC =      100.0
 initial mixing is a Kerker type mixing with AMIX =  0.4000 and BMIX =      1.0000
 Hartree-type preconditioning will be used
 using additional bands           15
 reciprocal scheme for non local part
 use partial core corrections
 calculate Harris-corrections to forces 
   (improved forces if not selfconsistent)
 use gradient corrections 
 use of overlap-Matrix (Vanderbilt PP)
 Methfessel and Paxton  Order N= 1 SIGMA  =   0.10


--------------------------------------------------------------------------------------------------------


  energy-cutoff  :      600.00
  volume of cell :     3375.00
      direct lattice vectors                 reciprocal lattice vectors
    15.000000000  0.000000000  0.000000000     0.066666667  0.000000000  0.000000000
     0.000000000 15.000000000  0.000000000     0.000000000  0.066666667  0.000000000
     0.000000000  0.000000000 15.000000000     0.000000000  0.000000000  0.066666667

  length of vectors
    15.000000000 15.000000000 15.000000000     0.066666667  0.066666667  0.066666667


 
 k-points in units of 2pi/SCALE and weight: read from INCAR                         
   0.00000000  0.00000000  0.00000000       1.000
 
 k-points in reciprocal lattice and weights: read from INCAR                         
   0.00000000  0.00000000  0.00000000       1.000
 
 position of ions in fractional coordinates (direct lattice) 
   0.29071000  0.42034467  0.55266200
   0.37709667  0.54736667  0.48811867
   0.39797600  0.29317600  0.56654800
   0.53275600  0.50533000  0.48212467
   0.54935733  0.34506133  0.53197467
   0.44844733  0.43723000  0.61522533
   0.41874733  0.39895933  0.44896467
   0.22674667  0.56747533  0.54553267
   0.33166400  0.54644467  0.65435933
   0.35414867  0.68667333  0.56695667
   0.48668467  0.66724667  0.47660867
   0.61995800  0.48211600  0.61051400
   0.48433400  0.59068400  0.61827000
   0.73648667  0.49275933  0.64639933
   0.81276000  0.48861333  0.63801067
 
 position of ions in cartesian coordinates  (Angst):
   4.36065000  6.30517000  8.28993000
   5.65645000  8.21050000  7.32178000
   5.96964000  4.39764000  8.49822000
   7.99134000  7.57995000  7.23187000
   8.24036000  5.17592000  7.97962000
   6.72671000  6.55845000  9.22838000
   6.28121000  5.98439000  6.73447000
   3.40120000  8.51213000  8.18299000
   4.97496000  8.19667000  9.81539000
   5.31223000 10.30010000  8.50435000
   7.30027000 10.00870000  7.14913000
   9.29937000  7.23174000  9.15771000
   7.26501000  8.86026000  9.27405000
  11.04730000  7.39139000  9.69599000
  12.19140000  7.32920000  9.57016000
 


--------------------------------------------------------------------------------------------------------


 k-point  1 :   0.0000 0.0000 0.0000  plane waves:  112451

 maximum and minimum number of plane-waves per node :     18753    18726

 maximum number of plane-waves:    112451
 maximum index in each direction: 
   IXMAX=   29   IYMAX=   29   IZMAX=   29
   IXMIN=  -29   IYMIN=  -29   IZMIN=  -29


 parallel 3D FFT for wavefunctions:
    minimum data exchange during FFTs selected (reduces bandwidth)
 parallel 3D FFT for charge:
    minimum data exchange during FFTs selected (reduces bandwidth)


 total amount of memory used by VASP MPI-rank0   158680. kBytes
=======================================================================

   base      :      30000. kBytes
   nonl-proj :      12601. kBytes
   fftplans  :      27994. kBytes
   grid      :      74150. kBytes
   one-center:         93. kBytes
   wavefun   :      13842. kBytes
 
     INWAV:  cpu time    0.0000: real time    0.0002
 Broyden mixing: mesh for mixing (old mesh)
   NGX = 59   NGY = 59   NGZ = 59
  (NGX  =240   NGY  =240   NGZ  =240)
  gives a total of 205379 points

 initial charge density was supplied:
 charge density of overlapping atoms calculated
 number of electron     153.0000000 magnetization       1.0000000
 keeping initial charge density in first step


--------------------------------------------------------------------------------------------------------


 Maximum index for augmentation-charges          713 (set IRDMAX)


--------------------------------------------------------------------------------------------------------


 First call to EWALD:  gamma=   0.118
 Maximum number of real-space cells 3x 3x 3
 Maximum number of reciprocal cells 3x 3x 3

    FEWALD:  cpu time    0.0017: real time    0.0018


--------------------------------------- Iteration      1(   1)  ---------------------------------------


    POTLOK:  cpu time    1.1903: real time    1.1932
    SETDIJ:  cpu time    0.0192: real time    0.0192
     EDDAV:  cpu time    7.4912: real time    7.5013
       DOS:  cpu time    0.0005: real time    0.0005
    --------------------------------------------
      LOOP:  cpu time    8.7012: real time    8.7142

 eigenvalue-minimisations  :   376
 total energy-change (2. order) : 0.1119472E+04  (-0.4463471E+04)
 number of electron     153.0000000 magnetization       1.0000000
 augmentation part      153.0000000 magnetization       1.0000000

 Free energy of the ion-electron system (eV)
  ---------------------------------------------------
  alpha Z        PSCENC =        41.16232785
  Ewald energy   TEWEN  =     16479.53814308
  -Hartree energ DENC   =    -33500.49311531
  -exchange      EXHF   =         0.00000000
  -V(xc)+E(xc)   XCENC  =       623.55908677
  PAW double counting   =     16421.75059358   -17800.06104309
  entropy T*S    EENTRO =         0.00958728
  eigenvalues    EBANDS =       191.78752711
  atomic energy  EATOM  =     18662.21924712
  Solvation  Ediel_sol  =         0.00000000
  ---------------------------------------------------
  free energy    TOTEN  =      1119.47235438 eV

  energy without entropy =     1119.46276711  energy(sigma->0) =     1119.46915863


--------------------------------------------------------------------------------------------------------




--------------------------------------- Iteration      1(   2)  ---------------------------------------


     EDDAV:  cpu time    7.3401: real time    7.3490
       DOS:  cpu time    0.0003: real time    0.0003
    --------------------------------------------
      LOOP:  cpu time    7.3404: real time    7.3493

 eigenvalue-minimisations  :   368
 total energy-change (2. order) :-0.1031906E+04  (-0.9798956E+03)
 number of electron     153.0000000 magnetization       1.0000000
 augmentation part      153.0000000 magnetization       1.0000000

 Free energy of the ion-electron system (eV)
  ---------------------------------------------------
  alpha Z        PSCENC =        41.16232785
  Ewald energy   TEWEN  =     16479.53814308
  -Hartree energ DENC   =    -33500.49311531
  -exchange      EXHF   =         0.00000000
  -V(xc)+E(xc)   XCENC  =       623.55908677
  PAW double counting   =     16421.75059358   -17800.06104309
  entropy T*S    EENTRO =         0.00645560
  eigenvalues    EBANDS =      -840.11514149
  atomic energy  EATOM  =     18662.21924712
  Solvation  Ediel_sol  =         0.00000000
  ---------------------------------------------------
  free energy    TOTEN  =        87.56655410 eV

  energy without entropy =       87.56009850  energy(sigma->0) =       87.56440223


--------------------------------------------------------------------------------------------------------




--------------------------------------- Iteration      1(   3)  ---------------------------------------


     EDDAV:  cpu time   11.6743: real time   11.6887
       DOS:  cpu time    0.0003: real time    0.0003
    --------------------------------------------
      LOOP:  cpu time   11.6746: real time   11.6890

 eigenvalue-minimisations  :   664
 total energy-change (2. order) :-0.1211152E+03  (-0.1137518E+03)
 number of electron     153.0000000 magnetization       1.0000000
 augmentation part      153.0000000 magnetization       1.0000000

 Free energy of the ion-electron system (eV)
  ---------------------------------------------------
  alpha Z        PSCENC =        41.16232785
  Ewald energy   TEWEN  =     16479.53814308
  -Hartree energ DENC   =    -33500.49311531
  -exchange      EXHF   =         0.00000000
  -V(xc)+E(xc)   XCENC  =       623.55908677
  PAW double counting   =     16421.75059358   -17800.06104309
  entropy T*S    EENTRO =         0.01423613
  eigenvalues    EBANDS =      -961.23808467
  atomic energy  EATOM  =     18662.21924712
  Solvation  Ediel_sol  =         0.00000000
  ---------------------------------------------------
  free energy    TOTEN  =       -33.54860855 eV

  energy without entropy =      -33.56284468  energy(sigma->0) =      -33.55335393


--------------------------------------------------------------------------------------------------------




--------------------------------------- Iteration      1(   4)  ---------------------------------------


     EDDAV:  cpu time   10.0766: real time   10.0913
       DOS:  cpu time    0.0006: real time    0.0006
    --------------------------------------------
      LOOP:  cpu time   10.0772: real time   10.0918

 eigenvalue-minimisations  :   552
 total energy-change (2. order) :-0.2232409E+02  (-0.2200748E+02)
 number of electron     153.0000000 magnetization       1.0000000
 augmentation part      153.0000000 magnetization       1.0000000

 Free energy of the ion-electron system (eV)
  ---------------------------------------------------
  alpha Z        PSCENC =        41.16232785
  Ewald energy   TEWEN  =     16479.53814308
  -Hartree energ DENC   =    -33500.49311531
  -exchange      EXHF   =         0.00000000
  -V(xc)+E(xc)   XCENC  =       623.55908677
  PAW double counting   =     16421.75059358   -17800.06104309
  entropy T*S    EENTRO =         0.00896564
  eigenvalues    EBANDS =      -983.55690012
  atomic energy  EATOM  =     18662.21924712
  Solvation  Ediel_sol  =         0.00000000
  ---------------------------------------------------
  free energy    TOTEN  =       -55.87269448 eV

  energy without entropy =      -55.88166012  energy(sigma->0) =      -55.87568303


--------------------------------------------------------------------------------------------------------




--------------------------------------- Iteration      1(   5)  ---------------------------------------


     EDDAV:  cpu time   11.8227: real time   11.8371
       DOS:  cpu time    0.0005: real time    0.0005
    CHARGE:  cpu time    0.6827: real time    0.6835
    MIXING:  cpu time    0.0223: real time    0.0224
    --------------------------------------------
      LOOP:  cpu time   12.5282: real time   12.5436

 eigenvalue-minimisations  :   672
 total energy-change (2. order) :-0.1659283E+01  (-0.1503585E+01)
 number of electron     152.9999996 magnetization       1.0000000
 augmentation part       87.4401242 magnetization       0.3622151

 Broyden mixing:
  rms(total) = 0.23792E+01    rms(broyden)= 0.23791E+01
  rms(prec ) = 0.27320E+01
  weight for this iteration     100.00

 Free energy of the ion-electron system (eV)
  ---------------------------------------------------
  alpha Z        PSCENC =        41.16232785
  Ewald energy   TEWEN  =     16479.53814308
  -Hartree energ DENC   =    -33500.49311531
  -exchange      EXHF   =         0.00000000
  -V(xc)+E(xc)   XCENC  =       623.55908677
  PAW double counting   =     16421.75059358   -17800.06104309
  entropy T*S    EENTRO =         0.00900091
  eigenvalues    EBANDS =      -985.21621793
  atomic energy  EATOM  =     18662.21924712
  Solvation  Ediel_sol  =         0.00000000
  ---------------------------------------------------
  free energy    TOTEN  =       -57.53197703 eV

  energy without entropy =      -57.54097793  energy(sigma->0) =      -57.53497733


--------------------------------------------------------------------------------------------------------




--------------------------------------- Iteration      1(   6)  ---------------------------------------


    POTLOK:  cpu time    1.1728: real time    1.1744
    SETDIJ:  cpu time    0.0188: real time    0.0188
    EDDIAG:  cpu time    1.1133: real time    1.1149
  RMM-DIIS:  cpu time    7.2206: real time    7.2260
    ORTHCH:  cpu time    0.0625: real time    0.0625
       DOS:  cpu time    0.0006: real time    0.0006
    CHARGE:  cpu time    0.6559: real time    0.6559
    MIXING:  cpu time    0.0232: real time    0.0232
    --------------------------------------------
      LOOP:  cpu time   10.2676: real time   10.2762

 eigenvalue-minimisations  :   418
 total energy-change (2. order) : 0.1047102E+01  (-0.1211024E+02)
 number of electron     152.9999994 magnetization       1.0000000
 augmentation part       95.7326392 magnetization       0.0595348

 Broyden mixing:
  rms(total) = 0.15527E+01    rms(broyden)= 0.15526E+01
  rms(prec ) = 0.17924E+01
  weight for this iteration     100.00

 eigenvalues of (default mixing * dielectric matrix)
  average eigenvalue GAMMA=   0.6149
  0.6149

 Free energy of the ion-electron system (eV)
  ---------------------------------------------------
  alpha Z        PSCENC =        41.16232785
  Ewald energy   TEWEN  =     16479.53814308
  -Hartree energ DENC   =    -33247.06994807
  -exchange      EXHF   =         0.00000000
  -V(xc)+E(xc)   XCENC  =       611.36491093
  PAW double counting   =     16703.71577544   -18027.17545559
  entropy T*S    EENTRO =         0.00935020
  eigenvalues    EBANDS =     -1280.24922557
  atomic energy  EATOM  =     18662.21924712
  Solvation  Ediel_sol  =         0.00000000
  ---------------------------------------------------
  free energy    TOTEN  =       -56.48487461 eV

  energy without entropy =      -56.49422481  energy(sigma->0) =      -56.48799135


--------------------------------------------------------------------------------------------------------




--------------------------------------- Iteration      1(   7)  ---------------------------------------


    POTLOK:  cpu time    1.1722: real time    1.1756
    SETDIJ:  cpu time    0.0199: real time    0.0199
    EDDIAG:  cpu time    1.1132: real time    1.1137
  RMM-DIIS:  cpu time    6.5060: real time    6.5084
    ORTHCH:  cpu time    0.0626: real time    0.0626
       DOS:  cpu time    0.0006: real time    0.0006
    CHARGE:  cpu time    0.6589: real time    0.6592
    MIXING:  cpu time    0.0234: real time    0.0234
    --------------------------------------------
      LOOP:  cpu time    9.5569: real time    9.5634

 eigenvalue-minimisations  :   385
 total energy-change (2. order) : 0.7123488E+01  (-0.2499821E+01)
 number of electron     152.9999995 magnetization       1.0000000
 augmentation part       92.8627229 magnetization       0.0967373

 Broyden mixing:
  rms(total) = 0.38426E+00    rms(broyden)= 0.38424E+00
  rms(prec ) = 0.47890E+00
  weight for this iteration     100.00

 eigenvalues of (default mixing * dielectric matrix)
  average eigenvalue GAMMA=   0.9069
  1.1450  0.6689

 Free energy of the ion-electron system (eV)
  ---------------------------------------------------
  alpha Z        PSCENC =        41.16232785
  Ewald energy   TEWEN  =     16479.53814308
  -Hartree energ DENC   =    -33384.54982728
  -exchange      EXHF   =         0.00000000
  -V(xc)+E(xc)   XCENC  =       615.83737602
  PAW double counting   =     17049.23131603   -18423.05819259
  entropy T*S    EENTRO =         0.00935017
  eigenvalues    EBANDS =     -1089.75112734
  atomic energy  EATOM  =     18662.21924712
  Solvation  Ediel_sol  =         0.00000000
  ---------------------------------------------------
  free energy    TOTEN  =       -49.36138694 eV

  energy without entropy =      -49.37073711  energy(sigma->0) =      -49.36450366


--------------------------------------------------------------------------------------------------------




--------------------------------------- Iteration      1(   8)  ---------------------------------------


    POTLOK:  cpu time    1.1743: real time    1.1748
    SETDIJ:  cpu time    0.0183: real time    0.0183
    EDDIAG:  cpu time    1.1128: real time    1.1137
  RMM-DIIS:  cpu time    6.9601: real time    6.9627
    ORTHCH:  cpu time    0.0625: real time    0.0625
       DOS:  cpu time    0.0006: real time    0.0006
    CHARGE:  cpu time    0.6589: real time    0.6593
    MIXING:  cpu time    0.0243: real time    0.0243
    --------------------------------------------
      LOOP:  cpu time   10.0117: real time   10.0160

 eigenvalue-minimisations  :   424
 total energy-change (2. order) : 0.2573412E+00  (-0.3960950E+00)
 number of electron     152.9999995 magnetization       1.0000000
 augmentation part       92.1043653 magnetization       0.0977338

 Broyden mixing:
  rms(total) = 0.27841E+00    rms(broyden)= 0.27839E+00
  rms(prec ) = 0.31406E+00
  weight for this iteration     100.00

 eigenvalues of (default mixing * dielectric matrix)
  average eigenvalue GAMMA=   0.9449
  1.4035  0.7156  0.7156

 Free energy of the ion-electron system (eV)
  ---------------------------------------------------
  alpha Z        PSCENC =        41.16232785
  Ewald energy   TEWEN  =     16479.53814308
  -Hartree energ DENC   =    -33432.38373748
  -exchange      EXHF   =         0.00000000
  -V(xc)+E(xc)   XCENC  =       616.20680166
  PAW double counting   =     17396.94426810   -18789.77509857
  entropy T*S    EENTRO =         0.00906040
  eigenvalues    EBANDS =     -1023.02505793
  atomic energy  EATOM  =     18662.21924712
  Solvation  Ediel_sol  =         0.00000000
  ---------------------------------------------------
  free energy    TOTEN  =       -49.10404577 eV

  energy without entropy =      -49.11310617  energy(sigma->0) =      -49.10706590


--------------------------------------------------------------------------------------------------------




--------------------------------------- Iteration      1(   9)  ---------------------------------------


    POTLOK:  cpu time    1.1725: real time    1.1746
    SETDIJ:  cpu time    0.0191: real time    0.0191
    EDDIAG:  cpu time    1.1138: real time    1.1157
  RMM-DIIS:  cpu time    6.7366: real time    6.7705
    ORTHCH:  cpu time    0.0592: real time    0.0592
       DOS:  cpu time    0.0005: real time    0.0005
    CHARGE:  cpu time    0.6582: real time    0.6585
    MIXING:  cpu time    0.0252: real time    0.0252
    --------------------------------------------
      LOOP:  cpu time    9.7851: real time    9.8233

 eigenvalue-minimisations  :   418
 total energy-change (2. order) : 0.3545504E-01  (-0.9315834E-01)
 number of electron     152.9999995 magnetization       1.0000000
 augmentation part       92.2915079 magnetization       0.0835073

 Broyden mixing:
  rms(total) = 0.17913E+00    rms(broyden)= 0.17912E+00
  rms(prec ) = 0.21217E+00
  weight for this iteration     100.00

 eigenvalues of (default mixing * dielectric matrix)
  average eigenvalue GAMMA=   1.0314
  2.0622  0.7755  0.7755  0.5125

 Free energy of the ion-electron system (eV)
  ---------------------------------------------------
  alpha Z        PSCENC =        41.16232785
  Ewald energy   TEWEN  =     16479.53814308
  -Hartree energ DENC   =    -33430.60705858
  -exchange      EXHF   =         0.00000000
  -V(xc)+E(xc)   XCENC  =       615.68318144
  PAW double counting   =     17522.54581089   -18917.54726200
  entropy T*S    EENTRO =         0.00902314
  eigenvalues    EBANDS =     -1022.07200366
  atomic energy  EATOM  =     18662.21924712
  Solvation  Ediel_sol  =         0.00000000
  ---------------------------------------------------
  free energy    TOTEN  =       -49.06859073 eV

  energy without entropy =      -49.07761387  energy(sigma->0) =      -49.07159844


--------------------------------------------------------------------------------------------------------




--------------------------------------- Iteration      1(  10)  ---------------------------------------


    POTLOK:  cpu time    1.1739: real time    1.1744
    SETDIJ:  cpu time    0.0182: real time    0.0182
    EDDIAG:  cpu time    1.1133: real time    1.1140
  RMM-DIIS:  cpu time    7.0011: real time    7.0128
    ORTHCH:  cpu time    0.0631: real time    0.0633
       DOS:  cpu time    0.0005: real time    0.0005
    CHARGE:  cpu time    0.6659: real time    0.6660
    MIXING:  cpu time    0.0257: real time    0.0257
    --------------------------------------------
      LOOP:  cpu time   10.0616: real time   10.0749

 eigenvalue-minimisations  :   418
 total energy-change (2. order) : 0.5666588E-01  (-0.2287430E-01)
 number of electron     152.9999995 magnetization       1.0000000
 augmentation part       92.4418758 magnetization       0.0725480

 Broyden mixing:
  rms(total) = 0.53509E-01    rms(broyden)= 0.53504E-01
  rms(prec ) = 0.70053E-01
  weight for this iteration     100.00

 eigenvalues of (default mixing * dielectric matrix)
  average eigenvalue GAMMA=   1.0347
  2.0802  1.0445  0.7897  0.7897  0.4694

 Free energy of the ion-electron system (eV)
  ---------------------------------------------------
  alpha Z        PSCENC =        41.16232785
  Ewald energy   TEWEN  =     16479.53814308
  -Hartree energ DENC   =    -33429.49339425
  -exchange      EXHF   =         0.00000000
  -V(xc)+E(xc)   XCENC  =       615.33934802
  PAW double counting   =     17615.99968629   -19012.60921069
  entropy T*S    EENTRO =         0.00896675
  eigenvalues    EBANDS =     -1021.17703902
  atomic energy  EATOM  =     18662.21924712
  Solvation  Ediel_sol  =         0.00000000
  ---------------------------------------------------
  free energy    TOTEN  =       -49.01192485 eV

  energy without entropy =      -49.02089160  energy(sigma->0) =      -49.01491377


--------------------------------------------------------------------------------------------------------




--------------------------------------- Iteration      1(  11)  ---------------------------------------


    POTLOK:  cpu time    1.1728: real time    1.1756
    SETDIJ:  cpu time    0.0182: real time    0.0182
    EDDIAG:  cpu time    1.1109: real time    1.1114
  RMM-DIIS:  cpu time    7.1130: real time    7.1238
    ORTHCH:  cpu time    0.0598: real time    0.0598
       DOS:  cpu time    0.0005: real time    0.0005
    CHARGE:  cpu time    0.6625: real time    0.6628
    MIXING:  cpu time    0.0261: real time    0.0261
    --------------------------------------------
      LOOP:  cpu time   10.1640: real time   10.1783

 eigenvalue-minimisations  :   429
 total energy-change (2. order) : 0.8235749E-02  (-0.6409284E-02)
 number of electron     152.9999995 magnetization       1.0000000
 augmentation part       92.3831647 magnetization       0.0776366

 Broyden mixing:
  rms(total) = 0.39273E-01    rms(broyden)= 0.39271E-01
  rms(prec ) = 0.50884E-01
  weight for this iteration     100.00

 eigenvalues of (default mixing * dielectric matrix)
  average eigenvalue GAMMA=   1.0459
  2.1625  1.4427  0.7761  0.7761  0.6460  0.4719

 Free energy of the ion-electron system (eV)
  ---------------------------------------------------
  alpha Z        PSCENC =        41.16232785
  Ewald energy   TEWEN  =     16479.53814308
  -Hartree energ DENC   =    -33436.98874693
  -exchange      EXHF   =         0.00000000
  -V(xc)+E(xc)   XCENC  =       615.46446201
  PAW double counting   =     17664.76307300   -19063.48926984
  entropy T*S    EENTRO =         0.00895222
  eigenvalues    EBANDS =     -1011.68187760
  atomic energy  EATOM  =     18662.21924712
  Solvation  Ediel_sol  =         0.00000000
  ---------------------------------------------------
  free energy    TOTEN  =       -49.00368910 eV

  energy without entropy =      -49.01264131  energy(sigma->0) =      -49.00667317


--------------------------------------------------------------------------------------------------------




--------------------------------------- Iteration      1(  12)  ---------------------------------------


    POTLOK:  cpu time    1.1755: real time    1.1760
    SETDIJ:  cpu time    0.0181: real time    0.0181
    EDDIAG:  cpu time    1.1132: real time    1.1136
  RMM-DIIS:  cpu time    6.9608: real time    6.9672
    ORTHCH:  cpu time    0.0593: real time    0.0593
       DOS:  cpu time    0.0005: real time    0.0005
    CHARGE:  cpu time    0.6651: real time    0.6654
    MIXING:  cpu time    0.0269: real time    0.0269
    --------------------------------------------
      LOOP:  cpu time   10.0193: real time   10.0269

 eigenvalue-minimisations  :   420
 total energy-change (2. order) : 0.2554923E-02  (-0.1850185E-02)
 number of electron     152.9999995 magnetization       1.0000000
 augmentation part       92.3890415 magnetization       0.0771514

 Broyden mixing:
  rms(total) = 0.17528E-01    rms(broyden)= 0.17527E-01
  rms(prec ) = 0.29273E-01
  weight for this iteration     100.00

 eigenvalues of (default mixing * dielectric matrix)
  average eigenvalue GAMMA=   1.0706
  2.4024  1.6259  1.0005  0.7236  0.7236  0.5556  0.4627

 Free energy of the ion-electron system (eV)
  ---------------------------------------------------
  alpha Z        PSCENC =        41.16232785
  Ewald energy   TEWEN  =     16479.53814308
  -Hartree energ DENC   =    -33439.81854839
  -exchange      EXHF   =         0.00000000
  -V(xc)+E(xc)   XCENC  =       615.49305336
  PAW double counting   =     17675.43738529   -19074.49895462
  entropy T*S    EENTRO =         0.00893631
  eigenvalues    EBANDS =     -1008.54272418
  atomic energy  EATOM  =     18662.21924712
  Solvation  Ediel_sol  =         0.00000000
  ---------------------------------------------------
  free energy    TOTEN  =       -49.00113418 eV

  energy without entropy =      -49.01007048  energy(sigma->0) =      -49.00411295


--------------------------------------------------------------------------------------------------------




--------------------------------------- Iteration      1(  13)  ---------------------------------------


    POTLOK:  cpu time    1.1748: real time    1.1758
    SETDIJ:  cpu time    0.0181: real time    0.0181
    EDDIAG:  cpu time    1.1145: real time    1.1150
  RMM-DIIS:  cpu time    6.8834: real time    6.8934
    ORTHCH:  cpu time    0.0596: real time    0.0596
       DOS:  cpu time    0.0006: real time    0.0006
    CHARGE:  cpu time    0.6690: real time    0.6694
    MIXING:  cpu time    0.0281: real time    0.0281
    --------------------------------------------
      LOOP:  cpu time    9.9480: real time    9.9600

 eigenvalue-minimisations  :   426
 total energy-change (2. order) : 0.8868870E-03  (-0.5260813E-03)
 number of electron     152.9999995 magnetization       1.0000000
 augmentation part       92.4044808 magnetization       0.0772320

 Broyden mixing:
  rms(total) = 0.94649E-02    rms(broyden)= 0.94646E-02
  rms(prec ) = 0.19587E-01
  weight for this iteration     100.00

 eigenvalues of (default mixing * dielectric matrix)
  average eigenvalue GAMMA=   1.1066
  2.4304  1.8494  1.2635  0.8344  0.7494  0.7494  0.5289  0.4477

 Free energy of the ion-electron system (eV)
  ---------------------------------------------------
  alpha Z        PSCENC =        41.16232785
  Ewald energy   TEWEN  =     16479.53814308
  -Hartree energ DENC   =    -33443.33381906
  -exchange      EXHF   =         0.00000000
  -V(xc)+E(xc)   XCENC  =       615.49612630
  PAW double counting   =     17680.75157538   -19079.81484637
  entropy T*S    EENTRO =         0.00892903
  eigenvalues    EBANDS =     -1005.02793062
  atomic energy  EATOM  =     18662.21924712
  Solvation  Ediel_sol  =         0.00000000
  ---------------------------------------------------
  free energy    TOTEN  =       -49.00024729 eV

  energy without entropy =      -49.00917632  energy(sigma->0) =      -49.00322363


--------------------------------------------------------------------------------------------------------




--------------------------------------- Iteration      1(  14)  ---------------------------------------


    POTLOK:  cpu time    1.1762: real time    1.1792
    SETDIJ:  cpu time    0.0185: real time    0.0185
    EDDIAG:  cpu time    1.1153: real time    1.1162
  RMM-DIIS:  cpu time    7.2307: real time    7.2416
    ORTHCH:  cpu time    0.0596: real time    0.0597
       DOS:  cpu time    0.0004: real time    0.0004
    CHARGE:  cpu time    0.6658: real time    0.6661
    MIXING:  cpu time    0.0293: real time    0.0293
    --------------------------------------------
      LOOP:  cpu time   10.2957: real time   10.3109

 eigenvalue-minimisations  :   437
 total energy-change (2. order) :-0.1107413E-02  (-0.3144597E-03)
 number of electron     152.9999995 magnetization       1.0000000
 augmentation part       92.4084048 magnetization       0.0773167

 Broyden mixing:
  rms(total) = 0.93775E-02    rms(broyden)= 0.93773E-02
  rms(prec ) = 0.15249E-01
  weight for this iteration     100.00

 eigenvalues of (default mixing * dielectric matrix)
  average eigenvalue GAMMA=   1.1501
  2.4152  2.4152  1.1963  1.0843  0.7577  0.7577  0.7657  0.5068  0.4519

 Free energy of the ion-electron system (eV)
  ---------------------------------------------------
  alpha Z        PSCENC =        41.16232785
  Ewald energy   TEWEN  =     16479.53814308
  -Hartree energ DENC   =    -33448.77923563
  -exchange      EXHF   =         0.00000000
  -V(xc)+E(xc)   XCENC  =       615.53402234
  PAW double counting   =     17673.65523161   -19072.43371415
  entropy T*S    EENTRO =         0.00890829
  eigenvalues    EBANDS =      -999.90628521
  atomic energy  EATOM  =     18662.21924712
  Solvation  Ediel_sol  =         0.00000000
  ---------------------------------------------------
  free energy    TOTEN  =       -49.00135470 eV

  energy without entropy =      -49.01026299  energy(sigma->0) =      -49.00432413


--------------------------------------------------------------------------------------------------------




--------------------------------------- Iteration      1(  15)  ---------------------------------------


    POTLOK:  cpu time    1.1760: real time    1.1779
    SETDIJ:  cpu time    0.0178: real time    0.0179
    EDDIAG:  cpu time    1.1147: real time    1.1156
  RMM-DIIS:  cpu time    6.4734: real time    6.4782
    ORTHCH:  cpu time    0.0635: real time    0.0635
       DOS:  cpu time    0.0006: real time    0.0006
    CHARGE:  cpu time    0.6646: real time    0.6650
    MIXING:  cpu time    0.0298: real time    0.0298
    --------------------------------------------
      LOOP:  cpu time    9.5404: real time    9.5484

 eigenvalue-minimisations  :   399
 total energy-change (2. order) :-0.1191850E-02  (-0.1525512E-03)
 number of electron     152.9999995 magnetization       1.0000000
 augmentation part       92.4005923 magnetization       0.0779091

 Broyden mixing:
  rms(total) = 0.51387E-02    rms(broyden)= 0.51384E-02
  rms(prec ) = 0.93773E-02
  weight for this iteration     100.00

 eigenvalues of (default mixing * dielectric matrix)
  average eigenvalue GAMMA=   1.1755
  2.6779  2.6779  1.2834  1.2834  0.8294  0.7402  0.7402  0.5794  0.4528  0.4904

 Free energy of the ion-electron system (eV)
  ---------------------------------------------------
  alpha Z        PSCENC =        41.16232785
  Ewald energy   TEWEN  =     16479.53814308
  -Hartree energ DENC   =    -33452.47567493
  -exchange      EXHF   =         0.00000000
  -V(xc)+E(xc)   XCENC  =       615.57635018
  PAW double counting   =     17668.45531487   -19067.16073435
  entropy T*S    EENTRO =         0.00891232
  eigenvalues    EBANDS =      -996.32643270
  atomic energy  EATOM  =     18662.21924712
  Solvation  Ediel_sol  =         0.00000000
  ---------------------------------------------------
  free energy    TOTEN  =       -49.00254655 eV

  energy without entropy =      -49.01145887  energy(sigma->0) =      -49.00551733


--------------------------------------------------------------------------------------------------------




--------------------------------------- Iteration      1(  16)  ---------------------------------------


    POTLOK:  cpu time    1.1745: real time    1.1748
    SETDIJ:  cpu time    0.0175: real time    0.0175
    EDDIAG:  cpu time    1.1141: real time    1.1146
  RMM-DIIS:  cpu time    6.4986: real time    6.5013
    ORTHCH:  cpu time    0.0626: real time    0.0626
       DOS:  cpu time    0.0005: real time    0.0005
    CHARGE:  cpu time    0.6745: real time    0.6745
    MIXING:  cpu time    0.0307: real time    0.0307
    --------------------------------------------
      LOOP:  cpu time    9.5729: real time    9.5765

 eigenvalue-minimisations  :   396
 total energy-change (2. order) :-0.1332827E-02  (-0.7239828E-04)
 number of electron     152.9999995 magnetization       1.0000000
 augmentation part       92.3982820 magnetization       0.0782003

 Broyden mixing:
  rms(total) = 0.45227E-02    rms(broyden)= 0.45226E-02
  rms(prec ) = 0.71514E-02
  weight for this iteration     100.00

 eigenvalues of (default mixing * dielectric matrix)
  average eigenvalue GAMMA=   1.2105
  3.1076  2.6252  1.4450  1.4450  0.8459  0.8459  0.7580  0.7580  0.4501  0.5057
  0.5291

 Free energy of the ion-electron system (eV)
  ---------------------------------------------------
  alpha Z        PSCENC =        41.16232785
  Ewald energy   TEWEN  =     16479.53814308
  -Hartree energ DENC   =    -33454.82095440
  -exchange      EXHF   =         0.00000000
  -V(xc)+E(xc)   XCENC  =       615.59932572
  PAW double counting   =     17664.97124574   -19063.62355052
  entropy T*S    EENTRO =         0.00891093
  eigenvalues    EBANDS =      -994.05857489
  atomic energy  EATOM  =     18662.21924712
  Solvation  Ediel_sol  =         0.00000000
  ---------------------------------------------------
  free energy    TOTEN  =       -49.00387938 eV

  energy without entropy =      -49.01279031  energy(sigma->0) =      -49.00684969


--------------------------------------------------------------------------------------------------------




--------------------------------------- Iteration      1(  17)  ---------------------------------------


    POTLOK:  cpu time    1.1725: real time    1.1732
    SETDIJ:  cpu time    0.0184: real time    0.0184
    EDDIAG:  cpu time    1.1124: real time    1.1129
  RMM-DIIS:  cpu time    6.8231: real time    6.8260
    ORTHCH:  cpu time    0.0622: real time    0.0622
       DOS:  cpu time    0.0005: real time    0.0005
    CHARGE:  cpu time    0.6640: real time    0.6640
    MIXING:  cpu time    0.0317: real time    0.0317
    --------------------------------------------
      LOOP:  cpu time    9.8849: real time    9.8890

 eigenvalue-minimisations  :   390
 total energy-change (2. order) :-0.1810859E-02  (-0.5371071E-04)
 number of electron     152.9999995 magnetization       1.0000000
 augmentation part       92.4022671 magnetization       0.0780894

 Broyden mixing:
  rms(total) = 0.23414E-02    rms(broyden)= 0.23413E-02
  rms(prec ) = 0.39764E-02
  weight for this iteration     100.00

 eigenvalues of (default mixing * dielectric matrix)
  average eigenvalue GAMMA=   1.3450
  4.4613  2.5722  2.1423  1.3814  0.9606  0.9606  0.7620  0.7620  0.6734  0.4508
  0.5205  0.4925

 Free energy of the ion-electron system (eV)
  ---------------------------------------------------
  alpha Z        PSCENC =        41.16232785
  Ewald energy   TEWEN  =     16479.53814308
  -Hartree energ DENC   =    -33456.84606268
  -exchange      EXHF   =         0.00000000
  -V(xc)+E(xc)   XCENC  =       615.60494612
  PAW double counting   =     17662.69585387   -19061.28848534
  entropy T*S    EENTRO =         0.00891460
  eigenvalues    EBANDS =      -992.10057485
  atomic energy  EATOM  =     18662.21924712
  Solvation  Ediel_sol  =         0.00000000
  ---------------------------------------------------
  free energy    TOTEN  =       -49.00569024 eV

  energy without entropy =      -49.01460484  energy(sigma->0) =      -49.00866177


--------------------------------------------------------------------------------------------------------




--------------------------------------- Iteration      1(  18)  ---------------------------------------


    POTLOK:  cpu time    1.1758: real time    1.1788
    SETDIJ:  cpu time    0.0179: real time    0.0179
    EDDIAG:  cpu time    1.1131: real time    1.1134
  RMM-DIIS:  cpu time    6.9189: real time    6.9215
    ORTHCH:  cpu time    0.0626: real time    0.0626
       DOS:  cpu time    0.0005: real time    0.0005
    CHARGE:  cpu time    0.6675: real time    0.6678
    MIXING:  cpu time    0.0323: real time    0.0323
    --------------------------------------------
      LOOP:  cpu time    9.9885: real time    9.9948

 eigenvalue-minimisations  :   420
 total energy-change (2. order) :-0.8591417E-03  (-0.2185878E-04)
 number of electron     152.9999995 magnetization       1.0000000
 augmentation part       92.3998353 magnetization       0.0781968

 Broyden mixing:
  rms(total) = 0.13751E-02    rms(broyden)= 0.13749E-02
  rms(prec ) = 0.25448E-02
  weight for this iteration     100.00

 eigenvalues of (default mixing * dielectric matrix)
  average eigenvalue GAMMA=   1.3770
  5.1852  2.6515  2.2220  1.2566  1.2566  0.8760  0.8760  0.7460  0.7460  0.6315
  0.4511  0.5144  0.4878

 Free energy of the ion-electron system (eV)
  ---------------------------------------------------
  alpha Z        PSCENC =        41.16232785
  Ewald energy   TEWEN  =     16479.53814308
  -Hartree energ DENC   =    -33457.93803355
  -exchange      EXHF   =         0.00000000
  -V(xc)+E(xc)   XCENC  =       615.60914267
  PAW double counting   =     17662.65555321   -19061.27738326
  entropy T*S    EENTRO =         0.00891123
  eigenvalues    EBANDS =      -990.98445773
  atomic energy  EATOM  =     18662.21924712
  Solvation  Ediel_sol  =         0.00000000
  ---------------------------------------------------
  free energy    TOTEN  =       -49.00654938 eV

  energy without entropy =      -49.01546061  energy(sigma->0) =      -49.00951979


--------------------------------------------------------------------------------------------------------




--------------------------------------- Iteration      1(  19)  ---------------------------------------


    POTLOK:  cpu time    1.1745: real time    1.1751
    SETDIJ:  cpu time    0.0179: real time    0.0180
    EDDIAG:  cpu time    1.1129: real time    1.1133
  RMM-DIIS:  cpu time    7.3111: real time    7.3159
    ORTHCH:  cpu time    0.0620: real time    0.0620
       DOS:  cpu time    0.0004: real time    0.0004
    CHARGE:  cpu time    0.6708: real time    0.6712
    MIXING:  cpu time    0.0345: real time    0.0344
    --------------------------------------------
      LOOP:  cpu time   10.3840: real time   10.3902

 eigenvalue-minimisations  :   455
 total energy-change (2. order) :-0.7013414E-03  (-0.9972161E-05)
 number of electron     152.9999995 magnetization       1.0000000
 augmentation part       92.3988568 magnetization       0.0781665

 Broyden mixing:
  rms(total) = 0.11495E-02    rms(broyden)= 0.11494E-02
  rms(prec ) = 0.19810E-02
  weight for this iteration     100.00

 eigenvalues of (default mixing * dielectric matrix)
  average eigenvalue GAMMA=   1.4357
  5.8716  2.7062  2.2248  1.5716  1.5716  0.9773  0.9773  0.7461  0.7461  0.6737
  0.5833  0.4506  0.5113  0.4887

 Free energy of the ion-electron system (eV)
  ---------------------------------------------------
  alpha Z        PSCENC =        41.16232785
  Ewald energy   TEWEN  =     16479.53814308
  -Hartree energ DENC   =    -33458.40555786
  -exchange      EXHF   =         0.00000000
  -V(xc)+E(xc)   XCENC  =       615.60912298
  PAW double counting   =     17662.82106065   -19061.45787924
  entropy T*S    EENTRO =         0.00891024
  eigenvalues    EBANDS =      -990.50262554
  atomic energy  EATOM  =     18662.21924712
  Solvation  Ediel_sol  =         0.00000000
  ---------------------------------------------------
  free energy    TOTEN  =       -49.00725072 eV

  energy without entropy =      -49.01616096  energy(sigma->0) =      -49.01022080


--------------------------------------------------------------------------------------------------------




--------------------------------------- Iteration      1(  20)  ---------------------------------------


    POTLOK:  cpu time    1.1753: real time    1.1756
    SETDIJ:  cpu time    0.0183: real time    0.0183
    EDDIAG:  cpu time    1.1136: real time    1.1145
  RMM-DIIS:  cpu time    6.7934: real time    6.8004
    ORTHCH:  cpu time    0.0623: real time    0.0623
       DOS:  cpu time    0.0004: real time    0.0004
    CHARGE:  cpu time    0.6732: real time    0.6735
    MIXING:  cpu time    0.0355: real time    0.0355
    --------------------------------------------
      LOOP:  cpu time    9.8719: real time    9.8804

 eigenvalue-minimisations  :   402
 total energy-change (2. order) :-0.5880571E-03  (-0.4303319E-05)
 number of electron     152.9999995 magnetization       1.0000000
 augmentation part       92.3991446 magnetization       0.0781734

 Broyden mixing:
  rms(total) = 0.72530E-03    rms(broyden)= 0.72528E-03
  rms(prec ) = 0.12678E-02
  weight for this iteration     100.00

 eigenvalues of (default mixing * dielectric matrix)
  average eigenvalue GAMMA=   1.4688
  6.4431  2.8292  2.3442  2.0732  1.2826  1.1273  0.8923  0.8923  0.7538  0.7538
  0.6497  0.4506  0.4866  0.5264  0.5264

 Free energy of the ion-electron system (eV)
  ---------------------------------------------------
  alpha Z        PSCENC =        41.16232785
  Ewald energy   TEWEN  =     16479.53814308
  -Hartree energ DENC   =    -33458.54263686
  -exchange      EXHF   =         0.00000000
  -V(xc)+E(xc)   XCENC  =       615.60790963
  PAW double counting   =     17663.16333729   -19061.80818621
  entropy T*S    EENTRO =         0.00891070
  eigenvalues    EBANDS =      -990.35689139
  atomic energy  EATOM  =     18662.21924712
  Solvation  Ediel_sol  =         0.00000000
  ---------------------------------------------------
  free energy    TOTEN  =       -49.00783878 eV

  energy without entropy =      -49.01674948  energy(sigma->0) =      -49.01080901


--------------------------------------------------------------------------------------------------------




--------------------------------------- Iteration      1(  21)  ---------------------------------------


    POTLOK:  cpu time    1.1776: real time    1.1813
    SETDIJ:  cpu time    0.0190: real time    0.0190
    EDDIAG:  cpu time    1.1130: real time    1.1142
  RMM-DIIS:  cpu time    7.2623: real time    7.2675
    ORTHCH:  cpu time    0.0627: real time    0.0626
       DOS:  cpu time    0.0005: real time    0.0005
    CHARGE:  cpu time    0.6695: real time    0.6698
    MIXING:  cpu time    0.0373: real time    0.0373
    --------------------------------------------
      LOOP:  cpu time   10.3418: real time   10.3522

 eigenvalue-minimisations  :   409
 total energy-change (2. order) :-0.3818906E-03  (-0.3196750E-05)
 number of electron     152.9999995 magnetization       1.0000000
 augmentation part       92.4007500 magnetization       0.0781698

 Broyden mixing:
  rms(total) = 0.62551E-03    rms(broyden)= 0.62544E-03
  rms(prec ) = 0.94831E-03
  weight for this iteration     100.00

 eigenvalues of (default mixing * dielectric matrix)
  average eigenvalue GAMMA=   1.5062
  6.7070  3.2497  2.4448  2.1561  1.3648  1.3648  0.9783  0.9783  0.7623  0.7623
  0.6955  0.6554  0.4507  0.5266  0.5179  0.4853

 Free energy of the ion-electron system (eV)
  ---------------------------------------------------
  alpha Z        PSCENC =        41.16232785
  Ewald energy   TEWEN  =     16479.53814308
  -Hartree energ DENC   =    -33458.50558672
  -exchange      EXHF   =         0.00000000
  -V(xc)+E(xc)   XCENC  =       615.60536917
  PAW double counting   =     17663.31593790   -19061.95104226
  entropy T*S    EENTRO =         0.00891203
  eigenvalues    EBANDS =      -990.40152884
  atomic energy  EATOM  =     18662.21924712
  Solvation  Ediel_sol  =         0.00000000
  ---------------------------------------------------
  free energy    TOTEN  =       -49.00822067 eV

  energy without entropy =      -49.01713270  energy(sigma->0) =      -49.01119135


--------------------------------------------------------------------------------------------------------




--------------------------------------- Iteration      1(  22)  ---------------------------------------


    POTLOK:  cpu time    1.1759: real time    1.1763
    SETDIJ:  cpu time    0.0185: real time    0.0185
    EDDIAG:  cpu time    1.1124: real time    1.1138
  RMM-DIIS:  cpu time    6.7905: real time    6.7935
    ORTHCH:  cpu time    0.0631: real time    0.0631
       DOS:  cpu time    0.0006: real time    0.0006
    CHARGE:  cpu time    0.6687: real time    0.6691
    MIXING:  cpu time    0.0394: real time    0.0394
    --------------------------------------------
      LOOP:  cpu time    9.8691: real time    9.8744

 eigenvalue-minimisations  :   401
 total energy-change (2. order) :-0.2537208E-03  (-0.1753370E-05)
 number of electron     152.9999995 magnetization       1.0000000
 augmentation part       92.4005171 magnetization       0.0781621

 Broyden mixing:
  rms(total) = 0.36454E-03    rms(broyden)= 0.36451E-03
  rms(prec ) = 0.57983E-03
  weight for this iteration     100.00

 eigenvalues of (default mixing * dielectric matrix)
  average eigenvalue GAMMA=   1.5482
  7.0829  3.9585  2.4717  2.1576  1.5241  1.5241  0.9827  0.9827  0.7771  0.7771
  0.8201  0.6933  0.5926  0.4506  0.4859  0.5287  0.5101

 Free energy of the ion-electron system (eV)
  ---------------------------------------------------
  alpha Z        PSCENC =        41.16232785
  Ewald energy   TEWEN  =     16479.53814308
  -Hartree energ DENC   =    -33458.58451013
  -exchange      EXHF   =         0.00000000
  -V(xc)+E(xc)   XCENC  =       615.60473275
  PAW double counting   =     17663.48148684   -19062.11895903
  entropy T*S    EENTRO =         0.00891167
  eigenvalues    EBANDS =      -990.31985455
  atomic energy  EATOM  =     18662.21924712
  Solvation  Ediel_sol  =         0.00000000
  ---------------------------------------------------
  free energy    TOTEN  =       -49.00847439 eV

  energy without entropy =      -49.01738606  energy(sigma->0) =      -49.01144495


--------------------------------------------------------------------------------------------------------




--------------------------------------- Iteration      1(  23)  ---------------------------------------


    POTLOK:  cpu time    1.1762: real time    1.1766
    SETDIJ:  cpu time    0.0183: real time    0.0183
    EDDIAG:  cpu time    1.1139: real time    1.1142
  RMM-DIIS:  cpu time    6.6804: real time    6.6832
    ORTHCH:  cpu time    0.0623: real time    0.0623
       DOS:  cpu time    0.0004: real time    0.0004
    CHARGE:  cpu time    0.6706: real time    0.6707
    MIXING:  cpu time    0.0406: real time    0.0406
    --------------------------------------------
      LOOP:  cpu time    9.7628: real time    9.7664

 eigenvalue-minimisations  :   398
 total energy-change (2. order) :-0.1285751E-03  (-0.7365720E-06)
 number of electron     152.9999995 magnetization       1.0000000
 augmentation part       92.3999808 magnetization       0.0781502

 Broyden mixing:
  rms(total) = 0.22249E-03    rms(broyden)= 0.22247E-03
  rms(prec ) = 0.36035E-03
  weight for this iteration     100.00

 eigenvalues of (default mixing * dielectric matrix)
  average eigenvalue GAMMA=   1.5714
  7.4534  4.2796  2.4481  2.2763  1.7754  1.2937  1.2937  0.9864  0.9864  0.7711
  0.7711  0.7215  0.6813  0.4506  0.5766  0.4849  0.5174  0.5174

 Free energy of the ion-electron system (eV)
  ---------------------------------------------------
  alpha Z        PSCENC =        41.16232785
  Ewald energy   TEWEN  =     16479.53814308
  -Hartree energ DENC   =    -33458.65461328
  -exchange      EXHF   =         0.00000000
  -V(xc)+E(xc)   XCENC  =       615.60505970
  PAW double counting   =     17663.51631553   -19062.15764608
  entropy T*S    EENTRO =         0.00891148
  eigenvalues    EBANDS =      -990.24634837
  atomic energy  EATOM  =     18662.21924712
  Solvation  Ediel_sol  =         0.00000000
  ---------------------------------------------------
  free energy    TOTEN  =       -49.00860297 eV

  energy without entropy =      -49.01751445  energy(sigma->0) =      -49.01157346


--------------------------------------------------------------------------------------------------------




--------------------------------------- Iteration      1(  24)  ---------------------------------------


    POTLOK:  cpu time    1.1792: real time    1.1826
    SETDIJ:  cpu time    0.0185: real time    0.0185
    EDDIAG:  cpu time    1.1154: real time    1.1160
  RMM-DIIS:  cpu time    6.6759: real time    6.6784
    ORTHCH:  cpu time    0.0609: real time    0.0609
       DOS:  cpu time    0.0004: real time    0.0004
    CHARGE:  cpu time    0.6702: real time    0.6705
    MIXING:  cpu time    0.0435: real time    0.0435
    --------------------------------------------
      LOOP:  cpu time    9.7641: real time    9.7709

 eigenvalue-minimisations  :   403
 total energy-change (2. order) :-0.1017383E-03  (-0.7553465E-06)
 number of electron     152.9999995 magnetization       1.0000000
 augmentation part       92.3997431 magnetization       0.0781550

 Broyden mixing:
  rms(total) = 0.16225E-03    rms(broyden)= 0.16224E-03
  rms(prec ) = 0.25003E-03
  weight for this iteration     100.00

 eigenvalues of (default mixing * dielectric matrix)
  average eigenvalue GAMMA=   1.5874
  7.7366  4.5747  2.4291  2.4291  1.8968  1.4132  1.4132  0.9986  0.9986  0.8019
  0.8019  0.7446  0.7446  0.6289  0.4506  0.5744  0.4851  0.5194  0.5194

 Free energy of the ion-electron system (eV)
  ---------------------------------------------------
  alpha Z        PSCENC =        41.16232785
  Ewald energy   TEWEN  =     16479.53814308
  -Hartree energ DENC   =    -33458.68018792
  -exchange      EXHF   =         0.00000000
  -V(xc)+E(xc)   XCENC  =       615.60553793
  PAW double counting   =     17663.44823268   -19062.09103348
  entropy T*S    EENTRO =         0.00891156
  eigenvalues    EBANDS =      -990.21988353
  atomic energy  EATOM  =     18662.21924712
  Solvation  Ediel_sol  =         0.00000000
  ---------------------------------------------------
  free energy    TOTEN  =       -49.00870470 eV

  energy without entropy =      -49.01761626  energy(sigma->0) =      -49.01167522


--------------------------------------------------------------------------------------------------------




--------------------------------------- Iteration      1(  25)  ---------------------------------------


    POTLOK:  cpu time    1.1783: real time    1.1808
    SETDIJ:  cpu time    0.0181: real time    0.0181
    EDDIAG:  cpu time    1.1122: real time    1.1124
  RMM-DIIS:  cpu time    6.4194: real time    6.4219
    ORTHCH:  cpu time    0.0607: real time    0.0607
       DOS:  cpu time    0.0004: real time    0.0004
    CHARGE:  cpu time    0.6700: real time    0.6704
    MIXING:  cpu time    0.0455: real time    0.0455
    --------------------------------------------
      LOOP:  cpu time    9.5044: real time    9.5102

 eigenvalue-minimisations  :   393
 total energy-change (2. order) :-0.5997591E-04  (-0.4540668E-06)
 number of electron     152.9999995 magnetization       1.0000000
 augmentation part       92.3998831 magnetization       0.0781598

 Broyden mixing:
  rms(total) = 0.11500E-03    rms(broyden)= 0.11498E-03
  rms(prec ) = 0.17401E-03
  weight for this iteration     100.00

 eigenvalues of (default mixing * dielectric matrix)
  average eigenvalue GAMMA=   1.6403
  8.0156  5.1046  2.7283  2.5429  2.0265  1.6923  1.2743  1.2743  0.9943  0.9943
  0.7712  0.7712  0.7212  0.7212  0.6330  0.4506  0.5693  0.4848  0.5180  0.5180

 Free energy of the ion-electron system (eV)
  ---------------------------------------------------
  alpha Z        PSCENC =        41.16232785
  Ewald energy   TEWEN  =     16479.53814308
  -Hartree energ DENC   =    -33458.67211651
  -exchange      EXHF   =         0.00000000
  -V(xc)+E(xc)   XCENC  =       615.60531114
  PAW double counting   =     17663.36372274   -19062.00338324
  entropy T*S    EENTRO =         0.00891170
  eigenvalues    EBANDS =      -990.23092856
  atomic energy  EATOM  =     18662.21924712
  Solvation  Ediel_sol  =         0.00000000
  ---------------------------------------------------
  free energy    TOTEN  =       -49.00876468 eV

  energy without entropy =      -49.01767638  energy(sigma->0) =      -49.01173525


--------------------------------------------------------------------------------------------------------




--------------------------------------- Iteration      1(  26)  ---------------------------------------


    POTLOK:  cpu time    1.1816: real time    1.1820
    SETDIJ:  cpu time    0.0183: real time    0.0183
    EDDIAG:  cpu time    1.1114: real time    1.1118
  RMM-DIIS:  cpu time    6.3300: real time    6.3326
    ORTHCH:  cpu time    0.0602: real time    0.0604
       DOS:  cpu time    0.0005: real time    0.0005
    CHARGE:  cpu time    0.6655: real time    0.6655
    MIXING:  cpu time    0.0486: real time    0.0486
    --------------------------------------------
      LOOP:  cpu time    9.4162: real time    9.4197

 eigenvalue-minimisations  :   387
 total energy-change (2. order) :-0.3420387E-04  (-0.3281386E-06)
 number of electron     152.9999995 magnetization       1.0000000
 augmentation part       92.4001286 magnetization       0.0781693

 Broyden mixing:
  rms(total) = 0.64757E-04    rms(broyden)= 0.64754E-04
  rms(prec ) = 0.97168E-04
  weight for this iteration     100.00

 eigenvalues of (default mixing * dielectric matrix)
  average eigenvalue GAMMA=   1.6491
  8.1594  5.4280  3.0525  2.5300  2.0187  1.8322  1.3150  1.3150  1.0064  1.0064
  0.8321  0.8321  0.7417  0.7417  0.6425  0.6425  0.4506  0.5673  0.4848  0.5165
  0.5165

 Free energy of the ion-electron system (eV)
  ---------------------------------------------------
  alpha Z        PSCENC =        41.16232785
  Ewald energy   TEWEN  =     16479.53814308
  -Hartree energ DENC   =    -33458.66130459
  -exchange      EXHF   =         0.00000000
  -V(xc)+E(xc)   XCENC  =       615.60490782
  PAW double counting   =     17663.31432431   -19061.95046246
  entropy T*S    EENTRO =         0.00891168
  eigenvalues    EBANDS =      -990.24489369
  atomic energy  EATOM  =     18662.21924712
  Solvation  Ediel_sol  =         0.00000000
  ---------------------------------------------------
  free energy    TOTEN  =       -49.00879888 eV

  energy without entropy =      -49.01771056  energy(sigma->0) =      -49.01176944


--------------------------------------------------------------------------------------------------------




--------------------------------------- Iteration      1(  27)  ---------------------------------------


    POTLOK:  cpu time    1.1761: real time    1.1767
    SETDIJ:  cpu time    0.0184: real time    0.0184
    EDDIAG:  cpu time    1.1097: real time    1.1102
  RMM-DIIS:  cpu time    4.9242: real time    4.9261
    ORTHCH:  cpu time    0.0589: real time    0.0589
       DOS:  cpu time    0.0004: real time    0.0004
    CHARGE:  cpu time    0.6679: real time    0.6682
    MIXING:  cpu time    0.0522: real time    0.0522
    --------------------------------------------
      LOOP:  cpu time    8.0079: real time    8.0112

 eigenvalue-minimisations  :   290
 total energy-change (2. order) :-0.1273062E-04  (-0.1211696E-06)
 number of electron     152.9999995 magnetization       1.0000000
 augmentation part       92.4001117 magnetization       0.0781684

 Broyden mixing:
  rms(total) = 0.68031E-04    rms(broyden)= 0.68028E-04
  rms(prec ) = 0.90777E-04
  weight for this iteration     100.00

 eigenvalues of (default mixing * dielectric matrix)
  average eigenvalue GAMMA=   1.6426
  8.2105  5.6866  3.2343  2.4994  1.9802  1.9802  1.3287  1.3287  1.0245  1.0245
  1.0327  0.8388  0.7628  0.7628  0.6616  0.6184  0.6184  0.4506  0.5741  0.4850
  0.5170  0.5170

 Free energy of the ion-electron system (eV)
  ---------------------------------------------------
  alpha Z        PSCENC =        41.16232785
  Ewald energy   TEWEN  =     16479.53814308
  -Hartree energ DENC   =    -33458.66180018
  -exchange      EXHF   =         0.00000000
  -V(xc)+E(xc)   XCENC  =       615.60494550
  PAW double counting   =     17663.30443167   -19061.94065553
  entropy T*S    EENTRO =         0.00891157
  eigenvalues    EBANDS =      -990.24436269
  atomic energy  EATOM  =     18662.21924712
  Solvation  Ediel_sol  =         0.00000000
  ---------------------------------------------------
  free energy    TOTEN  =       -49.00881161 eV

  energy without entropy =      -49.01772319  energy(sigma->0) =      -49.01178214


--------------------------------------------------------------------------------------------------------




--------------------------------------- Iteration      1(  28)  ---------------------------------------


    POTLOK:  cpu time    1.1759: real time    1.1773
    SETDIJ:  cpu time    0.0179: real time    0.0179
    EDDIAG:  cpu time    1.1116: real time    1.1121
  RMM-DIIS:  cpu time    4.3382: real time    4.3400
    ORTHCH:  cpu time    0.0590: real time    0.0590
       DOS:  cpu time    0.0004: real time    0.0004
    CHARGE:  cpu time    0.6654: real time    0.6655
[...]
     66      -4.9348      1.00000
     67      -4.9101      1.00000
     68      -4.8777      1.00000
     69      -4.8678      1.00000
     70      -4.8353      1.00000
     71      -4.8145      1.00000
     72      -4.7758      1.00000
     73      -4.7327      1.00000
     74      -4.5454      1.00000
     75      -4.2004      1.00000
     76      -4.1583      1.00000
     77      -3.5250      1.00000
     78      -3.0169     -0.00000
     79      -2.8407     -0.00000
     80      -2.5388     -0.00000
     81      -2.3275     -0.00000
     82      -1.9943     -0.00000
     83      -1.8971     -0.00000
     84      -1.7498     -0.00000
     85      -1.3384     -0.00000
     86      -1.0273     -0.00000
     87      -0.9430     -0.00000
     88      -0.6928      0.00000
     89      -0.4158      0.00000
     90      -0.1583      0.00000
     91       0.1308      0.00000
     92       0.3126      0.00000

 spin component 2

 k-point     1 :       0.0000    0.0000    0.0000
  band No.  band energies     occupation 
      1     -28.4456      1.00000
      2     -13.7311      1.00000
      3     -11.3208      1.00000
      4     -11.0967      1.00000
      5     -10.7737      1.00000
      6     -10.1076      1.00000
      7      -8.5953      1.00000
      8      -8.1655      1.00000
      9      -7.6824      1.00000
     10      -7.4859      1.00000
     11      -7.4214      1.00000
     12      -7.2832      1.00000
     13      -7.2559      1.00000
     14      -7.1132      1.00000
     15      -7.0026      1.00000
     16      -6.9144      1.00000
     17      -6.7788      1.00000
     18      -6.7554      1.00000
     19      -6.7019      1.00000
     20      -6.6123      1.00000
     21      -6.5935      1.00000
     22      -6.5424      1.00000
     23      -6.4814      1.00000
     24      -6.4441      1.00000
     25      -6.4136      1.00000
     26      -6.3823      1.00000
     27      -6.3227      1.00000
     28      -6.2454      1.00000
     29      -6.2393      1.00000
     30      -6.2312      1.00000
     31      -6.1545      1.00000
     32      -6.1184      1.00000
     33      -6.0539      1.00000
     34      -6.0243      1.00000
     35      -5.8965      1.00000
     36      -5.8266      1.00000
     37      -5.7968      1.00000
     38      -5.6771      1.00000
     39      -5.6566      1.00000
     40      -5.6327      1.00000
     41      -5.5867      1.00000
     42      -5.5412      1.00000
     43      -5.5053      1.00000
     44      -5.4562      1.00000
     45      -5.4479      1.00000
     46      -5.3961      1.00000
     47      -5.3606      1.00000
     48      -5.3438      1.00000
     49      -5.3396      1.00000
     50      -5.3139      1.00000
     51      -5.2986      1.00000
     52      -5.2525      1.00000
     53      -5.2349      1.00000
     54      -5.2295      1.00000
     55      -5.1766      1.00000
     56      -5.1663      1.00000
     57      -5.1503      1.00000
     58      -5.1372      1.00000
     59      -5.0961      1.00000
     60      -5.0658      1.00000
     61      -5.0395      1.00000
     62      -5.0040      1.00000
     63      -4.9877      1.00000
     64      -4.9640      1.00000
     65      -4.9250      1.00000
     66      -4.9062      1.00000
     67      -4.8892      1.00000
     68      -4.8427      1.00000
     69      -4.8313      1.00000
     70      -4.8044      1.00000
     71      -4.7774      1.00000
     72      -4.7509      1.00000
     73      -4.7056      1.00000
     74      -4.5013      1.00000
     75      -4.1410      1.02136
     76      -4.1202      0.97864
     77      -3.3137     -0.00000
     78      -2.9650     -0.00000
     79      -2.7864     -0.00000
     80      -2.4687     -0.00000
     81      -2.2275     -0.00000
     82      -1.9668     -0.00000
     83      -1.8224     -0.00000
     84      -1.6748     -0.00000
     85      -1.2140      0.00000
     86      -0.9560      0.00000
     87      -0.8186      0.00000
     88      -0.6123      0.00000
     89      -0.3232      0.00000
     90      -0.2467      0.00000
     91      -0.0468      0.00000
     92       0.1784      0.00000


--------------------------------------------------------------------------------------------------------


 soft charge-density along one line, spin component           1
         0         1         2         3         4         5         6         7         8         9
 total charge-density along one line
 
 soft charge-density along one line, spin component           2
         0         1         2         3         4         5         6         7         8         9
 total charge-density along one line
 
 pseudopotential strength for first ion, spin component:           1
-10.515   0.004  -0.014   0.001  -0.009   1.018  -0.003   0.013
  0.004 -10.499  -0.007   0.007   0.004  -0.003   1.006   0.005
 -0.014  -0.007 -10.480   0.004  -0.012   0.013   0.005   0.990
  0.001   0.007   0.004 -10.485   0.001  -0.001  -0.008  -0.003
 -0.009   0.004  -0.012   0.001 -10.499   0.007  -0.003   0.010
  1.018  -0.003   0.013  -0.001   0.007   6.292   0.002  -0.011
 -0.003   1.006   0.005  -0.008  -0.003   0.002   6.298  -0.004
  0.013   0.005   0.990  -0.003   0.010  -0.011  -0.004   6.310
 -0.001  -0.008  -0.003   0.993  -0.001   0.001   0.007   0.002
  0.007  -0.003   0.010  -0.001   1.006  -0.005   0.002  -0.007
 -0.007   0.001  -0.004  -0.001  -0.004   0.005   0.000  -0.001
 -0.013   0.001  -0.008  -0.001  -0.007   0.009   0.000  -0.001
 -0.013  -0.001   0.004  -0.000   0.009   0.008   0.001  -0.004
 -0.000  -0.007  -0.001  -0.012  -0.000   0.000   0.005   0.001
 -0.006  -0.000   0.008  -0.001  -0.013   0.003   0.000  -0.005
 -0.014  -0.001   0.005  -0.000   0.010   0.008   0.001  -0.004
 -0.000  -0.007  -0.001  -0.012  -0.000   0.001   0.004   0.001
 -0.005  -0.000   0.009  -0.002  -0.014   0.002   0.001  -0.006
 pseudopotential strength for first ion, spin component:           2
-10.476   0.003  -0.008  -0.008   0.004   0.987  -0.003   0.007
  0.003 -10.486  -0.007   0.006   0.003  -0.003   0.995   0.005
 -0.008  -0.007 -10.468   0.003  -0.009   0.007   0.005   0.980
 -0.008   0.006   0.003 -10.469  -0.001   0.006  -0.006  -0.002
  0.004   0.003  -0.009  -0.001 -10.484  -0.003  -0.002   0.007
  0.987  -0.003   0.007   0.006  -0.003   6.312   0.002  -0.004
 -0.003   0.995   0.005  -0.006  -0.002   0.002   6.304  -0.004
  0.007   0.005   0.980  -0.002   0.007  -0.004  -0.004   6.315
  0.006  -0.006  -0.002   0.981   0.001  -0.004   0.004   0.002
 -0.003  -0.002   0.007   0.001   0.993   0.002   0.001  -0.005
 -0.003   0.002  -0.002  -0.001  -0.003   0.001   0.000  -0.002
 -0.005   0.003  -0.003  -0.002  -0.005   0.001   0.000  -0.003
 -0.014  -0.000   0.005   0.000   0.008   0.011  -0.000  -0.005
  0.000  -0.008  -0.000  -0.013   0.000  -0.000   0.007  -0.001
 -0.009   0.000   0.008  -0.000  -0.014   0.007  -0.000  -0.007
 -0.016  -0.000   0.006   0.001   0.009   0.013  -0.000  -0.006
  0.001  -0.009  -0.000  -0.015   0.000  -0.001   0.007  -0.001
 -0.010   0.001   0.010   0.000  -0.016   0.008  -0.001  -0.008
 total augmentation occupancy for first ion, spin component:           1
  1.933   0.005  -0.007   0.001  -0.003  -0.012  -0.002   0.007  -0.000   0.003  -0.014   0.013   0.031   0.000   0.035  -0.019
  0.005   1.927  -0.005   0.007  -0.001  -0.002  -0.018   0.005  -0.002   0.000  -0.001  -0.000   0.003   0.040  -0.003  -0.001
 -0.007  -0.005   1.947   0.002  -0.004   0.007   0.005  -0.028  -0.003   0.004  -0.008   0.010  -0.013   0.001  -0.016   0.007
  0.001   0.007   0.002   1.936  -0.004  -0.000  -0.002  -0.003  -0.021   0.001   0.003   0.002   0.007   0.060  -0.004  -0.000
 -0.003  -0.001  -0.004  -0.004   1.939   0.003   0.000   0.004   0.001  -0.016  -0.009   0.006  -0.017   0.002   0.033   0.013
 -0.012  -0.002   0.007  -0.000   0.003   0.013   0.000   0.002   0.000   0.001  -0.028   0.000   0.019   0.000   0.009  -0.001
 -0.002  -0.018   0.005  -0.002   0.000   0.000   0.008   0.000   0.001  -0.001   0.008  -0.001   0.001   0.013   0.001  -0.000
  0.007   0.005  -0.028  -0.003   0.004   0.002   0.000   0.007  -0.000   0.001  -0.037   0.005  -0.007  -0.001  -0.006   0.001
 -0.000  -0.002  -0.003  -0.021   0.001   0.000   0.001  -0.000   0.009  -0.001  -0.009   0.001  -0.001   0.019  -0.003  -0.000
  0.003   0.000   0.004   0.001  -0.016   0.001  -0.001   0.001  -0.001   0.012  -0.016   0.001  -0.022  -0.003   0.021   0.002
 -0.014  -0.001  -0.008   0.003  -0.009  -0.028   0.008  -0.037  -0.009  -0.016   1.634  -0.115   0.130  -0.003   0.172  -0.017
  0.013  -0.000   0.010   0.002   0.006   0.000  -0.001   0.005   0.001   0.001  -0.115   0.014  -0.018   0.001  -0.026   0.002
  0.031   0.003  -0.013   0.007  -0.017   0.019   0.001  -0.007  -0.001  -0.022   0.130  -0.018   0.180   0.002  -0.040  -0.011
  0.000   0.040   0.001   0.060   0.002   0.000   0.013  -0.001   0.019  -0.003  -0.003   0.001   0.002   0.086  -0.009  -0.001
  0.035  -0.003  -0.016  -0.004   0.033   0.009   0.001  -0.006  -0.003   0.021   0.172  -0.026  -0.040  -0.009   0.139   0.001
 -0.019  -0.001   0.007  -0.000   0.013  -0.001  -0.000   0.001  -0.000   0.002  -0.017   0.002  -0.011  -0.001   0.001   0.001
  0.000  -0.014  -0.001  -0.021   0.000  -0.000  -0.001   0.000  -0.001   0.000   0.000  -0.000  -0.001  -0.005   0.001   0.000
 -0.013   0.000   0.010  -0.000  -0.019  -0.000  -0.000   0.001   0.000  -0.001  -0.024   0.003   0.001   0.000  -0.010   0.000
 total augmentation occupancy for first ion, spin component:           2
  0.016  -0.001   0.002  -0.005   0.007  -0.002  -0.000  -0.002   0.001  -0.002   0.034   0.006  -0.010   0.006  -0.018  -0.001
 -0.001   0.000  -0.000   0.001  -0.000  -0.000   0.001  -0.000   0.001   0.000  -0.002  -0.001   0.002  -0.002   0.001   0.000
  0.002  -0.000   0.001  -0.001   0.001  -0.002  -0.000   0.002  -0.000  -0.001   0.004   0.000   0.000   0.003  -0.001   0.000
 -0.005   0.001  -0.001   0.004  -0.002   0.001   0.001   0.000   0.002   0.000  -0.013  -0.002   0.003  -0.006   0.007   0.000
  0.007  -0.000   0.001  -0.002   0.003  -0.002   0.000  -0.001   0.000   0.002   0.014   0.003  -0.001   0.002  -0.010  -0.000
 -0.002  -0.000  -0.002   0.001  -0.002   0.001  -0.000   0.000  -0.000   0.000  -0.008  -0.001   0.001  -0.002   0.004   0.000
 -0.000   0.001  -0.000   0.001   0.000  -0.000  -0.000   0.000  -0.000  -0.000   0.000   0.000   0.000   0.000  -0.000  -0.000
 -0.002  -0.000   0.002   0.000  -0.001   0.000   0.000  -0.000  -0.000   0.000  -0.002  -0.000   0.000  -0.000   0.001   0.000
  0.001   0.001  -0.000   0.002   0.000  -0.000  -0.000  -0.000  -0.000  -0.000   0.002   0.000  -0.001   0.000  -0.001  -0.000
 -0.002   0.000  -0.001   0.000   0.002   0.000  -0.000   0.000  -0.000  -0.000  -0.003  -0.000   0.001  -0.001   0.001  -0.000
  0.034  -0.002   0.004  -0.013   0.014  -0.008   0.000  -0.002   0.002  -0.003   0.085   0.005  -0.018   0.017  -0.040  -0.000
  0.006  -0.001   0.000  -0.002   0.003  -0.001   0.000  -0.000   0.000  -0.000   0.005   0.001  -0.001   0.001  -0.002  -0.000
 -0.010   0.002   0.000   0.003  -0.001   0.001   0.000   0.000  -0.001   0.001  -0.018  -0.001   0.004  -0.003   0.005   0.000
  0.006  -0.002   0.003  -0.006   0.002  -0.002   0.000  -0.000   0.000  -0.001   0.017   0.001  -0.003   0.003  -0.006  -0.000
 -0.018   0.001  -0.001   0.007  -0.010   0.004  -0.000   0.001  -0.001   0.001  -0.040  -0.002   0.005  -0.006   0.014   0.000
 -0.001   0.000   0.000   0.000  -0.000   0.000  -0.000   0.000  -0.000  -0.000  -0.000  -0.000   0.000  -0.000   0.000   0.000
  0.000  -0.000   0.000  -0.001   0.000   0.000  -0.000  -0.000   0.000   0.000  -0.000   0.000   0.000   0.000   0.000  -0.000
 -0.001   0.000   0.000   0.001  -0.001   0.000   0.000   0.000  -0.000   0.000  -0.000  -0.000   0.000  -0.000   0.000   0.000


------------------------ aborting loop because EDIFF is reached ----------------------------------------


    CHARGE:  cpu time    0.6571: real time    0.6574
    FORLOC:  cpu time    0.0649: real time    0.0649
    FORNL :  cpu time    1.5337: real time    1.5341
    STRESS:  cpu time    6.1173: real time    6.1195
    FORCOR:  cpu time    1.1678: real time    1.1680
    FORHAR:  cpu time    0.1897: real time    0.1897
    MIXING:  cpu time    0.1148: real time    0.1148
    OFIELD:  cpu time    0.0001: real time    0.0001

  FORCE on cell =-STRESS in cart. coord.  units (eV):
  Direction    XX          YY          ZZ          XY          YZ          ZX
  --------------------------------------------------------------------------------------
  Alpha Z    41.16233    41.16233    41.16233
  Ewald   10344.09548  7676.78165 -1541.35500  -935.49058   228.46038   212.13138
  Hartree 15441.43808 13144.54717  4872.68807  -832.84177   201.54148   195.75877
  E(xc)    -876.32611  -877.86152  -879.61830    -0.18063     0.02865     0.01355
  Local  -27179.58242-22252.31634 -4769.97916  1767.09235  -429.08137  -408.94230
  n-local  -329.22486  -321.54508  -327.86602    -0.68179    -0.36839     1.76105
  augment  1222.26336  1226.23903  1232.87588     0.30752    -0.38753    -0.86811
  Kinetic  1336.42486  1362.99589  1371.17008     1.51068    -0.45050     0.69602
  Fock        0.00000     0.00000     0.00000     0.00000     0.00000     0.00000
  -------------------------------------------------------------------------------------
  Total       0.25072     0.00313    -0.92212    -0.28421    -0.25728     0.55037
  in kB       0.11902     0.00148    -0.43775    -0.13492    -0.12213     0.26127
  external pressure =       -0.11 kB  Pullay stress =        0.00 kB


 VOLUME and BASIS-vectors are now :
 -----------------------------------------------------------------------------
  energy-cutoff  :      600.00
  volume of cell :     3375.00
      direct lattice vectors                 reciprocal lattice vectors
    15.000000000  0.000000000  0.000000000     0.066666667  0.000000000  0.000000000
     0.000000000 15.000000000  0.000000000     0.000000000  0.066666667  0.000000000
     0.000000000  0.000000000 15.000000000     0.000000000  0.000000000  0.066666667

  length of vectors
    15.000000000 15.000000000 15.000000000     0.066666667  0.066666667  0.066666667


 FORCES acting on ions
    electron-ion (+dipol)            ewald-force                    non-local-force                 convergence-correction
 -----------------------------------------------------------------------------------------------
   0.109E+04 0.694E+03 -.101E+02   -.109E+04 -.691E+03 0.103E+02   -.461E+01 -.339E+01 -.137E+00   -.156E-04 0.170E-05 -.441E-05
   0.446E+03 -.340E+03 0.935E+03   -.445E+03 0.338E+03 -.934E+03   -.174E+01 0.264E+01 0.151E+00   -.232E-04 0.346E-05 -.393E-04
   0.312E+03 0.127E+04 -.233E+03   -.309E+03 -.126E+04 0.230E+03   -.222E+01 -.889E+01 0.251E+01   -.429E-05 -.855E-05 -.110E-05
   -.863E+03 -.153E+03 0.907E+03   0.861E+03 0.152E+03 -.902E+03   0.270E+01 0.706E+00 -.416E+01   0.165E-05 0.184E-04 -.150E-04
   -.835E+03 0.101E+04 0.183E+03   0.830E+03 -.101E+04 -.181E+03   0.508E+01 -.599E+01 -.180E+01   0.403E-06 -.102E-04 0.337E-05
   -.105E+03 0.496E+03 -.964E+03   0.104E+03 -.493E+03 0.963E+03   0.634E+00 -.298E+01 0.300E+00   -.125E-04 -.402E-05 0.343E-04
   0.182E+03 0.658E+03 0.121E+04   -.181E+03 -.653E+03 -.120E+04   -.899E+00 -.464E+01 -.565E+01   -.154E-04 0.122E-04 -.422E-05
   0.126E+04 -.364E+03 0.179E+03   -.125E+04 0.361E+03 -.176E+03   -.887E+01 0.343E+01 -.323E+01   -.172E-04 0.606E-05 -.805E-05
   0.603E+03 -.209E+03 -.120E+04   -.599E+03 0.209E+03 0.120E+04   -.331E+01 0.958E-01 0.679E+01   -.110E-05 0.720E-05 0.789E-06
   0.446E+03 -.125E+04 -.150E+03   -.443E+03 0.124E+04 0.148E+03   -.326E+01 0.725E+01 0.188E+01   -.106E-04 0.176E-04 -.792E-05
   -.497E+03 -.105E+04 0.695E+03   0.493E+03 0.104E+04 -.689E+03   0.444E+01 0.595E+01 -.645E+01   -.161E-04 0.863E-05 0.660E-05
   -.877E+03 0.226E+02 -.461E+03   0.875E+03 -.232E+02 0.457E+03   0.148E+01 0.529E+00 0.420E+01   0.543E-04 0.530E-05 0.782E-05
   -.549E+03 -.771E+03 -.858E+03   0.546E+03 0.766E+03 0.855E+03   0.280E+01 0.463E+01 0.261E+01   -.204E-05 0.401E-05 0.627E-05
   -.123E+03 -.326E+02 -.162E+03   0.103E+03 0.336E+02 0.166E+03   0.200E+02 -.126E+01 -.320E+01   0.149E-04 0.840E-06 0.185E-05
   -.445E+03 0.847E+01 -.638E+02   0.505E+03 -.119E+02 0.570E+02   -.593E+02 0.352E+01 0.681E+01   0.458E-05 0.259E-05 -.688E-06
 -----------------------------------------------------------------------------------------------
   0.470E+02 -.160E+01 -.612E+00   0.625E-12 0.201E-12 0.554E-12   -.470E+02 0.160E+01 0.613E+00   -.423E-04 0.653E-04 -.196E-04
 
 
 POSITION                                       TOTAL-FORCE (eV/Angst)
 -----------------------------------------------------------------------------------
      4.36065      6.30517      8.28993         0.279094     -0.140300      0.083583
      5.65645      8.21050      7.32178        -0.219826      0.257134      0.209440
      5.96964      4.39764      8.49822        -0.158675     -0.111366      0.055383
      7.99134      7.57995      7.23187         0.105641      0.140001     -0.015563
      8.24036      5.17592      7.97962         0.141743      0.273913     -0.008698
      6.72671      6.55845      9.22838         0.063498     -0.156504     -0.201286
      6.28121      5.98439      6.73447        -0.084602     -0.243552      0.117953
      3.40120      8.51213      8.18299        -0.291050      0.349271     -0.290906
      4.97496      8.19667      9.81539         0.471247     -0.027593     -0.002390
      5.31223     10.30010      8.50435        -0.141827     -0.285109      0.083388
      7.30027     10.00870      7.14913         0.092809     -0.123607      0.111544
      9.29937      7.23174      9.15771        -0.307913     -0.057584      0.151245
      7.26501      8.86026      9.27405         0.033887      0.227060     -0.251610
     11.04730      7.39139      9.69599        -0.509060     -0.209176     -0.131402
     12.19140      7.32920      9.57016         0.525034      0.107413      0.089320
 -----------------------------------------------------------------------------------
    total drift:                                0.004309      0.001299      0.000915


--------------------------------------------------------------------------------------------------------



  FREE ENERGIE OF THE ION-ELECTRON SYSTEM (eV)
  ---------------------------------------------------
  free  energy   TOTEN  =       -49.00882458 eV

  energy  without entropy=      -49.01773625  energy(sigma->0) =      -49.01179514
 


--------------------------------------------------------------------------------------------------------


    POTLOK:  cpu time    1.1825: real time    1.1832


--------------------------------------------------------------------------------------------------------


     LOOP+:  cpu time  349.3852: real time  349.7270
    4ORBIT:  cpu time    0.0000: real time    0.0000

 total amount of memory used by VASP MPI-rank0   158680. kBytes
=======================================================================

   base      :      30000. kBytes
   nonl-proj :      12601. kBytes
   fftplans  :      27994. kBytes
   grid      :      74150. kBytes
   one-center:         93. kBytes
   wavefun   :      13842. kBytes
 
  
  
 General timing and accounting informations for this job:
 ========================================================
  
                  Total CPU time used (sec):      353.398
                            User time (sec):      341.085
                          System time (sec):       12.313
                         Elapsed time (sec):      353.778
  
                   Maximum memory used (kb):      283300.
                   Average memory used (kb):           0.
  
                          Minor page faults:       303954
                          Major page faults:            0
                 Voluntary context switches:          810
