<?xml version="1.0" encoding="ISO-8859-1"?>
<modeling>
 <generator>
  <i name="program" type="string">vasp </i>
  <i name="version" type="string">5.4.4.18Apr17-6-g9f103f2a35  </i>
  <i name="subversion" type="string">(build May 08 2019 13:49:07) complex            parallel </i>
  <i name="platform" type="string">LinuxIFC </i>
  <i name="date" type="string">2019 11 13 </i>
  <i name="time" type="string">14:10:32 </i>
 </generator>
 <incar>
  <i type="string" name="SYSTEM"> CuCO</i>
  <i type="int" name="ISTART">     0</i>
  <i type="string" name="PREC">accurate</i>
  <i type="string" name="ALGO"> Fast</i>
  <i type="int" name="ISPIN">     2</i>
  <i type="int" name="INIWAV">     1</i>
  <i type="int" name="NELM">   300</i>
  <i type="int" name="NELMIN">     3</i>
  <i type="int" name="IBRION">    -1</i>
  <i name="EDIFF">      0.00000010</i>
  <i name="EDIFFG">     -0.00100000</i>
  <i type="int" name="NSW">     0</i>
  <i type="int" name="ISYM">     0</i>
  <i name="ENCUT">    600.00000000</i>
  <i name="NUPDOWN">      1.00000000</i>
  <i type="logical" name="LREAL"> F  </i>
  <i type="int" name="ISMEAR">     1</i>
  <i name="SIGMA">      0.10000000</i>
  <i name="KSPACING">      0.50000000</i>
  <i type="logical" name="KGAMMA"> F  </i>
  <i type="logical" name="LWAVE"> F  </i>
  <i type="logical" name="LCHARG"> F  </i>
  <v type="int" name="KPOINT_BSE">    -1     0     0     0</v>
  <i type="int" name="NELM">   300</i>
  <i type="string" name="GGA"> PE</i>
 </incar>
 <structure name="primitive_cell" >
  <crystal>
   <varray name="basis" >
    <v>      15.00000000       0.00000000       0.00000000 </v>
    <v>       0.00000000      15.00000000       0.00000000 </v>
    <v>       0.00000000       0.00000000      15.00000000 </v>
   </varray>
   <i name="volume">   3375.00000000 </i>
   <varray name="rec_basis" >
    <v>       0.06666667       0.00000000       0.00000000 </v>
    <v>       0.00000000       0.06666667       0.00000000 </v>
    <v>       0.00000000       0.00000000       0.06666667 </v>
   </varray>
  </crystal>
  <varray name="positions" >
   <v>       0.29071000       0.42034467      -0.44733800 </v>
   <v>       0.22674667      -0.43252467      -0.45446733 </v>
   <v>       0.41874733       0.39895933       0.44896467 </v>
   <v>       0.37709667      -0.45263333       0.48811867 </v>
   <v>       0.39797600       0.29317600      -0.43345200 </v>
   <v>       0.33166400      -0.45355533      -0.34564067 </v>
   <v>       0.44844733       0.43723000      -0.38477467 </v>
   <v>      -0.46724400      -0.49467000       0.48212467 </v>
   <v>       0.48433400      -0.40931600      -0.38173000 </v>
   <v>      -0.45064267       0.34506133      -0.46802533 </v>
   <v>       0.35414867      -0.31332667      -0.43304333 </v>
   <v>       0.48668467      -0.33275333       0.47660867 </v>
   <v>      -0.38004200       0.48211600      -0.38948600 </v>
   <v>      -0.26351333       0.49275933      -0.35360067 </v>
   <v>      -0.18724000       0.48861333      -0.36198933 </v>
  </varray>
 </structure>
 <varray name="primitive_index" >
  <v type="int" >        1 </v>
  <v type="int" >        8 </v>
  <v type="int" >        7 </v>
  <v type="int" >        2 </v>
  <v type="int" >        3 </v>
  <v type="int" >        9 </v>
  <v type="int" >        6 </v>
  <v type="int" >        4 </v>
  <v type="int" >       13 </v>
  <v type="int" >        5 </v>
  <v type="int" >       10 </v>
  <v type="int" >       11 </v>
  <v type="int" >       12 </v>
  <v type="int" >       14 </v>
  <v type="int" >       15 </v>
 </varray>
 <kpoints>
  <generation param="Monkhorst-Pack">
   <v type="int" name="divisions">       1        1        1 </v>
   <v name="usershift">      0.00000000       0.00000000       0.00000000 </v>
   <v name="genvec1">      1.00000000       0.00000000       0.00000000 </v>
   <v name="genvec2">      0.00000000       1.00000000       0.00000000 </v>
   <v name="genvec3">      0.00000000       0.00000000       1.00000000 </v>
   <v name="shift">      0.00000000       0.00000000       0.00000000 </v>
  </generation>
  <varray name="kpointlist" >
   <v>       0.00000000       0.00000000       0.00000000 </v>
  </varray>
  <varray name="weights" >
   <v>       1.00000000 </v>
  </varray>
 </kpoints>
 <parameters>
  <separator name="general" >
   <i type="string" name="SYSTEM">CuCO</i>
   <i type="logical" name="LCOMPAT"> F  </i>
  </separator>
  <separator name="electronic" >
   <i type="string" name="PREC">accura</i>
   <i name="ENMAX">    600.00000000</i>
   <i name="ENAUG">    644.87300000</i>
   <i name="EDIFF">      0.00000010</i>
   <i type="int" name="IALGO">    68</i>
   <i type="int" name="IWAVPR">    10</i>
   <i type="int" name="NBANDS">    92</i>
   <i name="NELECT">    153.00000000</i>
   <i type="int" name="TURBO">     0</i>
   <i type="int" name="IRESTART">     0</i>
   <i type="int" name="NREBOOT">     0</i>
   <i type="int" name="NMIN">     0</i>
   <i name="EREF">      0.00000000</i>
   <separator name="electronic smearing" >
    <i type="int" name="ISMEAR">     1</i>
    <i name="SIGMA">      0.10000000</i>
    <i name="KSPACING">      0.50000000</i>
    <i type="logical" name="KGAMMA"> F  </i>
   </separator>
   <separator name="electronic projectors" >
    <i type="logical" name="LREAL"> F  </i>
    <v name="ROPT">      0.00000000      0.00000000      0.00000000</v>
    <i type="int" name="LMAXPAW">  -100</i>
    <i type="int" name="LMAXMIX">     2</i>
    <i type="logical" name="NLSPLINE"> F  </i>
   </separator>
   <separator name="electronic startup" >
    <i type="int" name="ISTART">     0</i>
    <i type="int" name="ICHARG">     2</i>
    <i type="int" name="INIWAV">     1</i>
   </separator>
   <separator name="electronic spin" >
    <i type="int" name="ISPIN">     2</i>
    <i type="logical" name="LNONCOLLINEAR"> F  </i>
    <v name="MAGMOM">      0.06666667      0.06666667      0.06666667      0.06666667      0.06666667      0.06666667      0.06666667      0.06666667      0.06666667      0.06666667      0.06666667      0.06666667      0.06666667      0.06666667      0.06666667</v>
    <i name="NUPDOWN">      1.00000000</i>
    <i type="logical" name="LSORBIT"> F  </i>
    <v name="SAXIS">      0.00000000      0.00000000      1.00000000</v>
    <i type="logical" name="LSPIRAL"> F  </i>
    <v name="QSPIRAL">      0.00000000      0.00000000      0.00000000</v>
    <i type="logical" name="LZEROZ"> F  </i>
   </separator>
   <separator name="electronic exchange-correlation" >
    <i type="logical" name="LASPH"> F  </i>
    <i type="logical" name="LMETAGGA"> F  </i>
   </separator>
   <separator name="electronic convergence" >
    <i type="int" name="NELM">   300</i>
    <i type="int" name="NELMDL">    -5</i>
    <i type="int" name="NELMIN">     3</i>
    <i name="ENINI">    600.00000000</i>
    <separator name="electronic convergence detail" >
     <i type="logical" name="LDIAG"> T  </i>
     <i type="logical" name="LSUBROT"> F  </i>
     <i name="WEIMIN">      0.00000000</i>
     <i name="EBREAK">      0.00000000</i>
     <i name="DEPER">      0.30000000</i>
     <i type="int" name="NRMM">     4</i>
     <i name="TIME">      0.40000000</i>
    </separator>
   </separator>
   <separator name="electronic mixer" >
    <i name="AMIX">      0.40000000</i>
    <i name="BMIX">      1.00000000</i>
    <i name="AMIN">      0.10000000</i>
    <i name="AMIX_MAG">      1.60000000</i>
    <i name="BMIX_MAG">      1.00000000</i>
    <separator name="electronic mixer details" >
     <i type="int" name="IMIX">     4</i>
     <i type="logical" name="MIXFIRST"> F  </i>
     <i type="int" name="MAXMIX">   -45</i>
     <i name="WC">    100.00000000</i>
     <i type="int" name="INIMIX">     1</i>
     <i type="int" name="MIXPRE">     1</i>
     <i type="int" name="MREMOVE">     5</i>
    </separator>
   </separator>
   <separator name="electronic dipolcorrection" >
    <i type="logical" name="LDIPOL"> F  </i>
    <i type="logical" name="LMONO"> F  </i>
    <i type="int" name="IDIPOL">     0</i>
    <i name="EPSILON">      1.00000000</i>
    <v name="DIPOL">   -100.00000000   -100.00000000   -100.00000000</v>
    <i name="EFIELD">      0.00000000</i>
   </separator>
  </separator>
  <separator name="grids" >
   <i type="int" name="NGX">   120</i>
   <i type="int" name="NGY">   120</i>
   <i type="int" name="NGZ">   120</i>
   <i type="int" name="NGXF">   240</i>
   <i type="int" name="NGYF">   240</i>
   <i type="int" name="NGZF">   240</i>
   <i type="logical" name="ADDGRID"> F  </i>
  </separator>
  <separator name="ionic" >
   <i type="int" name="NSW">     0</i>
   <i type="int" name="IBRION">    -1</i>
   <i type="int" name="MDALGO">     0</i>
   <i type="int" name="ISIF">     2</i>
   <i name="PSTRESS">      0.00000000</i>
   <i name="EDIFFG">     -0.00100000</i>
   <i type="int" name="NFREE">     0</i>
   <i name="POTIM">      0.50000000</i>
   <i name="SMASS">     -3.00000000</i>
   <i name="SCALEE">      1.00000000</i>
  </separator>
  <separator name="ionic md" >
   <i name="TEBEG">      0.00010000</i>
   <i name="TEEND">      0.00010000</i>
   <i type="int" name="NBLOCK">     1</i>
   <i type="int" name="KBLOCK">     1</i>
   <i type="int" name="NPACO">   256</i>
   <i name="APACO">     16.00000000</i>
  </separator>
  <separator name="symmetry" >
   <i type="int" name="ISYM">     0</i>
   <i name="SYMPREC">      0.00001000</i>
  </separator>
  <separator name="dos" >
   <i type="int" name="LORBIT">     0</i>
   <v name="RWIGS">     -1.00000000     -1.00000000     -1.00000000</v>
   <i type="int" name="NEDOS">   301</i>
   <i name="EMIN">     10.00000000</i>
   <i name="EMAX">    -10.00000000</i>
   <i name="EFERMI">      0.00000000</i>
  </separator>
  <separator name="writing" >
   <i type="int" name="NWRITE">     2</i>
   <i type="logical" name="LWAVE"> F  </i>
   <i type="logical" name="LDOWNSAMPLE"> F  </i>
   <i type="logical" name="LCHARG"> F  </i>
   <i type="logical" name="LPARD"> F  </i>
   <i type="logical" name="LVTOT"> F  </i>
   <i type="logical" name="LVHAR"> F  </i>
   <i type="logical" name="LELF"> F  </i>
   <i type="logical" name="LOPTICS"> F  </i>
   <v name="STM">      0.00000000      0.00000000      0.00000000      0.00000000      0.00000000      0.00000000      0.00000000</v>
  </separator>
  <separator name="performance" >
   <i type="int" name="NPAR">     4</i>
   <i type="int" name="NSIM">     4</i>
   <i type="int" name="NBLK">    -1</i>
   <i type="logical" name="LPLANE"> T  </i>
   <i type="logical" name="LSCALAPACK"> T  </i>
   <i type="logical" name="LSCAAWARE"> F  </i>
   <i type="logical" name="LSCALU"> F  </i>
   <i type="logical" name="LASYNC"> F  </i>
   <i type="logical" name="LORBITALREAL"> F  </i>
  </separator>
  <separator name="miscellaneous" >
   <i type="int" name="IDIOT">     3</i>
   <i type="int" name="ISPECIAL">     0</i>
   <i type="logical" name="LMUSIC"> F  </i>
   <v name="POMASS">     63.54600000     12.01100000     16.00000000</v>
   <v name="DARWINR">      0.00000000      0.00000000      0.00000000</v>
   <v name="DARWINV">      1.00000000      1.00000000      1.00000000</v>
   <i type="logical" name="LCORR"> T  </i>
  </separator>
  <i type="logical" name="GGA_COMPAT"> T  </i>
  <i type="logical" name="LBERRY"> F  </i>
  <i type="int" name="ICORELEVEL">     0</i>
  <i type="logical" name="LDAU"> F  </i>
  <i type="int" name="I_CONSTRAINED_M">     0</i>
  <separator name="electronic exchange-correlation" >
   <i type="string" name="GGA">PE</i>
   <i type="int" name="VOSKOWN">     0</i>
   <i type="logical" name="LHFCALC"> F  </i>
   <i type="string" name="PRECFOCK"></i>
   <i type="logical" name="LSYMGRAD"> F  </i>
   <i type="logical" name="LHFONE"> F  </i>
   <i type="logical" name="LRHFCALC"> F  </i>
   <i type="logical" name="LTHOMAS"> F  </i>
   <i type="logical" name="LMODELHF"> F  </i>
   <i name="ENCUT4O">     -1.00000000</i>
   <i type="int" name="EXXOEP">     0</i>
   <i type="int" name="FOURORBIT">     0</i>
   <i name="AEXX">      0.00000000</i>
   <i name="HFALPHA">      0.00000000</i>
   <i name="MCALPHA">      0.00000000</i>
   <i name="ALDAX">      1.00000000</i>
   <i name="AGGAX">      1.00000000</i>
   <i name="ALDAC">      1.00000000</i>
   <i name="AGGAC">      1.00000000</i>
   <i type="int" name="NKREDX">     1</i>
   <i type="int" name="NKREDY">     1</i>
   <i type="int" name="NKREDZ">     1</i>
   <i type="logical" name="SHIFTRED"> F  </i>
   <i type="logical" name="ODDONLY"> F  </i>
   <i type="logical" name="EVENONLY"> F  </i>
   <i type="int" name="LMAXFOCK">     0</i>
   <i type="int" name="NMAXFOCKAE">     0</i>
   <i type="logical" name="LFOCKAEDFT"> F  </i>
   <i name="HFSCREEN">      0.00000000</i>
   <i name="HFSCREENC">      0.00000000</i>
   <i type="int" name="NBANDSGWLOW">     0</i>
  </separator>
  <separator name="vdW DFT" >
   <i type="logical" name="LUSE_VDW"> F  </i>
   <i name="Zab_VDW">     -0.84910000</i>
   <i name="PARAM1">      0.12340000</i>
   <i name="PARAM2">      1.00000000</i>
   <i name="PARAM3">      0.00000000</i>
  </separator>
  <separator name="model GW" >
   <i type="int" name="MODEL_GW">     0</i>
   <i name="MODEL_EPS0">    135.00000000</i>
   <i name="MODEL_ALPHA">      1.00000000</i>
  </separator>
  <separator name="linear response parameters" >
   <i type="logical" name="LEPSILON"> F  </i>
   <i type="logical" name="LRPA"> F  </i>
   <i type="logical" name="LNABLA"> F  </i>
   <i type="logical" name="LVEL"> F  </i>
   <i type="int" name="KINTER">     0</i>
   <i name="CSHIFT">      0.10000000</i>
   <i name="OMEGAMAX">     -1.00000000</i>
   <i name="DEG_THRESHOLD">      0.00200000</i>
   <i name="RTIME">     -0.10000000</i>
   <i name="WPLASMAI">      0.00000000</i>
   <v name="DFIELD">      0.00000000      0.00000000      0.00000000</v>
   <v name="WPLASMA">      0.00000000      0.00000000      0.00000000      0.00000000      0.00000000      0.00000000      0.00000000      0.00000000      0.00000000</v>
  </separator>
  <separator name="orbital magnetization" >
   <i type="logical" name="NUCIND"> F  </i>
   <v name="MAGPOS">      0.00000000      0.00000000      0.00000000</v>
   <i type="logical" name="LNICSALL"> T  </i>
   <i type="logical" name="ORBITALMAG"> F  </i>
   <i type="logical" name="LMAGBLOCH"> F  </i>
   <i type="logical" name="LCHIMAG"> F  </i>
   <i type="logical" name="LGAUGE"> T  </i>
   <i type="int" name="MAGATOM">     0</i>
   <v name="MAGDIPOL">      0.00000000      0.00000000      0.00000000</v>
   <v name="AVECCONST">      0.00000000      0.00000000      0.00000000</v>
  </separator>
  <separator name="response functions" >
   <i type="logical" name="LADDER"> F  </i>
   <i type="logical" name="LRPAFORCE"> F  </i>
   <i type="logical" name="LFXC"> F  </i>
   <i type="logical" name="LHARTREE"> T  </i>
   <i type="int" name="IBSE">     0</i>
   <v type="int" name="KPOINT">    -1     0     0     0</v>
   <i type="logical" name="LTCTE"> F  </i>
   <i type="logical" name="LTETE"> F  </i>
   <i type="logical" name="LTRIPLET"> F  </i>
   <i type="logical" name="LFXCEPS"> F  </i>
   <i type="logical" name="LFXHEG"> F  </i>
   <i type="int" name="NATURALO">     2</i>
   <i type="logical" name="L2ORDER"> F  </i>
   <i type="logical" name="LMP2LT"> F  </i>
   <i type="logical" name="LUSEW"> F  </i>
   <i name="ENCUTGW">     -2.00000000</i>
   <i name="ENCUTGWSOFT">     -2.00000000</i>
   <i name="ENCUTLF">     -1.00000000</i>
   <i type="int" name="LMAXMP2">    -1</i>
   <i name="SCISSOR">      0.00000000</i>
   <i type="int" name="NOMEGA">     0</i>
   <i type="int" name="NOMEGAR">     0</i>
   <i type="int" name="NBANDSGW">    -1</i>
   <i type="int" name="NBANDSO">    -1</i>
   <i type="int" name="NBANDSV">    -1</i>
   <i type="int" name="NELM">   300</i>
   <i type="int" name="NELMHF">     1</i>
   <i type="int" name="DIM">     3</i>
   <i type="int" name="ANTIRES">     0</i>
   <i name="OMEGAMAX">    -30.00000000</i>
   <i name="OMEGAMIN">    -30.00000000</i>
   <i name="OMEGATL">   -200.00000000</i>
   <i type="int" name="OMEGAGRID">   140</i>
   <i name="CSHIFT">     -0.10000000</i>
   <i type="logical" name="SELFENERGY"> F  </i>
   <i type="logical" name="LSPECTRAL"> F  </i>
   <i type="logical" name="LSPECTRALGW"> F  </i>
   <i type="logical" name="LSINGLES"> F  </i>
   <i type="logical" name="LFERMIGW"> F  </i>
   <i type="logical" name="ODDONLYGW"> F  </i>
   <i type="logical" name="EVENONLYGW"> F  </i>
   <i type="int" name="NKREDLFX">     1</i>
   <i type="int" name="NKREDLFY">     1</i>
   <i type="int" name="NKREDLFZ">     1</i>
   <i type="int" name="MAXMEM">  2800</i>
   <i type="int" name="TELESCOPE">     0</i>
   <i type="int" name="TAUPAR">     1</i>
   <i type="int" name="OMEGAPAR">    -1</i>
   <i name="LAMBDA">      1.00000000</i>
  </separator>
  <separator name="External order field" >
   <i name="OFIELD_KAPPA">      0.00000000</i>
   <v name="OFIELD_K">      0.00000000      0.00000000      0.00000000</v>
   <i name="OFIELD_Q6_NEAR">      0.00000000</i>
   <i name="OFIELD_Q6_FAR">      0.00000000</i>
   <i name="OFIELD_A">      0.00000000</i>
  </separator>
 </parameters>
 <atominfo>
  <atoms>      15 </atoms>
  <types>       3 </types>
  <array name="atoms" >
   <dimension dim="1">ion</dimension>
   <field type="string">element</field>
   <field type="int">atomtype</field>
   <set>
    <rc><c>Cu</c><c>   1</c></rc>
    <rc><c>Cu</c><c>   1</c></rc>
    <rc><c>Cu</c><c>   1</c></rc>
    <rc><c>Cu</c><c>   1</c></rc>
    <rc><c>Cu</c><c>   1</c></rc>
    <rc><c>Cu</c><c>   1</c></rc>
    <rc><c>Cu</c><c>   1</c></rc>
    <rc><c>Cu</c><c>   1</c></rc>
    <rc><c>Cu</c><c>   1</c></rc>
    <rc><c>Cu</c><c>   1</c></rc>
    <rc><c>Cu</c><c>   1</c></rc>
    <rc><c>Cu</c><c>   1</c></rc>
    <rc><c>Cu</c><c>   1</c></rc>
    <rc><c>C </c><c>   2</c></rc>
    <rc><c>O </c><c>   3</c></rc>
   </set>
  </array>
  <array name="atomtypes" >
   <dimension dim="1">type</dimension>
   <field type="int">atomspertype</field>
   <field type="string">element</field>
   <field>mass</field>
   <field>valence</field>
   <field type="string">pseudopotential</field>
   <set>
    <rc><c>  13</c><c>Cu</c><c>     63.54600000</c><c>     11.00000000</c><c>  PAW_PBE Cu 22Jun2005                  </c></rc>
    <rc><c>   1</c><c>C </c><c>     12.01100000</c><c>      4.00000000</c><c>  PAW_PBE C 08Apr2002                   </c></rc>
    <rc><c>   1</c><c>O </c><c>     16.00000000</c><c>      6.00000000</c><c>  PAW_PBE O 08Apr2002                   </c></rc>
   </set>
  </array>
 </atominfo>
 <structure name="initialpos" >
  <crystal>
   <varray name="basis" >
    <v>      15.00000000       0.00000000       0.00000000 </v>
    <v>       0.00000000      15.00000000       0.00000000 </v>
    <v>       0.00000000       0.00000000      15.00000000 </v>
   </varray>
   <i name="volume">   3375.00000000 </i>
   <varray name="rec_basis" >
    <v>       0.06666667       0.00000000       0.00000000 </v>
    <v>       0.00000000       0.06666667       0.00000000 </v>
    <v>       0.00000000       0.00000000       0.06666667 </v>
   </varray>
  </crystal>
  <varray name="positions" >
   <v>       0.29071000       0.42034467       0.55266200 </v>
   <v>       0.37709667       0.54736667       0.48811867 </v>
   <v>       0.39797600       0.29317600       0.56654800 </v>
   <v>       0.53275600       0.50533000       0.48212467 </v>
   <v>       0.54935733       0.34506133       0.53197467 </v>
   <v>       0.44844733       0.43723000       0.61522533 </v>
   <v>       0.41874733       0.39895933       0.44896467 </v>
   <v>       0.22674667       0.56747533       0.54553267 </v>
   <v>       0.33166400       0.54644467       0.65435933 </v>
   <v>       0.35414867       0.68667333       0.56695667 </v>
   <v>       0.48668467       0.66724667       0.47660867 </v>
   <v>       0.61995800       0.48211600       0.61051400 </v>
   <v>       0.48433400       0.59068400       0.61827000 </v>
   <v>       0.73648667       0.49275933       0.64639933 </v>
   <v>       0.81276000       0.48861333       0.63801067 </v>
  </varray>
 </structure>
 <calculation>
  <scstep>
   <time name="dav">    7.49    7.50</time>
   <time name="total">    8.70    8.71</time>
   <energy>
    <i name="alphaZ">     41.16232785 </i>
    <i name="ewald">  16479.53814308 </i>
    <i name="hartreedc"> -33500.49311531 </i>
    <i name="XCdc">    623.55908677 </i>
    <i name="pawpsdc">  16421.75059358 </i>
    <i name="pawaedc"> -17800.06104309 </i>
    <i name="eentropy">      0.00958728 </i>
    <i name="bandstr">    191.78752711 </i>
    <i name="atom">  18662.21924712 </i>
    <i name="e_fr_energy">   1119.47235438 </i>
    <i name="e_wo_entrp">   1119.46276711 </i>
    <i name="e_0_energy">   1119.46915863 </i>
   </energy>
  </scstep>
  <scstep>
   <time name="dav">    7.34    7.35</time>
   <time name="total">    7.34    7.35</time>
   <energy>
    <i name="e_fr_energy">     87.56655410 </i>
    <i name="e_wo_entrp">     87.56009850 </i>
    <i name="e_0_energy">     87.56440223 </i>
   </energy>
  </scstep>
  <scstep>
   <time name="dav">   11.67   11.69</time>
   <time name="total">   11.67   11.69</time>
   <energy>
    <i name="e_fr_energy">    -33.54860855 </i>
    <i name="e_wo_entrp">    -33.56284468 </i>
    <i name="e_0_energy">    -33.55335393 </i>
   </energy>
  </scstep>
  <scstep>
   <time name="dav">   10.08   10.09</time>
   <time name="total">   10.08   10.09</time>
   <energy>
    <i name="e_fr_energy">    -55.87269448 </i>
    <i name="e_wo_entrp">    -55.88166012 </i>
    <i name="e_0_energy">    -55.87568303 </i>
   </energy>
  </scstep>
  <scstep>
   <time name="dav">   11.82   11.84</time>
   <time name="total">   12.53   12.54</time>
   <energy>
    <i name="e_fr_energy">    -57.53197703 </i>
    <i name="e_wo_entrp">    -57.54097793 </i>
    <i name="e_0_energy">    -57.53497733 </i>
   </energy>
  </scstep>
  <scstep>
   <time name="diag">    1.11    1.11</time>
   <time name="diis">    7.22    7.23</time>
   <time name="orth">    0.06    0.06</time>
   <time name="total">   10.27   10.28</time>
   <energy>
    <i name="e_fr_energy">    -56.48487461 </i>
    <i name="e_wo_entrp">    -56.49422481 </i>
    <i name="e_0_energy">    -56.48799135 </i>
   </energy>
  </scstep>
  <scstep>
   <time name="diag">    1.11    1.11</time>
   <time name="diis">    6.51    6.51</time>
   <time name="orth">    0.06    0.06</time>
   <time name="total">    9.56    9.56</time>
   <energy>
    <i name="e_fr_energy">    -49.36138694 </i>
    <i name="e_wo_entrp">    -49.37073711 </i>
    <i name="e_0_energy">    -49.36450366 </i>
   </energy>
  </scstep>
  <scstep>
   <time name="diag">    1.11    1.11</time>
   <time name="diis">    6.96    6.96</time>
   <time name="orth">    0.06    0.06</time>
   <time name="total">   10.01   10.02</time>
   <energy>
    <i name="e_fr_energy">    -49.10404577 </i>
    <i name="e_wo_entrp">    -49.11310617 </i>
    <i name="e_0_energy">    -49.10706590 </i>
   </energy>
  </scstep>
  <scstep>
   <time name="diag">    1.11    1.12</time>
   <time name="diis">    6.74    6.77</time>
   <time name="orth">    0.06    0.06</time>
   <time name="total">    9.79    9.82</time>
   <energy>
    <i name="e_fr_energy">    -49.06859073 </i>
    <i name="e_wo_entrp">    -49.07761387 </i>
    <i name="e_0_energy">    -49.07159844 </i>
   </energy>
  </scstep>
  <scstep>
   <time name="diag">    1.11    1.11</time>
   <time name="diis">    7.00    7.01</time>
   <time name="orth">    0.06    0.06</time>
   <time name="total">   10.06   10.07</time>
   <energy>
    <i name="e_fr_energy">    -49.01192485 </i>
    <i name="e_wo_entrp">    -49.02089160 </i>
    <i name="e_0_energy">    -49.01491377 </i>
   </energy>
  </scstep>
  <scstep>
   <time name="diag">    1.11    1.11</time>
   <time name="diis">    7.11    7.12</time>
   <time name="orth">    0.06    0.06</time>
   <time name="total">   10.16   10.18</time>
   <energy>
    <i name="e_fr_energy">    -49.00368910 </i>
    <i name="e_wo_entrp">    -49.01264131 </i>
    <i name="e_0_energy">    -49.00667317 </i>
   </energy>
  </scstep>
  <scstep>
   <time name="diag">    1.11    1.11</time>
   <time name="diis">    6.96    6.97</time>
   <time name="orth">    0.06    0.06</time>
   <time name="total">   10.02   10.03</time>
   <energy>
    <i name="e_fr_energy">    -49.00113418 </i>
    <i name="e_wo_entrp">    -49.01007048 </i>
    <i name="e_0_energy">    -49.00411295 </i>
   </energy>
  </scstep>
  <scstep>
   <time name="diag">    1.11    1.12</time>
   <time name="diis">    6.88    6.89</time>
   <time name="orth">    0.06    0.06</time>
   <time name="total">    9.95    9.96</time>
   <energy>
    <i name="e_fr_energy">    -49.00024729 </i>
    <i name="e_wo_entrp">    -49.00917632 </i>
    <i name="e_0_energy">    -49.00322363 </i>
   </energy>
  </scstep>
  <scstep>
   <time name="diag">    1.12    1.12</time>
   <time name="diis">    7.23    7.24</time>
   <time name="orth">    0.06    0.06</time>
   <time name="total">   10.30   10.31</time>
   <energy>
    <i name="e_fr_energy">    -49.00135470 </i>
    <i name="e_wo_entrp">    -49.01026299 </i>
    <i name="e_0_energy">    -49.00432413 </i>
   </energy>
  </scstep>
  <scstep>
   <time name="diag">    1.11    1.12</time>
   <time name="diis">    6.47    6.48</time>
   <time name="orth">    0.06    0.06</time>
   <time name="total">    9.54    9.55</time>
   <energy>
    <i name="e_fr_energy">    -49.00254655 </i>
    <i name="e_wo_entrp">    -49.01145887 </i>
    <i name="e_0_energy">    -49.00551733 </i>
   </energy>
  </scstep>
  <scstep>
   <time name="diag">    1.11    1.11</time>
   <time name="diis">    6.50    6.50</time>
   <time name="orth">    0.06    0.06</time>
   <time name="total">    9.57    9.58</time>
   <energy>
    <i name="e_fr_energy">    -49.00387938 </i>
    <i name="e_wo_entrp">    -49.01279031 </i>
    <i name="e_0_energy">    -49.00684969 </i>
   </energy>
  </scstep>
  <scstep>
   <time name="diag">    1.11    1.11</time>
   <time name="diis">    6.82    6.83</time>
   <time name="orth">    0.06    0.06</time>
   <time name="total">    9.88    9.89</time>
   <energy>
    <i name="e_fr_energy">    -49.00569024 </i>
    <i name="e_wo_entrp">    -49.01460484 </i>
    <i name="e_0_energy">    -49.00866177 </i>
   </energy>
  </scstep>
  <scstep>
   <time name="diag">    1.11    1.11</time>
   <time name="diis">    6.92    6.92</time>
   <time name="orth">    0.06    0.06</time>
   <time name="total">    9.99    9.99</time>
   <energy>
    <i name="e_fr_energy">    -49.00654938 </i>
    <i name="e_wo_entrp">    -49.01546061 </i>
    <i name="e_0_energy">    -49.00951979 </i>
   </energy>
  </scstep>
  <scstep>
   <time name="diag">    1.11    1.11</time>
   <time name="diis">    7.31    7.32</time>
   <time name="orth">    0.06    0.06</time>
   <time name="total">   10.38   10.39</time>
   <energy>
    <i name="e_fr_energy">    -49.00725072 </i>
    <i name="e_wo_entrp">    -49.01616096 </i>
    <i name="e_0_energy">    -49.01022080 </i>
   </energy>
  </scstep>
  <scstep>
   <time name="diag">    1.11    1.11</time>
   <time name="diis">    6.79    6.80</time>
   <time name="orth">    0.06    0.06</time>
   <time name="total">    9.87    9.88</time>
   <energy>
    <i name="e_fr_energy">    -49.00783878 </i>
    <i name="e_wo_entrp">    -49.01674948 </i>
    <i name="e_0_energy">    -49.01080901 </i>
   </energy>
  </scstep>
  <scstep>
   <time name="diag">    1.11    1.11</time>
   <time name="diis">    7.26    7.27</time>
   <time name="orth">    0.06    0.06</time>
   <time name="total">   10.34   10.35</time>
   <energy>
    <i name="e_fr_energy">    -49.00822067 </i>
    <i name="e_wo_entrp">    -49.01713270 </i>
    <i name="e_0_energy">    -49.01119135 </i>
   </energy>
  </scstep>
  <scstep>
   <time name="diag">    1.11    1.11</time>
   <time name="diis">    6.79    6.79</time>
   <time name="orth">    0.06    0.06</time>
   <time name="total">    9.87    9.87</time>
   <energy>
    <i name="e_fr_energy">    -49.00847439 </i>
    <i name="e_wo_entrp">    -49.01738606 </i>
    <i name="e_0_energy">    -49.01144495 </i>
   </energy>
  </scstep>
  <scstep>
   <time name="diag">    1.11    1.11</time>
   <time name="diis">    6.68    6.68</time>
   <time name="orth">    0.06    0.06</time>
   <time name="total">    9.76    9.77</time>
   <energy>
    <i name="e_fr_energy">    -49.00860297 </i>
    <i name="e_wo_entrp">    -49.01751445 </i>
    <i name="e_0_energy">    -49.01157346 </i>
   </energy>
  </scstep>
  <scstep>
   <time name="diag">    1.12    1.12</time>
   <time name="diis">    6.68    6.68</time>
   <time name="orth">    0.06    0.06</time>
   <time name="total">    9.76    9.77</time>
   <energy>
    <i name="e_fr_energy">    -49.00870470 </i>
    <i name="e_wo_entrp">    -49.01761626 </i>
    <i name="e_0_energy">    -49.01167522 </i>
   </energy>
  </scstep>
  <scstep>
   <time name="diag">    1.11    1.11</time>
   <time name="diis">    6.42    6.42</time>
   <time name="orth">    0.06    0.06</time>
   <time name="total">    9.50    9.51</time>
   <energy>
    <i name="e_fr_energy">    -49.00876468 </i>
    <i name="e_wo_entrp">    -49.01767638 </i>
    <i name="e_0_energy">    -49.01173525 </i>
   </energy>
  </scstep>
  <scstep>
   <time name="diag">    1.11    1.11</time>
   <time name="diis">    6.33    6.33</time>
   <time name="orth">    0.06    0.06</time>
   <time name="total">    9.42    9.42</time>
   <energy>
    <i name="e_fr_energy">    -49.00879888 </i>
    <i name="e_wo_entrp">    -49.01771056 </i>
    <i name="e_0_energy">    -49.01176944 </i>
   </energy>
  </scstep>
  <scstep>
   <time name="diag">    1.11    1.11</time>
   <time name="diis">    4.92    4.93</time>
   <time name="orth">    0.06    0.06</time>
   <time name="total">    8.01    8.01</time>
   <energy>
    <i name="e_fr_energy">    -49.00881161 </i>
    <i name="e_wo_entrp">    -49.01772319 </i>
    <i name="e_0_energy">    -49.01178214 </i>
   </energy>
  </scstep>
  <scstep>
   <time name="diag">    1.11    1.11</time>
   <time name="diis">    4.34    4.34</time>
   <time name="orth">    0.06    0.06</time>
   <time name="total">    7.43    7.43</time>
   <energy>
    <i name="e_fr_energy">    -49.00881662 </i>
    <i name="e_wo_entrp">    -49.01772824 </i>
    <i name="e_0_energy">    -49.01178716 </i>
   </energy>
  </scstep>
  <scstep>
   <time name="diag">    1.11    1.11</time>
   <time name="diis">    4.57    4.57</time>
   <time name="orth">    0.06    0.06</time>
   <time name="total">    7.67    7.68</time>
   <energy>
    <i name="e_fr_energy">    -49.00882028 </i>
    <i name="e_wo_entrp">    -49.01773194 </i>
    <i name="e_0_energy">    -49.01179083 </i>
   </energy>
  </scstep>
  <scstep>
   <time name="diag">    1.11    1.11</time>
   <time name="diis">    4.63    4.63</time>
   <time name="orth">    0.06    0.06</time>
   <time name="total">    7.73    7.73</time>
   <energy>
    <i name="e_fr_energy">    -49.00882164 </i>
    <i name="e_wo_entrp">    -49.01773332 </i>
    <i name="e_0_energy">    -49.01179220 </i>
   </energy>
  </scstep>
  <scstep>
   <time name="diag">    1.11    1.11</time>
   <time name="diis">    4.44    4.45</time>
   <time name="orth">    0.06    0.06</time>
   <time name="total">    7.54    7.55</time>
   <energy>
    <i name="e_fr_energy">    -49.00882248 </i>
    <i name="e_wo_entrp">    -49.01773417 </i>
    <i name="e_0_energy">    -49.01179304 </i>
   </energy>
  </scstep>
  <scstep>
   <time name="diag">    1.11    1.11</time>
   <time name="diis">    4.31    4.31</time>
   <time name="orth">    0.06    0.06</time>
   <time name="total">    7.43    7.44</time>
   <energy>
    <i name="e_fr_energy">    -49.00882328 </i>
    <i name="e_wo_entrp">    -49.01773494 </i>
    <i name="e_0_energy">    -49.01179383 </i>
   </energy>
  </scstep>
  <scstep>
   <time name="diag">    1.11    1.11</time>
   <time name="diis">    4.07    4.07</time>
   <time name="orth">    0.06    0.06</time>
   <time name="total">    7.18    7.19</time>
   <energy>
    <i name="e_fr_energy">    -49.00882372 </i>
    <i name="e_wo_entrp">    -49.01773538 </i>
    <i name="e_0_energy">    -49.01179427 </i>
   </energy>
  </scstep>
  <scstep>
   <time name="diag">    1.11    1.11</time>
   <time name="diis">    4.33    4.34</time>
   <time name="orth">    0.06    0.06</time>
   <time name="total">    7.45    7.46</time>
   <energy>
    <i name="e_fr_energy">    -49.00882413 </i>
    <i name="e_wo_entrp">    -49.01773579 </i>
    <i name="e_0_energy">    -49.01179468 </i>
   </energy>
  </scstep>
  <scstep>
   <time name="diag">    1.10    1.10</time>
   <time name="diis">    3.85    3.86</time>
   <time name="orth">    0.06    0.06</time>
   <time name="total">    6.97    6.98</time>
   <energy>
    <i name="e_fr_energy">    -49.00882433 </i>
    <i name="e_wo_entrp">    -49.01773599 </i>
    <i name="e_0_energy">    -49.01179488 </i>
   </energy>
  </scstep>
  <scstep>
   <time name="diag">    1.10    1.11</time>
   <time name="diis">    3.52    3.52</time>
   <time name="orth">    0.06    0.06</time>
   <time name="total">    6.65    6.66</time>
   <energy>
    <i name="e_fr_energy">    -49.00882449 </i>
    <i name="e_wo_entrp">    -49.01773616 </i>
    <i name="e_0_energy">    -49.01179505 </i>
   </energy>
  </scstep>
  <scstep>
   <time name="diag">    1.10    1.11</time>
   <time name="diis">    3.58    3.58</time>
   <time name="orth">    0.06    0.06</time>
   <time name="total">    5.94    5.95</time>
   <energy>
    <i name="alphaZ">     41.16232785 </i>
    <i name="ewald">  16479.53814308 </i>
    <i name="hartreedc"> -33458.67281175 </i>
    <i name="XCdc">    615.60501798 </i>
    <i name="pawpsdc">  17663.32688948 </i>
    <i name="pawaedc"> -19061.96490203 </i>
    <i name="eentropy">      0.00891166 </i>
    <i name="bandstr">   -990.23164797 </i>
    <i name="atom">  18662.21924712 </i>
    <i name="e_fr_energy">    -49.00882458 </i>
    <i name="e_wo_entrp">    -49.01773625 </i>
    <i name="e_0_energy">    -49.01179514 </i>
   </energy>
  </scstep>
  <structure>
   <crystal>
    <varray name="basis" >
     <v>      15.00000000       0.00000000       0.00000000 </v>
     <v>       0.00000000      15.00000000       0.00000000 </v>
     <v>       0.00000000       0.00000000      15.00000000 </v>
    </varray>
    <i name="volume">   3375.00000000 </i>
    <varray name="rec_basis" >
     <v>       0.06666667       0.00000000       0.00000000 </v>
     <v>       0.00000000       0.06666667       0.00000000 </v>
     <v>       0.00000000       0.00000000       0.06666667 </v>
    </varray>
   </crystal>
   <varray name="positions" >
    <v>       0.29071000       0.42034467       0.55266200 </v>
    <v>       0.37709667       0.54736667       0.48811867 </v>
    <v>       0.39797600       0.29317600       0.56654800 </v>
    <v>       0.53275600       0.50533000       0.48212467 </v>
    <v>       0.54935733       0.34506133       0.53197467 </v>
    <v>       0.44844733       0.43723000       0.61522533 </v>
    <v>       0.41874733       0.39895933       0.44896467 </v>
    <v>       0.22674667       0.56747533       0.54553267 </v>
    <v>       0.33166400       0.54644467       0.65435933 </v>
    <v>       0.35414867       0.68667333       0.56695667 </v>
    <v>       0.48668467       0.66724667       0.47660867 </v>
    <v>       0.61995800       0.48211600       0.61051400 </v>
    <v>       0.48433400       0.59068400       0.61827000 </v>
    <v>       0.73648667       0.49275933       0.64639933 </v>
    <v>       0.81276000       0.48861333       0.63801067 </v>
   </varray>
  </structure>
  <varray name="forces" >
   <v>       0.27909383      -0.14030020       0.08358270 </v>
   <v>      -0.21982612       0.25713380       0.20943997 </v>
   <v>      -0.15867514      -0.11136634       0.05538329 </v>
   <v>       0.10564148       0.14000140      -0.01556314 </v>
   <v>       0.14174328       0.27391289      -0.00869767 </v>
   <v>       0.06349820      -0.15650390      -0.20128553 </v>
   <v>      -0.08460172      -0.24355225       0.11795347 </v>
   <v>      -0.29104987       0.34927100      -0.29090610 </v>
   <v>       0.47124664      -0.02759269      -0.00239038 </v>
   <v>      -0.14182723      -0.28510910       0.08338784 </v>
   <v>       0.09280894      -0.12360652       0.11154351 </v>
   <v>      -0.30791321      -0.05758397       0.15124465 </v>
   <v>       0.03388669       0.22705973      -0.25161006 </v>
   <v>      -0.50906028      -0.20917641      -0.13140226 </v>
   <v>       0.52503449       0.10741257       0.08931971 </v>
  </varray>
  <varray name="stress" >
   <v>       0.11902306      -0.13492022       0.26126915 </v>
   <v>      -0.13492022       0.00148371      -0.12213466 </v>
   <v>       0.26126916      -0.12213467      -0.43774739 </v>
  </varray>
  <energy>
   <i name="e_fr_energy">    -49.00882458 </i>
   <i name="e_wo_entrp">    -49.01179514 </i>
   <i name="e_0_energy">      0.00891166 </i>
  </energy>
  <time name="totalsc">  349.39  349.73</time>
  <eigenvalues>
   <array>
    <dimension dim="1">band</dimension>
    <dimension dim="2">kpoint</dimension>
    <dimension dim="3">spin</dimension>
    <field>eigene</field>
    <field>occ</field>
    <set>
     <set comment="spin 1">
      <set comment="kpoint 1">
       <r>  -28.4699    1.0000 </r>
       <r>  -13.7737    1.0000 </r>
       <r>  -11.3558    1.0000 </r>
       <r>  -11.1281    1.0000 </r>
       <r>  -10.8360    1.0000 </r>
       <r>  -10.1499    1.0000 </r>
       <r>   -8.6177    1.0000 </r>
       <r>   -8.2145    1.0000 </r>
       <r>   -7.7250    1.0000 </r>
       <r>   -7.5069    1.0000 </r>
       <r>   -7.4462    1.0000 </r>
       <r>   -7.3315    1.0000 </r>
       <r>   -7.2923    1.0000 </r>
       <r>   -7.1398    1.0000 </r>
       <r>   -7.0307    1.0000 </r>
       <r>   -6.9483    1.0000 </r>
       <r>   -6.8118    1.0000 </r>
       <r>   -6.7776    1.0000 </r>
       <r>   -6.7345    1.0000 </r>
       <r>   -6.6342    1.0000 </r>
       <r>   -6.6110    1.0000 </r>
       <r>   -6.5646    1.0000 </r>
       <r>   -6.5074    1.0000 </r>
       <r>   -6.4677    1.0000 </r>
       <r>   -6.4382    1.0000 </r>
       <r>   -6.4094    1.0000 </r>
       <r>   -6.3500    1.0000 </r>
       <r>   -6.2676    1.0000 </r>
       <r>   -6.2603    1.0000 </r>
       <r>   -6.2592    1.0000 </r>
       <r>   -6.1803    1.0000 </r>
       <r>   -6.1506    1.0000 </r>
       <r>   -6.0808    1.0000 </r>
       <r>   -6.0415    1.0000 </r>
       <r>   -5.9193    1.0000 </r>
       <r>   -5.8507    1.0000 </r>
       <r>   -5.8279    1.0000 </r>
       <r>   -5.6964    1.0000 </r>
       <r>   -5.6817    1.0000 </r>
       <r>   -5.6578    1.0000 </r>
       <r>   -5.6103    1.0000 </r>
       <r>   -5.5647    1.0000 </r>
       <r>   -5.5347    1.0000 </r>
       <r>   -5.4815    1.0000 </r>
       <r>   -5.4690    1.0000 </r>
       <r>   -5.4340    1.0000 </r>
       <r>   -5.3825    1.0000 </r>
       <r>   -5.3705    1.0000 </r>
       <r>   -5.3644    1.0000 </r>
       <r>   -5.3383    1.0000 </r>
       <r>   -5.3265    1.0000 </r>
       <r>   -5.2743    1.0000 </r>
       <r>   -5.2613    1.0000 </r>
       <r>   -5.2561    1.0000 </r>
       <r>   -5.2048    1.0000 </r>
       <r>   -5.1892    1.0000 </r>
       <r>   -5.1719    1.0000 </r>
       <r>   -5.1518    1.0000 </r>
       <r>   -5.1214    1.0000 </r>
       <r>   -5.0942    1.0000 </r>
       <r>   -5.0655    1.0000 </r>
       <r>   -5.0212    1.0000 </r>
       <r>   -5.0079    1.0000 </r>
       <r>   -4.9971    1.0000 </r>
       <r>   -4.9466    1.0000 </r>
       <r>   -4.9348    1.0000 </r>
       <r>   -4.9101    1.0000 </r>
       <r>   -4.8777    1.0000 </r>
       <r>   -4.8678    1.0000 </r>
       <r>   -4.8353    1.0000 </r>
       <r>   -4.8145    1.0000 </r>
       <r>   -4.7758    1.0000 </r>
       <r>   -4.7327    1.0000 </r>
       <r>   -4.5454    1.0000 </r>
       <r>   -4.2004    1.0000 </r>
       <r>   -4.1583    1.0000 </r>
       <r>   -3.5250    1.0000 </r>
       <r>   -3.0169   -0.0000 </r>
       <r>   -2.8407   -0.0000 </r>
       <r>   -2.5388   -0.0000 </r>
       <r>   -2.3275   -0.0000 </r>
       <r>   -1.9943   -0.0000 </r>
       <r>   -1.8971   -0.0000 </r>
       <r>   -1.7498   -0.0000 </r>
       <r>   -1.3384   -0.0000 </r>
       <r>   -1.0273   -0.0000 </r>
       <r>   -0.9430   -0.0000 </r>
       <r>   -0.6928    0.0000 </r>
       <r>   -0.4158    0.0000 </r>
       <r>   -0.1583    0.0000 </r>
       <r>    0.1308    0.0000 </r>
       <r>    0.3126    0.0000 </r>
      </set>
     </set>
     <set comment="spin 2">
      <set comment="kpoint 1">
       <r>  -28.4456    1.0000 </r>
       <r>  -13.7311    1.0000 </r>
       <r>  -11.3208    1.0000 </r>
       <r>  -11.0967    1.0000 </r>
       <r>  -10.7737    1.0000 </r>
       <r>  -10.1076    1.0000 </r>
       <r>   -8.5953    1.0000 </r>
       <r>   -8.1655    1.0000 </r>
       <r>   -7.6824    1.0000 </r>
       <r>   -7.4859    1.0000 </r>
       <r>   -7.4214    1.0000 </r>
       <r>   -7.2832    1.0000 </r>
       <r>   -7.2559    1.0000 </r>
       <r>   -7.1132    1.0000 </r>
       <r>   -7.0026    1.0000 </r>
       <r>   -6.9144    1.0000 </r>
       <r>   -6.7788    1.0000 </r>
       <r>   -6.7554    1.0000 </r>
       <r>   -6.7019    1.0000 </r>
       <r>   -6.6123    1.0000 </r>
       <r>   -6.5935    1.0000 </r>
       <r>   -6.5424    1.0000 </r>
       <r>   -6.4814    1.0000 </r>
       <r>   -6.4441    1.0000 </r>
       <r>   -6.4136    1.0000 </r>
       <r>   -6.3823    1.0000 </r>
       <r>   -6.3227    1.0000 </r>
       <r>   -6.2454    1.0000 </r>
       <r>   -6.2393    1.0000 </r>
       <r>   -6.2312    1.0000 </r>
       <r>   -6.1545    1.0000 </r>
       <r>   -6.1184    1.0000 </r>
       <r>   -6.0539    1.0000 </r>
       <r>   -6.0243    1.0000 </r>
       <r>   -5.8965    1.0000 </r>
       <r>   -5.8266    1.0000 </r>
       <r>   -5.7968    1.0000 </r>
       <r>   -5.6771    1.0000 </r>
       <r>   -5.6566    1.0000 </r>
       <r>   -5.6327    1.0000 </r>
       <r>   -5.5867    1.0000 </r>
       <r>   -5.5412    1.0000 </r>
       <r>   -5.5053    1.0000 </r>
       <r>   -5.4562    1.0000 </r>
       <r>   -5.4479    1.0000 </r>
       <r>   -5.3961    1.0000 </r>
       <r>   -5.3606    1.0000 </r>
       <r>   -5.3438    1.0000 </r>
       <r>   -5.3396    1.0000 </r>
       <r>   -5.3139    1.0000 </r>
       <r>   -5.2986    1.0000 </r>
       <r>   -5.2525    1.0000 </r>
       <r>   -5.2349    1.0000 </r>
       <r>   -5.2295    1.0000 </r>
       <r>   -5.1766    1.0000 </r>
       <r>   -5.1663    1.0000 </r>
       <r>   -5.1503    1.0000 </r>
       <r>   -5.1372    1.0000 </r>
       <r>   -5.0961    1.0000 </r>
       <r>   -5.0658    1.0000 </r>
       <r>   -5.0395    1.0000 </r>
       <r>   -5.0040    1.0000 </r>
       <r>   -4.9877    1.0000 </r>
       <r>   -4.9640    1.0000 </r>
       <r>   -4.9250    1.0000 </r>
       <r>   -4.9062    1.0000 </r>
       <r>   -4.8892    1.0000 </r>
       <r>   -4.8427    1.0000 </r>
       <r>   -4.8313    1.0000 </r>
       <r>   -4.8044    1.0000 </r>
       <r>   -4.7774    1.0000 </r>
       <r>   -4.7509    1.0000 </r>
       <r>   -4.7056    1.0000 </r>
       <r>   -4.5013    1.0000 </r>
       <r>   -4.1410    1.0214 </r>
       <r>   -4.1202    0.9786 </r>
       <r>   -3.3137   -0.0000 </r>
       <r>   -2.9650   -0.0000 </r>
       <r>   -2.7864   -0.0000 </r>
       <r>   -2.4687   -0.0000 </r>
       <r>   -2.2275   -0.0000 </r>
       <r>   -1.9668   -0.0000 </r>
       <r>   -1.8224   -0.0000 </r>
       <r>   -1.6748   -0.0000 </r>
       <r>   -1.2140    0.0000 </r>
       <r>   -0.9560    0.0000 </r>
       <r>   -0.8186    0.0000 </r>
       <r>   -0.6123    0.0000 </r>
       <r>   -0.3232    0.0000 </r>
       <r>   -0.2467    0.0000 </r>
       <r>   -0.0468    0.0000 </r>
       <r>    0.1784    0.0000 </r>
      </set>
     </set>
    </set>
   </array>
  </eigenvalues>
  <separator name="orbital magnetization" >
   <v name="MAGDIPOLOUT">      0.00000000      0.00000000      0.00000000</v>
  </separator>
  <dos>
   <i name="efermi">     -4.04431020 </i>
   <total>
    <array>
     <dimension dim="1">gridpoints</dimension>
     <dimension dim="2">spin</dimension>
     <field>energy</field>
     <field>total</field>
     <field>integrated</field>
     <set>
      <set comment="spin 1">
       <r>   -29.9090     0.0000     0.0000 </r>
       <r>   -29.8035     0.0000     0.0000 </r>
       <r>   -29.6980     0.0000     0.0000 </r>
       <r>   -29.5924     0.0000     0.0000 </r>
       <r>   -29.4869     0.0000     0.0000 </r>
       <r>   -29.3814     0.0000     0.0000 </r>
       <r>   -29.2758    -0.0000    -0.0000 </r>
       <r>   -29.1703    -0.0000    -0.0000 </r>
       <r>   -29.0648    -0.0000    -0.0000 </r>
       <r>   -28.9592    -0.0000    -0.0000 </r>
       <r>   -28.8537    -0.0000    -0.0000 </r>
       <r>   -28.7482    -0.0057    -0.0006 </r>
       <r>   -28.6426    -0.3239    -0.0348 </r>
       <r>   -28.5371     1.2854     0.1009 </r>
       <r>   -28.4315    14.2006     1.5995 </r>
       <r>   -28.3260     4.3679     2.0605 </r>
       <r>   -28.2205    -0.5509     2.0024 </r>
       <r>   -28.1149    -0.0224     2.0000 </r>
       <r>   -28.0094    -0.0001     2.0000 </r>
       <r>   -27.9039    -0.0000     2.0000 </r>
       <r>   -27.7983    -0.0000     2.0000 </r>
       <r>   -27.6928     0.0000     2.0000 </r>
       <r>   -27.5873     0.0000     2.0000 </r>
       <r>   -27.4817     0.0000     2.0000 </r>
       <r>   -27.3762     0.0000     2.0000 </r>
       <r>   -27.2707     0.0000     2.0000 </r>
       <r>   -27.1651     0.0000     2.0000 </r>
       <r>   -27.0596     0.0000     2.0000 </r>
       <r>   -26.9540     0.0000     2.0000 </r>
       <r>   -26.8485     0.0000     2.0000 </r>
       <r>   -26.7430     0.0000     2.0000 </r>
       <r>   -26.6374     0.0000     2.0000 </r>
       <r>   -26.5319     0.0000     2.0000 </r>
       <r>   -26.4264     0.0000     2.0000 </r>
       <r>   -26.3208     0.0000     2.0000 </r>
       <r>   -26.2153     0.0000     2.0000 </r>
       <r>   -26.1098     0.0000     2.0000 </r>
       <r>   -26.0042     0.0000     2.0000 </r>
       <r>   -25.8987     0.0000     2.0000 </r>
       <r>   -25.7931     0.0000     2.0000 </r>
       <r>   -25.6876     0.0000     2.0000 </r>
       <r>   -25.5821     0.0000     2.0000 </r>
       <r>   -25.4765     0.0000     2.0000 </r>
       <r>   -25.3710     0.0000     2.0000 </r>
       <r>   -25.2655     0.0000     2.0000 </r>
       <r>   -25.1599     0.0000     2.0000 </r>
       <r>   -25.0544     0.0000     2.0000 </r>
       <r>   -24.9489     0.0000     2.0000 </r>
       <r>   -24.8433     0.0000     2.0000 </r>
       <r>   -24.7378     0.0000     2.0000 </r>
       <r>   -24.6323     0.0000     2.0000 </r>
       <r>   -24.5267     0.0000     2.0000 </r>
       <r>   -24.4212     0.0000     2.0000 </r>
       <r>   -24.3156     0.0000     2.0000 </r>
       <r>   -24.2101     0.0000     2.0000 </r>
       <r>   -24.1046     0.0000     2.0000 </r>
       <r>   -23.9990     0.0000     2.0000 </r>
       <r>   -23.8935     0.0000     2.0000 </r>
       <r>   -23.7880     0.0000     2.0000 </r>
       <r>   -23.6824     0.0000     2.0000 </r>
       <r>   -23.5769     0.0000     2.0000 </r>
       <r>   -23.4714     0.0000     2.0000 </r>
       <r>   -23.3658     0.0000     2.0000 </r>
       <r>   -23.2603     0.0000     2.0000 </r>
       <r>   -23.1548     0.0000     2.0000 </r>
       <r>   -23.0492     0.0000     2.0000 </r>
       <r>   -22.9437     0.0000     2.0000 </r>
       <r>   -22.8381     0.0000     2.0000 </r>
       <r>   -22.7326     0.0000     2.0000 </r>
       <r>   -22.6271     0.0000     2.0000 </r>
       <r>   -22.5215     0.0000     2.0000 </r>
       <r>   -22.4160     0.0000     2.0000 </r>
       <r>   -22.3105     0.0000     2.0000 </r>
       <r>   -22.2049     0.0000     2.0000 </r>
       <r>   -22.0994     0.0000     2.0000 </r>
       <r>   -21.9939     0.0000     2.0000 </r>
       <r>   -21.8883     0.0000     2.0000 </r>
       <r>   -21.7828     0.0000     2.0000 </r>
       <r>   -21.6773     0.0000     2.0000 </r>
       <r>   -21.5717     0.0000     2.0000 </r>
       <r>   -21.4662     0.0000     2.0000 </r>
       <r>   -21.3606     0.0000     2.0000 </r>
       <r>   -21.2551     0.0000     2.0000 </r>
       <r>   -21.1496     0.0000     2.0000 </r>
       <r>   -21.0440     0.0000     2.0000 </r>
       <r>   -20.9385     0.0000     2.0000 </r>
       <r>   -20.8330     0.0000     2.0000 </r>
       <r>   -20.7274     0.0000     2.0000 </r>
       <r>   -20.6219     0.0000     2.0000 </r>
       <r>   -20.5164     0.0000     2.0000 </r>
       <r>   -20.4108     0.0000     2.0000 </r>
       <r>   -20.3053     0.0000     2.0000 </r>
       <r>   -20.1997     0.0000     2.0000 </r>
       <r>   -20.0942     0.0000     2.0000 </r>
       <r>   -19.9887     0.0000     2.0000 </r>
       <r>   -19.8831     0.0000     2.0000 </r>
       <r>   -19.7776     0.0000     2.0000 </r>
       <r>   -19.6721     0.0000     2.0000 </r>
       <r>   -19.5665     0.0000     2.0000 </r>
       <r>   -19.4610     0.0000     2.0000 </r>
       <r>   -19.3555     0.0000     2.0000 </r>
       <r>   -19.2499     0.0000     2.0000 </r>
       <r>   -19.1444     0.0000     2.0000 </r>
       <r>   -19.0389     0.0000     2.0000 </r>
       <r>   -18.9333     0.0000     2.0000 </r>
       <r>   -18.8278     0.0000     2.0000 </r>
       <r>   -18.7222     0.0000     2.0000 </r>
       <r>   -18.6167     0.0000     2.0000 </r>
       <r>   -18.5112     0.0000     2.0000 </r>
       <r>   -18.4056     0.0000     2.0000 </r>
       <r>   -18.3001     0.0000     2.0000 </r>
       <r>   -18.1946     0.0000     2.0000 </r>
       <r>   -18.0890     0.0000     2.0000 </r>
       <r>   -17.9835     0.0000     2.0000 </r>
       <r>   -17.8780     0.0000     2.0000 </r>
       <r>   -17.7724     0.0000     2.0000 </r>
       <r>   -17.6669     0.0000     2.0000 </r>
       <r>   -17.5614     0.0000     2.0000 </r>
       <r>   -17.4558     0.0000     2.0000 </r>
       <r>   -17.3503     0.0000     2.0000 </r>
       <r>   -17.2447     0.0000     2.0000 </r>
       <r>   -17.1392     0.0000     2.0000 </r>
       <r>   -17.0337     0.0000     2.0000 </r>
       <r>   -16.9281     0.0000     2.0000 </r>
       <r>   -16.8226     0.0000     2.0000 </r>
       <r>   -16.7171     0.0000     2.0000 </r>
       <r>   -16.6115     0.0000     2.0000 </r>
       <r>   -16.5060     0.0000     2.0000 </r>
       <r>   -16.4005     0.0000     2.0000 </r>
       <r>   -16.2949     0.0000     2.0000 </r>
       <r>   -16.1894     0.0000     2.0000 </r>
       <r>   -16.0838     0.0000     2.0000 </r>
       <r>   -15.9783     0.0000     2.0000 </r>
       <r>   -15.8728     0.0000     2.0000 </r>
       <r>   -15.7672     0.0000     2.0000 </r>
       <r>   -15.6617     0.0000     2.0000 </r>
       <r>   -15.5562     0.0000     2.0000 </r>
       <r>   -15.4506     0.0000     2.0000 </r>
       <r>   -15.3451     0.0000     2.0000 </r>
       <r>   -15.2396     0.0000     2.0000 </r>
       <r>   -15.1340     0.0000     2.0000 </r>
       <r>   -15.0285     0.0000     2.0000 </r>
       <r>   -14.9230     0.0000     2.0000 </r>
       <r>   -14.8174     0.0000     2.0000 </r>
       <r>   -14.7119     0.0000     2.0000 </r>
       <r>   -14.6063    -0.0000     2.0000 </r>
       <r>   -14.5008    -0.0000     2.0000 </r>
       <r>   -14.3953    -0.0000     2.0000 </r>
       <r>   -14.2897    -0.0000     2.0000 </r>
       <r>   -14.1842    -0.0000     2.0000 </r>
       <r>   -14.0787    -0.0013     1.9999 </r>
       <r>   -13.9731    -0.1529     1.9837 </r>
       <r>   -13.8676    -0.1789     1.9648 </r>
       <r>   -13.7621    11.6608     3.1955 </r>
       <r>   -13.6565     8.2864     4.0700 </r>
       <r>   -13.5510    -0.5951     4.0072 </r>
       <r>   -13.4455    -0.0677     4.0000 </r>
       <r>   -13.3399    -0.0003     4.0000 </r>
       <r>   -13.2344    -0.0000     4.0000 </r>
       <r>   -13.1288    -0.0000     4.0000 </r>
       <r>   -13.0233     0.0000     4.0000 </r>
       <r>   -12.9178     0.0000     4.0000 </r>
       <r>   -12.8122     0.0000     4.0000 </r>
       <r>   -12.7067     0.0000     4.0000 </r>
       <r>   -12.6012     0.0000     4.0000 </r>
       <r>   -12.4956     0.0000     4.0000 </r>
       <r>   -12.3901     0.0000     4.0000 </r>
       <r>   -12.2846     0.0000     4.0000 </r>
       <r>   -12.1790    -0.0000     4.0000 </r>
       <r>   -12.0735    -0.0000     4.0000 </r>
       <r>   -11.9679    -0.0000     4.0000 </r>
       <r>   -11.8624    -0.0000     4.0000 </r>
       <r>   -11.7569    -0.0000     4.0000 </r>
       <r>   -11.6513    -0.0023     3.9998 </r>
       <r>   -11.5458    -0.2040     3.9782 </r>
       <r>   -11.4403     0.1928     3.9986 </r>
       <r>   -11.3347    12.6608     5.3347 </r>
       <r>   -11.2292     6.4730     6.0179 </r>
       <r>   -11.1237    10.0534     7.0789 </r>
       <r>   -11.0181     9.0877     8.0380 </r>
       <r>   -10.9126     0.0938     8.0479 </r>
       <r>   -10.8071    13.4575     9.4681 </r>
       <r>   -10.7015     5.6763    10.0672 </r>
       <r>   -10.5960    -0.6025    10.0036 </r>
       <r>   -10.4904    -0.0339    10.0000 </r>
       <r>   -10.3849    -0.0416     9.9956 </r>
       <r>   -10.2794    -0.6171     9.9305 </r>
       <r>   -10.1738     6.4078    10.6067 </r>
       <r>   -10.0683    13.0865    11.9878 </r>
       <r>    -9.9628     0.3401    12.0237 </r>
       <r>    -9.8572    -0.2221    12.0003 </r>
       <r>    -9.7517    -0.0027    12.0000 </r>
       <r>    -9.6462    -0.0000    12.0000 </r>
       <r>    -9.5406    -0.0000    12.0000 </r>
       <r>    -9.4351    -0.0000    12.0000 </r>
       <r>    -9.3296    -0.0000    12.0000 </r>
       <r>    -9.2240    -0.0000    12.0000 </r>
       <r>    -9.1185    -0.0000    12.0000 </r>
       <r>    -9.0129    -0.0000    12.0000 </r>
       <r>    -8.9074    -0.0031    11.9997 </r>
       <r>    -8.8019    -0.2409    11.9743 </r>
       <r>    -8.6963     0.4995    12.0270 </r>
       <r>    -8.5908    13.3635    13.4373 </r>
       <r>    -8.4853     5.9704    14.0674 </r>
       <r>    -8.3797    -0.9937    13.9625 </r>
       <r>    -8.2742     1.9012    14.1632 </r>
       <r>    -8.1687    14.4995    15.6934 </r>
       <r>    -8.0631     3.4171    16.0540 </r>
       <r>    -7.9576    -0.5419    15.9968 </r>
       <r>    -7.8521    -0.6362    15.9297 </r>
       <r>    -7.7465     6.7459    16.6416 </r>
       <r>    -7.6410    12.0471    17.9130 </r>
       <r>    -7.5354     5.7748    18.5225 </r>
       <r>    -7.4299    24.6466    21.1236 </r>
       <r>    -7.3244    24.2138    23.6790 </r>
       <r>    -7.2188    22.1601    26.0177 </r>
       <r>    -7.1133    13.4314    27.4352 </r>
       <r>    -7.0078    20.3911    29.5872 </r>
       <r>    -6.9022    19.3999    31.6345 </r>
       <r>    -6.7967    23.0016    34.0620 </r>
       <r>    -6.6912    35.8562    37.8461 </r>
       <r>    -6.5856    36.8890    41.7393 </r>
       <r>    -6.4801    46.9539    46.6946 </r>
       <r>    -6.3745    49.5639    51.9254 </r>
       <r>    -6.2690    44.8091    56.6543 </r>
       <r>    -6.1635    52.2276    62.1662 </r>
       <r>    -6.0579    37.8834    66.1643 </r>
       <r>    -5.9524    21.7298    68.4575 </r>
       <r>    -5.8469    29.6559    71.5873 </r>
       <r>    -5.7413    27.3554    74.4743 </r>
       <r>    -5.6358    46.9042    79.4244 </r>
       <r>    -5.5303    52.4960    84.9646 </r>
       <r>    -5.4247    60.2117    91.3191 </r>
       <r>    -5.3192    85.1067   100.3009 </r>
       <r>    -5.2137    84.8094   109.2513 </r>
       <r>    -5.1081    81.3413   117.8358 </r>
       <r>    -5.0026    72.2733   125.4632 </r>
       <r>    -4.8970    81.3233   134.0457 </r>
       <r>    -4.7915    76.6133   142.1312 </r>
       <r>    -4.6860    35.2082   145.8469 </r>
       <r>    -4.5804     6.4207   146.5245 </r>
       <r>    -4.4749    13.2642   147.9244 </r>
       <r>    -4.3694     0.5561   147.9830 </r>
       <r>    -4.2638     0.8291   148.0705 </r>
       <r>    -4.1583    24.4079   150.6465 </r>
       <r>    -4.0528    13.9369   152.1173 </r>
       <r>    -3.9472    -0.9881   152.0130 </r>
       <r>    -3.8417    -0.1233   152.0000 </r>
       <r>    -3.7362    -0.1040   151.9890 </r>
       <r>    -3.6306    -0.4650   151.9400 </r>
       <r>    -3.5251    10.0304   152.9985 </r>
       <r>    -3.4195    10.0560   154.0598 </r>
       <r>    -3.3140    -0.4641   154.0108 </r>
       <r>    -3.2085    -0.2990   153.9793 </r>
       <r>    -3.1029     0.1109   153.9910 </r>
       <r>    -2.9974    12.1618   155.2745 </r>
       <r>    -2.8919     9.8862   156.3178 </r>
       <r>    -2.7863    13.9398   157.7890 </r>
       <r>    -2.6808     1.8501   157.9842 </r>
       <r>    -2.5753     4.1679   158.4241 </r>
       <r>    -2.4697    13.5213   159.8511 </r>
       <r>    -2.3642     5.7354   160.4564 </r>
       <r>    -2.2586    13.7837   161.9110 </r>
       <r>    -2.1531     0.6945   161.9843 </r>
       <r>    -2.0476     1.7649   162.1706 </r>
       <r>    -1.9420    17.9259   164.0624 </r>
       <r>    -1.8365    17.2527   165.8832 </r>
       <r>    -1.7310    13.9442   167.3548 </r>
       <r>    -1.6254     6.7887   168.0713 </r>
       <r>    -1.5199    -0.8869   167.9777 </r>
       <r>    -1.4144     0.6126   168.0423 </r>
       <r>    -1.3088    13.5965   169.4772 </r>
       <r>    -1.2033     5.2692   170.0333 </r>
       <r>    -1.0978    -0.0383   170.0293 </r>
       <r>    -0.9922    17.0006   171.8234 </r>
       <r>    -0.8867    19.2005   173.8498 </r>
       <r>    -0.7811     1.7103   174.0303 </r>
       <r>    -0.6756    11.8969   175.2858 </r>
       <r>    -0.5701     6.9514   176.0195 </r>
       <r>    -0.4645     2.4680   176.2799 </r>
       <r>    -0.3590    14.3565   177.7950 </r>
       <r>    -0.2535     1.9907   178.0051 </r>
       <r>    -0.1479    11.0784   179.1743 </r>
       <r>    -0.0424     8.1562   180.0351 </r>
       <r>     0.0631     0.6378   180.1024 </r>
       <r>     0.1687    13.5521   181.5326 </r>
       <r>     0.2742     8.8003   182.4614 </r>
       <r>     0.3797    13.6464   183.9015 </r>
       <r>     0.4853     1.2625   184.0348 </r>
       <r>     0.5908    -0.3239   184.0006 </r>
       <r>     0.6964    -0.0057   184.0000 </r>
       <r>     0.8019    -0.0000   184.0000 </r>
       <r>     0.9074    -0.0000   184.0000 </r>
       <r>     1.0130    -0.0000   184.0000 </r>
       <r>     1.1185     0.0000   184.0000 </r>
       <r>     1.2240     0.0000   184.0000 </r>
       <r>     1.3296     0.0000   184.0000 </r>
       <r>     1.4351     0.0000   184.0000 </r>
       <r>     1.5406     0.0000   184.0000 </r>
       <r>     1.6462     0.0000   184.0000 </r>
       <r>     1.7517     0.0000   184.0000 </r>
      </set>
      <set comment="spin 2">
       <r>   -29.9090     0.0000     0.0000 </r>
       <r>   -29.8035     0.0000     0.0000 </r>
       <r>   -29.6980     0.0000     0.0000 </r>
       <r>   -29.5924     0.0000     0.0000 </r>
       <r>   -29.4869     0.0000     0.0000 </r>
       <r>   -29.3814     0.0000     0.0000 </r>
       <r>   -29.2758    -0.0000    -0.0000 </r>
       <r>   -29.1703    -0.0000    -0.0000 </r>
       <r>   -29.0648    -0.0000    -0.0000 </r>
       <r>   -28.9592    -0.0000    -0.0000 </r>
       <r>   -28.8537    -0.0000    -0.0000 </r>
       <r>   -28.7482    -0.0015    -0.0002 </r>
       <r>   -28.6426    -0.1650    -0.0176 </r>
       <r>   -28.5371    -0.0972    -0.0278 </r>
       <r>   -28.4315    11.9653     1.2349 </r>
       <r>   -28.3260     7.9187     2.0706 </r>
       <r>   -28.2205    -0.6074     2.0065 </r>
       <r>   -28.1149    -0.0617     2.0000 </r>
       <r>   -28.0094    -0.0003     2.0000 </r>
       <r>   -27.9039    -0.0000     2.0000 </r>
       <r>   -27.7983    -0.0000     2.0000 </r>
       <r>   -27.6928     0.0000     2.0000 </r>
       <r>   -27.5873     0.0000     2.0000 </r>
       <r>   -27.4817     0.0000     2.0000 </r>
       <r>   -27.3762     0.0000     2.0000 </r>
       <r>   -27.2707     0.0000     2.0000 </r>
       <r>   -27.1651     0.0000     2.0000 </r>
       <r>   -27.0596     0.0000     2.0000 </r>
       <r>   -26.9540     0.0000     2.0000 </r>
       <r>   -26.8485     0.0000     2.0000 </r>
       <r>   -26.7430     0.0000     2.0000 </r>
       <r>   -26.6374     0.0000     2.0000 </r>
       <r>   -26.5319     0.0000     2.0000 </r>
       <r>   -26.4264     0.0000     2.0000 </r>
       <r>   -26.3208     0.0000     2.0000 </r>
       <r>   -26.2153     0.0000     2.0000 </r>
       <r>   -26.1098     0.0000     2.0000 </r>
       <r>   -26.0042     0.0000     2.0000 </r>
       <r>   -25.8987     0.0000     2.0000 </r>
       <r>   -25.7931     0.0000     2.0000 </r>
       <r>   -25.6876     0.0000     2.0000 </r>
       <r>   -25.5821     0.0000     2.0000 </r>
       <r>   -25.4765     0.0000     2.0000 </r>
       <r>   -25.3710     0.0000     2.0000 </r>
       <r>   -25.2655     0.0000     2.0000 </r>
       <r>   -25.1599     0.0000     2.0000 </r>
       <r>   -25.0544     0.0000     2.0000 </r>
       <r>   -24.9489     0.0000     2.0000 </r>
       <r>   -24.8433     0.0000     2.0000 </r>
       <r>   -24.7378     0.0000     2.0000 </r>
       <r>   -24.6323     0.0000     2.0000 </r>
       <r>   -24.5267     0.0000     2.0000 </r>
       <r>   -24.4212     0.0000     2.0000 </r>
       <r>   -24.3156     0.0000     2.0000 </r>
       <r>   -24.2101     0.0000     2.0000 </r>
       <r>   -24.1046     0.0000     2.0000 </r>
       <r>   -23.9990     0.0000     2.0000 </r>
       <r>   -23.8935     0.0000     2.0000 </r>
       <r>   -23.7880     0.0000     2.0000 </r>
       <r>   -23.6824     0.0000     2.0000 </r>
       <r>   -23.5769     0.0000     2.0000 </r>
       <r>   -23.4714     0.0000     2.0000 </r>
       <r>   -23.3658     0.0000     2.0000 </r>
       <r>   -23.2603     0.0000     2.0000 </r>
       <r>   -23.1548     0.0000     2.0000 </r>
       <r>   -23.0492     0.0000     2.0000 </r>
       <r>   -22.9437     0.0000     2.0000 </r>
       <r>   -22.8381     0.0000     2.0000 </r>
       <r>   -22.7326     0.0000     2.0000 </r>
       <r>   -22.6271     0.0000     2.0000 </r>
       <r>   -22.5215     0.0000     2.0000 </r>
       <r>   -22.4160     0.0000     2.0000 </r>
       <r>   -22.3105     0.0000     2.0000 </r>
       <r>   -22.2049     0.0000     2.0000 </r>
       <r>   -22.0994     0.0000     2.0000 </r>
       <r>   -21.9939     0.0000     2.0000 </r>
       <r>   -21.8883     0.0000     2.0000 </r>
       <r>   -21.7828     0.0000     2.0000 </r>
       <r>   -21.6773     0.0000     2.0000 </r>
       <r>   -21.5717     0.0000     2.0000 </r>
       <r>   -21.4662     0.0000     2.0000 </r>
       <r>   -21.3606     0.0000     2.0000 </r>
       <r>   -21.2551     0.0000     2.0000 </r>
       <r>   -21.1496     0.0000     2.0000 </r>
       <r>   -21.0440     0.0000     2.0000 </r>
       <r>   -20.9385     0.0000     2.0000 </r>
       <r>   -20.8330     0.0000     2.0000 </r>
       <r>   -20.7274     0.0000     2.0000 </r>
       <r>   -20.6219     0.0000     2.0000 </r>
       <r>   -20.5164     0.0000     2.0000 </r>
       <r>   -20.4108     0.0000     2.0000 </r>
       <r>   -20.3053     0.0000     2.0000 </r>
       <r>   -20.1997     0.0000     2.0000 </r>
       <r>   -20.0942     0.0000     2.0000 </r>
       <r>   -19.9887     0.0000     2.0000 </r>
       <r>   -19.8831     0.0000     2.0000 </r>
       <r>   -19.7776     0.0000     2.0000 </r>
       <r>   -19.6721     0.0000     2.0000 </r>
       <r>   -19.5665     0.0000     2.0000 </r>
       <r>   -19.4610     0.0000     2.0000 </r>
       <r>   -19.3555     0.0000     2.0000 </r>
       <r>   -19.2499     0.0000     2.0000 </r>
       <r>   -19.1444     0.0000     2.0000 </r>
       <r>   -19.0389     0.0000     2.0000 </r>
       <r>   -18.9333     0.0000     2.0000 </r>
       <r>   -18.8278     0.0000     2.0000 </r>
       <r>   -18.7222     0.0000     2.0000 </r>
       <r>   -18.6167     0.0000     2.0000 </r>
       <r>   -18.5112     0.0000     2.0000 </r>
       <r>   -18.4056     0.0000     2.0000 </r>
       <r>   -18.3001     0.0000     2.0000 </r>
       <r>   -18.1946     0.0000     2.0000 </r>
       <r>   -18.0890     0.0000     2.0000 </r>
       <r>   -17.9835     0.0000     2.0000 </r>
       <r>   -17.8780     0.0000     2.0000 </r>
       <r>   -17.7724     0.0000     2.0000 </r>
       <r>   -17.6669     0.0000     2.0000 </r>
       <r>   -17.5614     0.0000     2.0000 </r>
       <r>   -17.4558     0.0000     2.0000 </r>
       <r>   -17.3503     0.0000     2.0000 </r>
       <r>   -17.2447     0.0000     2.0000 </r>
       <r>   -17.1392     0.0000     2.0000 </r>
       <r>   -17.0337     0.0000     2.0000 </r>
       <r>   -16.9281     0.0000     2.0000 </r>
       <r>   -16.8226     0.0000     2.0000 </r>
       <r>   -16.7171     0.0000     2.0000 </r>
       <r>   -16.6115     0.0000     2.0000 </r>
       <r>   -16.5060     0.0000     2.0000 </r>
       <r>   -16.4005     0.0000     2.0000 </r>
       <r>   -16.2949     0.0000     2.0000 </r>
       <r>   -16.1894     0.0000     2.0000 </r>
       <r>   -16.0838     0.0000     2.0000 </r>
       <r>   -15.9783     0.0000     2.0000 </r>
       <r>   -15.8728     0.0000     2.0000 </r>
       <r>   -15.7672     0.0000     2.0000 </r>
       <r>   -15.6617     0.0000     2.0000 </r>
       <r>   -15.5562     0.0000     2.0000 </r>
       <r>   -15.4506     0.0000     2.0000 </r>
       <r>   -15.3451     0.0000     2.0000 </r>
       <r>   -15.2396     0.0000     2.0000 </r>
       <r>   -15.1340     0.0000     2.0000 </r>
       <r>   -15.0285     0.0000     2.0000 </r>
       <r>   -14.9230     0.0000     2.0000 </r>
       <r>   -14.8174     0.0000     2.0000 </r>
       <r>   -14.7119     0.0000     2.0000 </r>
       <r>   -14.6063    -0.0000     2.0000 </r>
       <r>   -14.5008    -0.0000     2.0000 </r>
       <r>   -14.3953    -0.0000     2.0000 </r>
       <r>   -14.2897    -0.0000     2.0000 </r>
       <r>   -14.1842    -0.0000     2.0000 </r>
       <r>   -14.0787    -0.0001     2.0000 </r>
       <r>   -13.9731    -0.0310     1.9967 </r>
       <r>   -13.8676    -0.5938     1.9340 </r>
       <r>   -13.7621     5.3903     2.5029 </r>
       <r>   -13.6565    13.7092     3.9497 </r>
       <r>   -13.5510     0.7489     4.0288 </r>
       <r>   -13.4455    -0.2688     4.0004 </r>
       <r>   -13.3399    -0.0039     4.0000 </r>
       <r>   -13.2344    -0.0000     4.0000 </r>
       <r>   -13.1288    -0.0000     4.0000 </r>
       <r>   -13.0233    -0.0000     4.0000 </r>
       <r>   -12.9178     0.0000     4.0000 </r>
       <r>   -12.8122     0.0000     4.0000 </r>
       <r>   -12.7067     0.0000     4.0000 </r>
       <r>   -12.6012     0.0000     4.0000 </r>
       <r>   -12.4956     0.0000     4.0000 </r>
       <r>   -12.3901     0.0000     4.0000 </r>
       <r>   -12.2846     0.0000     4.0000 </r>
       <r>   -12.1790    -0.0000     4.0000 </r>
       <r>   -12.0735    -0.0000     4.0000 </r>
       <r>   -11.9679    -0.0000     4.0000 </r>
       <r>   -11.8624    -0.0000     4.0000 </r>
       <r>   -11.7569    -0.0000     4.0000 </r>
       <r>   -11.6513    -0.0003     4.0000 </r>
       <r>   -11.5458    -0.0621     3.9934 </r>
       <r>   -11.4403    -0.6069     3.9294 </r>
       <r>   -11.3347     7.9046     4.7636 </r>
       <r>   -11.2292    11.3372     5.9601 </r>
       <r>   -11.1237     5.8669     6.5792 </r>
       <r>   -11.0181    13.1770     7.9699 </r>
       <r>   -10.9126    -0.0802     7.9614 </r>
       <r>   -10.8071     4.8146     8.4695 </r>
       <r>   -10.7015    13.8833     9.9347 </r>
       <r>   -10.5960     0.9087    10.0306 </r>
       <r>   -10.4904    -0.2858    10.0005 </r>
       <r>   -10.3849    -0.0103     9.9994 </r>
       <r>   -10.2794    -0.3309     9.9645 </r>
       <r>   -10.1738     1.3581    10.1078 </r>
       <r>   -10.0683    14.2475    11.6114 </r>
       <r>    -9.9628     4.2486    12.0598 </r>
       <r>    -9.8572    -0.5448    12.0023 </r>
       <r>    -9.7517    -0.0215    12.0000 </r>
       <r>    -9.6462    -0.0001    12.0000 </r>
       <r>    -9.5406    -0.0000    12.0000 </r>
       <r>    -9.4351    -0.0000    12.0000 </r>
       <r>    -9.3296    -0.0000    12.0000 </r>
       <r>    -9.2240    -0.0000    12.0000 </r>
       <r>    -9.1185    -0.0000    12.0000 </r>
       <r>    -9.0129    -0.0000    12.0000 </r>
       <r>    -8.9074    -0.0009    11.9999 </r>
       <r>    -8.8019    -0.1209    11.9871 </r>
       <r>    -8.6963    -0.3742    11.9477 </r>
       <r>    -8.5908    10.6920    13.0761 </r>
       <r>    -8.4853     9.3730    14.0652 </r>
       <r>    -8.3797    -0.6225    13.9995 </r>
       <r>    -8.2742    -0.6012    13.9361 </r>
       <r>    -8.1687     9.5685    14.9459 </r>
       <r>    -8.0631    10.5069    16.0548 </r>
       <r>    -7.9576    -0.4091    16.0116 </r>
       <r>    -7.8521    -0.4637    15.9627 </r>
       <r>    -7.7465     1.5241    16.1235 </r>
       <r>    -7.6410    13.8050    17.5804 </r>
       <r>    -7.5354     6.3570    18.2513 </r>
       <r>    -7.4299    21.9587    20.5687 </r>
       <r>    -7.3244    18.6053    22.5323 </r>
       <r>    -7.2188    27.2241    25.4054 </r>
       <r>    -7.1133    15.2484    27.0147 </r>
       <r>    -7.0078    18.1846    28.9338 </r>
       <r>    -6.9022    20.7195    31.1204 </r>
       <r>    -6.7967    18.4697    33.0696 </r>
       <r>    -6.6912    37.1292    36.9881 </r>
       <r>    -6.5856    36.6984    40.8611 </r>
       <r>    -6.4801    43.5958    45.4620 </r>
       <r>    -6.3745    50.5919    50.8013 </r>
       <r>    -6.2690    43.1527    55.3554 </r>
       <r>    -6.1635    52.9479    60.9433 </r>
       <r>    -6.0579    41.4535    65.3182 </r>
       <r>    -5.9524    26.5426    68.1194 </r>
       <r>    -5.8469    23.8311    70.6344 </r>
       <r>    -5.7413    30.3679    73.8393 </r>
       <r>    -5.6358    40.4104    78.1041 </r>
       <r>    -5.5303    52.6909    83.6648 </r>
       <r>    -5.4247    54.8927    89.4580 </r>
       <r>    -5.3192    80.7003    97.9748 </r>
       <r>    -5.2137    87.4529   107.2042 </r>
       <r>    -5.1081    84.2640   116.0971 </r>
       <r>    -5.0026    71.8948   123.6845 </r>
       <r>    -4.8970    76.1911   131.7254 </r>
       <r>    -4.7915    78.0512   139.9626 </r>
       <r>    -4.6860    51.6670   145.4154 </r>
       <r>    -4.5804     7.0575   146.1602 </r>
       <r>    -4.4749    12.0963   147.4368 </r>
       <r>    -4.3694     5.9085   148.0603 </r>
       <r>    -4.2638    -1.7812   147.8724 </r>
       <r>    -4.1583    11.7836   149.1159 </r>
       <r>    -4.0528    26.5453   151.9174 </r>
       <r>    -3.9472     1.2943   152.0540 </r>
       <r>    -3.8417    -0.5044   152.0008 </r>
       <r>    -3.7362    -0.0074   152.0000 </r>
       <r>    -3.6306    -0.0007   151.9999 </r>
       <r>    -3.5251    -0.1025   151.9891 </r>
       <r>    -3.4195    -0.4685   151.9397 </r>
       <r>    -3.3140    10.0006   152.9951 </r>
       <r>    -3.2085    10.0565   154.0564 </r>
       <r>    -3.1029    -1.0457   153.9461 </r>
       <r>    -2.9974     4.9737   154.4710 </r>
       <r>    -2.8919    13.3579   155.8807 </r>
       <r>    -2.7863    10.8963   157.0307 </r>
       <r>    -2.6808     9.6572   158.0498 </r>
       <r>    -2.5753    -0.9497   157.9496 </r>
       <r>    -2.4697     9.7538   158.9790 </r>
       <r>    -2.3642     9.6036   159.9925 </r>
       <r>    -2.2586     4.9181   160.5115 </r>
       <r>    -2.1531    13.3882   161.9245 </r>
       <r>    -2.0476     1.0782   162.0383 </r>
       <r>    -1.9420    12.2734   163.3336 </r>
       <r>    -1.8365    13.7800   164.7878 </r>
       <r>    -1.7310    13.6419   166.2275 </r>
       <r>    -1.6254    14.4340   167.7508 </r>
       <r>    -1.5199     2.8429   168.0509 </r>
       <r>    -1.4144    -0.6183   167.9856 </r>
       <r>    -1.3088    -0.2215   167.9623 </r>
       <r>    -1.2033    11.5173   169.1777 </r>
       <r>    -1.0978     7.8562   170.0068 </r>
       <r>    -0.9922     3.7470   170.4023 </r>
       <r>    -0.8867    15.2140   172.0079 </r>
       <r>    -0.7811    14.9156   173.5821 </r>
       <r>    -0.6756     5.7881   174.1929 </r>
       <r>    -0.5701    13.7905   175.6483 </r>
       <r>    -0.4645     3.2016   175.9862 </r>
       <r>    -0.3590     3.6297   176.3692 </r>
       <r>    -0.2535    22.9371   178.7899 </r>
       <r>    -0.1479    11.7272   180.0276 </r>
       <r>    -0.0424     9.9811   181.0809 </r>
       <r>     0.0631     8.6725   181.9962 </r>
       <r>     0.1687     8.0560   182.8464 </r>
       <r>     0.2742    11.3158   184.0406 </r>
       <r>     0.3797    -0.2399   184.0153 </r>
       <r>     0.4853    -0.1436   184.0001 </r>
       <r>     0.5908    -0.0012   184.0000 </r>
       <r>     0.6964    -0.0000   184.0000 </r>
       <r>     0.8019    -0.0000   184.0000 </r>
       <r>     0.9074     0.0000   184.0000 </r>
       <r>     1.0130     0.0000   184.0000 </r>
       <r>     1.1185     0.0000   184.0000 </r>
       <r>     1.2240     0.0000   184.0000 </r>
       <r>     1.3296     0.0000   184.0000 </r>
       <r>     1.4351     0.0000   184.0000 </r>
       <r>     1.5406     0.0000   184.0000 </r>
       <r>     1.6462     0.0000   184.0000 </r>
       <r>     1.7517     0.0000   184.0000 </r>
      </set>
     </set>
    </array>
   </total>
  </dos>
 </calculation>
 <structure name="finalpos" >
  <crystal>
   <varray name="basis" >
    <v>      15.00000000       0.00000000       0.00000000 </v>
    <v>       0.00000000      15.00000000       0.00000000 </v>
    <v>       0.00000000       0.00000000      15.00000000 </v>
   </varray>
   <i name="volume">   3375.00000000 </i>
   <varray name="rec_basis" >
    <v>       0.06666667       0.00000000       0.00000000 </v>
    <v>       0.00000000       0.06666667       0.00000000 </v>
    <v>       0.00000000       0.00000000       0.06666667 </v>
   </varray>
  </crystal>
  <varray name="positions" >
   <v>       0.29071000       0.42034467       0.55266200 </v>
   <v>       0.37709667       0.54736667       0.48811867 </v>
   <v>       0.39797600       0.29317600       0.56654800 </v>
   <v>       0.53275600       0.50533000       0.48212467 </v>
   <v>       0.54935733       0.34506133       0.53197467 </v>
   <v>       0.44844733       0.43723000       0.61522533 </v>
   <v>       0.41874733       0.39895933       0.44896467 </v>
   <v>       0.22674667       0.56747533       0.54553267 </v>
   <v>       0.33166400       0.54644467       0.65435933 </v>
   <v>       0.35414867       0.68667333       0.56695667 </v>
   <v>       0.48668467       0.66724667       0.47660867 </v>
   <v>       0.61995800       0.48211600       0.61051400 </v>
   <v>       0.48433400       0.59068400       0.61827000 </v>
   <v>       0.73648667       0.49275933       0.64639933 </v>
   <v>       0.81276000       0.48861333       0.63801067 </v>
  </varray>
 </structure>
</modeling>
