<?xml version="1.0" encoding="ISO-8859-1"?>
<modeling>
 <generator>
  <i name="program" type="string">vasp </i>
  <i name="version" type="string">5.4.4.18Apr17-6-g9f103f2a35  </i>
  <i name="subversion" type="string">(build May 08 2019 13:49:07) complex            parallel </i>
  <i name="platform" type="string">LinuxIFC </i>
  <i name="date" type="string">2019 11 13 </i>
  <i name="time" type="string">11:56:20 </i>
 </generator>
 <incar>
  <i type="string" name="SYSTEM"> CuCO</i>
  <i type="int" name="ISTART">     0</i>
  <i type="string" name="PREC">accurate</i>
  <i type="string" name="ALGO"> Fast</i>
  <i type="int" name="ISPIN">     2</i>
  <i type="int" name="INIWAV">     1</i>
  <i type="int" name="NELM">   300</i>
  <i type="int" name="NELMIN">     3</i>
  <i type="int" name="IBRION">    -1</i>
  <i name="EDIFF">      0.00000010</i>
  <i name="EDIFFG">     -0.00100000</i>
  <i type="int" name="NSW">     0</i>
  <i type="int" name="ISYM">     0</i>
  <i name="ENCUT">    600.00000000</i>
  <i name="NUPDOWN">      1.00000000</i>
  <i type="logical" name="LREAL"> F  </i>
  <i type="int" name="ISMEAR">     1</i>
  <i name="SIGMA">      0.10000000</i>
  <i name="KSPACING">      0.50000000</i>
  <i type="logical" name="KGAMMA"> F  </i>
  <i type="logical" name="LWAVE"> F  </i>
  <i type="logical" name="LCHARG"> F  </i>
  <v type="int" name="KPOINT_BSE">    -1     0     0     0</v>
  <i type="int" name="NELM">   300</i>
  <i type="string" name="GGA"> PE</i>
 </incar>
 <structure name="primitive_cell" >
  <crystal>
   <varray name="basis" >
    <v>      15.00000000       0.00000000       0.00000000 </v>
    <v>       0.00000000      15.00000000       0.00000000 </v>
    <v>       0.00000000       0.00000000      15.00000000 </v>
   </varray>
   <i name="volume">   3375.00000000 </i>
   <varray name="rec_basis" >
    <v>       0.06666667       0.00000000       0.00000000 </v>
    <v>       0.00000000       0.06666667       0.00000000 </v>
    <v>       0.00000000       0.00000000       0.06666667 </v>
   </varray>
  </crystal>
  <varray name="positions" >
   <v>       0.29162667       0.41815467      -0.44198933 </v>
   <v>       0.44295800       0.43728267      -0.38869667 </v>
   <v>       0.22571533      -0.43376933      -0.44680400 </v>
   <v>       0.39634467       0.29420200      -0.44315200 </v>
   <v>       0.37699467      -0.45724933       0.49273267 </v>
   <v>       0.41485667       0.39668267       0.44584400 </v>
   <v>       0.33115933      -0.45202733      -0.33534133 </v>
   <v>       0.48319200      -0.41052933      -0.38467000 </v>
   <v>      -0.45120600       0.35221667      -0.46988067 </v>
   <v>      -0.46557133      -0.49437000       0.48126867 </v>
   <v>       0.35044800      -0.31630667      -0.42887733 </v>
   <v>       0.48689600      -0.33734200       0.47345800 </v>
   <v>      -0.36738067       0.48704133      -0.40407067 </v>
   <v>      -0.25624000       0.49610067      -0.34942933 </v>
   <v>      -0.18240667      -0.49749800      -0.33320000 </v>
  </varray>
 </structure>
 <varray name="primitive_index" >
  <v type="int" >        1 </v>
  <v type="int" >        6 </v>
  <v type="int" >        8 </v>
  <v type="int" >        3 </v>
  <v type="int" >        2 </v>
  <v type="int" >        7 </v>
  <v type="int" >        9 </v>
  <v type="int" >       13 </v>
  <v type="int" >        5 </v>
  <v type="int" >        4 </v>
  <v type="int" >       10 </v>
  <v type="int" >       11 </v>
  <v type="int" >       12 </v>
  <v type="int" >       14 </v>
  <v type="int" >       15 </v>
 </varray>
 <kpoints>
  <generation param="Monkhorst-Pack">
   <v type="int" name="divisions">       1        1        1 </v>
   <v name="usershift">      0.00000000       0.00000000       0.00000000 </v>
   <v name="genvec1">      1.00000000       0.00000000       0.00000000 </v>
   <v name="genvec2">      0.00000000       1.00000000       0.00000000 </v>
   <v name="genvec3">      0.00000000       0.00000000       1.00000000 </v>
   <v name="shift">      0.00000000       0.00000000       0.00000000 </v>
  </generation>
  <varray name="kpointlist" >
   <v>       0.00000000       0.00000000       0.00000000 </v>
  </varray>
  <varray name="weights" >
   <v>       1.00000000 </v>
  </varray>
 </kpoints>
 <parameters>
  <separator name="general" >
   <i type="string" name="SYSTEM">CuCO</i>
   <i type="logical" name="LCOMPAT"> F  </i>
  </separator>
  <separator name="electronic" >
   <i type="string" name="PREC">accura</i>
   <i name="ENMAX">    600.00000000</i>
   <i name="ENAUG">    644.87300000</i>
   <i name="EDIFF">      0.00000010</i>
   <i type="int" name="IALGO">    68</i>
   <i type="int" name="IWAVPR">    10</i>
   <i type="int" name="NBANDS">    92</i>
   <i name="NELECT">    153.00000000</i>
   <i type="int" name="TURBO">     0</i>
   <i type="int" name="IRESTART">     0</i>
   <i type="int" name="NREBOOT">     0</i>
   <i type="int" name="NMIN">     0</i>
   <i name="EREF">      0.00000000</i>
   <separator name="electronic smearing" >
    <i type="int" name="ISMEAR">     1</i>
    <i name="SIGMA">      0.10000000</i>
    <i name="KSPACING">      0.50000000</i>
    <i type="logical" name="KGAMMA"> F  </i>
   </separator>
   <separator name="electronic projectors" >
    <i type="logical" name="LREAL"> F  </i>
    <v name="ROPT">      0.00000000      0.00000000      0.00000000</v>
    <i type="int" name="LMAXPAW">  -100</i>
    <i type="int" name="LMAXMIX">     2</i>
    <i type="logical" name="NLSPLINE"> F  </i>
   </separator>
   <separator name="electronic startup" >
    <i type="int" name="ISTART">     0</i>
    <i type="int" name="ICHARG">     2</i>
    <i type="int" name="INIWAV">     1</i>
   </separator>
   <separator name="electronic spin" >
    <i type="int" name="ISPIN">     2</i>
    <i type="logical" name="LNONCOLLINEAR"> F  </i>
    <v name="MAGMOM">      0.06666667      0.06666667      0.06666667      0.06666667      0.06666667      0.06666667      0.06666667      0.06666667      0.06666667      0.06666667      0.06666667      0.06666667      0.06666667      0.06666667      0.06666667</v>
    <i name="NUPDOWN">      1.00000000</i>
    <i type="logical" name="LSORBIT"> F  </i>
    <v name="SAXIS">      0.00000000      0.00000000      1.00000000</v>
    <i type="logical" name="LSPIRAL"> F  </i>
    <v name="QSPIRAL">      0.00000000      0.00000000      0.00000000</v>
    <i type="logical" name="LZEROZ"> F  </i>
   </separator>
   <separator name="electronic exchange-correlation" >
    <i type="logical" name="LASPH"> F  </i>
    <i type="logical" name="LMETAGGA"> F  </i>
   </separator>
   <separator name="electronic convergence" >
    <i type="int" name="NELM">   300</i>
    <i type="int" name="NELMDL">    -5</i>
    <i type="int" name="NELMIN">     3</i>
    <i name="ENINI">    600.00000000</i>
    <separator name="electronic convergence detail" >
     <i type="logical" name="LDIAG"> T  </i>
     <i type="logical" name="LSUBROT"> F  </i>
     <i name="WEIMIN">      0.00000000</i>
     <i name="EBREAK">      0.00000000</i>
     <i name="DEPER">      0.30000000</i>
     <i type="int" name="NRMM">     4</i>
     <i name="TIME">      0.40000000</i>
    </separator>
   </separator>
   <separator name="electronic mixer" >
    <i name="AMIX">      0.40000000</i>
    <i name="BMIX">      1.00000000</i>
    <i name="AMIN">      0.10000000</i>
    <i name="AMIX_MAG">      1.60000000</i>
    <i name="BMIX_MAG">      1.00000000</i>
    <separator name="electronic mixer details" >
     <i type="int" name="IMIX">     4</i>
     <i type="logical" name="MIXFIRST"> F  </i>
     <i type="int" name="MAXMIX">   -45</i>
     <i name="WC">    100.00000000</i>
     <i type="int" name="INIMIX">     1</i>
     <i type="int" name="MIXPRE">     1</i>
     <i type="int" name="MREMOVE">     5</i>
    </separator>
   </separator>
   <separator name="electronic dipolcorrection" >
    <i type="logical" name="LDIPOL"> F  </i>
    <i type="logical" name="LMONO"> F  </i>
    <i type="int" name="IDIPOL">     0</i>
    <i name="EPSILON">      1.00000000</i>
    <v name="DIPOL">   -100.00000000   -100.00000000   -100.00000000</v>
    <i name="EFIELD">      0.00000000</i>
   </separator>
  </separator>
  <separator name="grids" >
   <i type="int" name="NGX">   120</i>
   <i type="int" name="NGY">   120</i>
   <i type="int" name="NGZ">   120</i>
   <i type="int" name="NGXF">   240</i>
   <i type="int" name="NGYF">   240</i>
   <i type="int" name="NGZF">   240</i>
   <i type="logical" name="ADDGRID"> F  </i>
  </separator>
  <separator name="ionic" >
   <i type="int" name="NSW">     0</i>
   <i type="int" name="IBRION">    -1</i>
   <i type="int" name="MDALGO">     0</i>
   <i type="int" name="ISIF">     2</i>
   <i name="PSTRESS">      0.00000000</i>
   <i name="EDIFFG">     -0.00100000</i>
   <i type="int" name="NFREE">     0</i>
   <i name="POTIM">      0.50000000</i>
   <i name="SMASS">     -3.00000000</i>
   <i name="SCALEE">      1.00000000</i>
  </separator>
  <separator name="ionic md" >
   <i name="TEBEG">      0.00010000</i>
   <i name="TEEND">      0.00010000</i>
   <i type="int" name="NBLOCK">     1</i>
   <i type="int" name="KBLOCK">     1</i>
   <i type="int" name="NPACO">   256</i>
   <i name="APACO">     16.00000000</i>
  </separator>
  <separator name="symmetry" >
   <i type="int" name="ISYM">     0</i>
   <i name="SYMPREC">      0.00001000</i>
  </separator>
  <separator name="dos" >
   <i type="int" name="LORBIT">     0</i>
   <v name="RWIGS">     -1.00000000     -1.00000000     -1.00000000</v>
   <i type="int" name="NEDOS">   301</i>
   <i name="EMIN">     10.00000000</i>
   <i name="EMAX">    -10.00000000</i>
   <i name="EFERMI">      0.00000000</i>
  </separator>
  <separator name="writing" >
   <i type="int" name="NWRITE">     2</i>
   <i type="logical" name="LWAVE"> F  </i>
   <i type="logical" name="LDOWNSAMPLE"> F  </i>
   <i type="logical" name="LCHARG"> F  </i>
   <i type="logical" name="LPARD"> F  </i>
   <i type="logical" name="LVTOT"> F  </i>
   <i type="logical" name="LVHAR"> F  </i>
   <i type="logical" name="LELF"> F  </i>
   <i type="logical" name="LOPTICS"> F  </i>
   <v name="STM">      0.00000000      0.00000000      0.00000000      0.00000000      0.00000000      0.00000000      0.00000000</v>
  </separator>
  <separator name="performance" >
   <i type="int" name="NPAR">     4</i>
   <i type="int" name="NSIM">     4</i>
   <i type="int" name="NBLK">    -1</i>
   <i type="logical" name="LPLANE"> T  </i>
   <i type="logical" name="LSCALAPACK"> T  </i>
   <i type="logical" name="LSCAAWARE"> F  </i>
   <i type="logical" name="LSCALU"> F  </i>
   <i type="logical" name="LASYNC"> F  </i>
   <i type="logical" name="LORBITALREAL"> F  </i>
  </separator>
  <separator name="miscellaneous" >
   <i type="int" name="IDIOT">     3</i>
   <i type="int" name="ISPECIAL">     0</i>
   <i type="logical" name="LMUSIC"> F  </i>
   <v name="POMASS">     63.54600000     12.01100000     16.00000000</v>
   <v name="DARWINR">      0.00000000      0.00000000      0.00000000</v>
   <v name="DARWINV">      1.00000000      1.00000000      1.00000000</v>
   <i type="logical" name="LCORR"> T  </i>
  </separator>
  <i type="logical" name="GGA_COMPAT"> T  </i>
  <i type="logical" name="LBERRY"> F  </i>
  <i type="int" name="ICORELEVEL">     0</i>
  <i type="logical" name="LDAU"> F  </i>
  <i type="int" name="I_CONSTRAINED_M">     0</i>
  <separator name="electronic exchange-correlation" >
   <i type="string" name="GGA">PE</i>
   <i type="int" name="VOSKOWN">     0</i>
   <i type="logical" name="LHFCALC"> F  </i>
   <i type="string" name="PRECFOCK"></i>
   <i type="logical" name="LSYMGRAD"> F  </i>
   <i type="logical" name="LHFONE"> F  </i>
   <i type="logical" name="LRHFCALC"> F  </i>
   <i type="logical" name="LTHOMAS"> F  </i>
   <i type="logical" name="LMODELHF"> F  </i>
   <i name="ENCUT4O">     -1.00000000</i>
   <i type="int" name="EXXOEP">     0</i>
   <i type="int" name="FOURORBIT">     0</i>
   <i name="AEXX">      0.00000000</i>
   <i name="HFALPHA">      0.00000000</i>
   <i name="MCALPHA">      0.00000000</i>
   <i name="ALDAX">      1.00000000</i>
   <i name="AGGAX">      1.00000000</i>
   <i name="ALDAC">      1.00000000</i>
   <i name="AGGAC">      1.00000000</i>
   <i type="int" name="NKREDX">     1</i>
   <i type="int" name="NKREDY">     1</i>
   <i type="int" name="NKREDZ">     1</i>
   <i type="logical" name="SHIFTRED"> F  </i>
   <i type="logical" name="ODDONLY"> F  </i>
   <i type="logical" name="EVENONLY"> F  </i>
   <i type="int" name="LMAXFOCK">     0</i>
   <i type="int" name="NMAXFOCKAE">     0</i>
   <i type="logical" name="LFOCKAEDFT"> F  </i>
   <i name="HFSCREEN">      0.00000000</i>
   <i name="HFSCREENC">      0.00000000</i>
   <i type="int" name="NBANDSGWLOW">     0</i>
  </separator>
  <separator name="vdW DFT" >
   <i type="logical" name="LUSE_VDW"> F  </i>
   <i name="Zab_VDW">     -0.84910000</i>
   <i name="PARAM1">      0.12340000</i>
   <i name="PARAM2">      1.00000000</i>
   <i name="PARAM3">      0.00000000</i>
  </separator>
  <separator name="model GW" >
   <i type="int" name="MODEL_GW">     0</i>
   <i name="MODEL_EPS0">    135.00000000</i>
   <i name="MODEL_ALPHA">      1.00000000</i>
  </separator>
  <separator name="linear response parameters" >
   <i type="logical" name="LEPSILON"> F  </i>
   <i type="logical" name="LRPA"> F  </i>
   <i type="logical" name="LNABLA"> F  </i>
   <i type="logical" name="LVEL"> F  </i>
   <i type="int" name="KINTER">     0</i>
   <i name="CSHIFT">      0.10000000</i>
   <i name="OMEGAMAX">     -1.00000000</i>
   <i name="DEG_THRESHOLD">      0.00200000</i>
   <i name="RTIME">     -0.10000000</i>
   <i name="WPLASMAI">      0.00000000</i>
   <v name="DFIELD">      0.00000000      0.00000000      0.00000000</v>
   <v name="WPLASMA">      0.00000000      0.00000000      0.00000000      0.00000000      0.00000000      0.00000000      0.00000000      0.00000000      0.00000000</v>
  </separator>
  <separator name="orbital magnetization" >
   <i type="logical" name="NUCIND"> F  </i>
   <v name="MAGPOS">      0.00000000      0.00000000      0.00000000</v>
   <i type="logical" name="LNICSALL"> T  </i>
   <i type="logical" name="ORBITALMAG"> F  </i>
   <i type="logical" name="LMAGBLOCH"> F  </i>
   <i type="logical" name="LCHIMAG"> F  </i>
   <i type="logical" name="LGAUGE"> T  </i>
   <i type="int" name="MAGATOM">     0</i>
   <v name="MAGDIPOL">      0.00000000      0.00000000      0.00000000</v>
   <v name="AVECCONST">      0.00000000      0.00000000      0.00000000</v>
  </separator>
  <separator name="response functions" >
   <i type="logical" name="LADDER"> F  </i>
   <i type="logical" name="LRPAFORCE"> F  </i>
   <i type="logical" name="LFXC"> F  </i>
   <i type="logical" name="LHARTREE"> T  </i>
   <i type="int" name="IBSE">     0</i>
   <v type="int" name="KPOINT">    -1     0     0     0</v>
   <i type="logical" name="LTCTE"> F  </i>
   <i type="logical" name="LTETE"> F  </i>
   <i type="logical" name="LTRIPLET"> F  </i>
   <i type="logical" name="LFXCEPS"> F  </i>
   <i type="logical" name="LFXHEG"> F  </i>
   <i type="int" name="NATURALO">     2</i>
   <i type="logical" name="L2ORDER"> F  </i>
   <i type="logical" name="LMP2LT"> F  </i>
   <i type="logical" name="LUSEW"> F  </i>
   <i name="ENCUTGW">     -2.00000000</i>
   <i name="ENCUTGWSOFT">     -2.00000000</i>
   <i name="ENCUTLF">     -1.00000000</i>
   <i type="int" name="LMAXMP2">    -1</i>
   <i name="SCISSOR">      0.00000000</i>
   <i type="int" name="NOMEGA">     0</i>
   <i type="int" name="NOMEGAR">     0</i>
   <i type="int" name="NBANDSGW">    -1</i>
   <i type="int" name="NBANDSO">    -1</i>
   <i type="int" name="NBANDSV">    -1</i>
   <i type="int" name="NELM">   300</i>
   <i type="int" name="NELMHF">     1</i>
   <i type="int" name="DIM">     3</i>
   <i type="int" name="ANTIRES">     0</i>
   <i name="OMEGAMAX">    -30.00000000</i>
   <i name="OMEGAMIN">    -30.00000000</i>
   <i name="OMEGATL">   -200.00000000</i>
   <i type="int" name="OMEGAGRID">   140</i>
   <i name="CSHIFT">     -0.10000000</i>
   <i type="logical" name="SELFENERGY"> F  </i>
   <i type="logical" name="LSPECTRAL"> F  </i>
   <i type="logical" name="LSPECTRALGW"> F  </i>
   <i type="logical" name="LSINGLES"> F  </i>
   <i type="logical" name="LFERMIGW"> F  </i>
   <i type="logical" name="ODDONLYGW"> F  </i>
   <i type="logical" name="EVENONLYGW"> F  </i>
   <i type="int" name="NKREDLFX">     1</i>
   <i type="int" name="NKREDLFY">     1</i>
   <i type="int" name="NKREDLFZ">     1</i>
   <i type="int" name="MAXMEM">  2800</i>
   <i type="int" name="TELESCOPE">     0</i>
   <i type="int" name="TAUPAR">     1</i>
   <i type="int" name="OMEGAPAR">    -1</i>
   <i name="LAMBDA">      1.00000000</i>
  </separator>
  <separator name="External order field" >
   <i name="OFIELD_KAPPA">      0.00000000</i>
   <v name="OFIELD_K">      0.00000000      0.00000000      0.00000000</v>
   <i name="OFIELD_Q6_NEAR">      0.00000000</i>
   <i name="OFIELD_Q6_FAR">      0.00000000</i>
   <i name="OFIELD_A">      0.00000000</i>
  </separator>
 </parameters>
 <atominfo>
  <atoms>      15 </atoms>
  <types>       3 </types>
  <array name="atoms" >
   <dimension dim="1">ion</dimension>
   <field type="string">element</field>
   <field type="int">atomtype</field>
   <set>
    <rc><c>Cu</c><c>   1</c></rc>
    <rc><c>Cu</c><c>   1</c></rc>
    <rc><c>Cu</c><c>   1</c></rc>
    <rc><c>Cu</c><c>   1</c></rc>
    <rc><c>Cu</c><c>   1</c></rc>
    <rc><c>Cu</c><c>   1</c></rc>
    <rc><c>Cu</c><c>   1</c></rc>
    <rc><c>Cu</c><c>   1</c></rc>
    <rc><c>Cu</c><c>   1</c></rc>
    <rc><c>Cu</c><c>   1</c></rc>
    <rc><c>Cu</c><c>   1</c></rc>
    <rc><c>Cu</c><c>   1</c></rc>
    <rc><c>Cu</c><c>   1</c></rc>
    <rc><c>C </c><c>   2</c></rc>
    <rc><c>O </c><c>   3</c></rc>
   </set>
  </array>
  <array name="atomtypes" >
   <dimension dim="1">type</dimension>
   <field type="int">atomspertype</field>
   <field type="string">element</field>
   <field>mass</field>
   <field>valence</field>
   <field type="string">pseudopotential</field>
   <set>
    <rc><c>  13</c><c>Cu</c><c>     63.54600000</c><c>     11.00000000</c><c>  PAW_PBE Cu 22Jun2005                  </c></rc>
    <rc><c>   1</c><c>C </c><c>     12.01100000</c><c>      4.00000000</c><c>  PAW_PBE C 08Apr2002                   </c></rc>
    <rc><c>   1</c><c>O </c><c>     16.00000000</c><c>      6.00000000</c><c>  PAW_PBE O 08Apr2002                   </c></rc>
   </set>
  </array>
 </atominfo>
 <structure name="initialpos" >
  <crystal>
   <varray name="basis" >
    <v>      15.00000000       0.00000000       0.00000000 </v>
    <v>       0.00000000      15.00000000       0.00000000 </v>
    <v>       0.00000000       0.00000000      15.00000000 </v>
   </varray>
   <i name="volume">   3375.00000000 </i>
   <varray name="rec_basis" >
    <v>       0.06666667       0.00000000       0.00000000 </v>
    <v>       0.00000000       0.06666667       0.00000000 </v>
    <v>       0.00000000       0.00000000       0.06666667 </v>
   </varray>
  </crystal>
  <varray name="positions" >
   <v>       0.29162667       0.41815467       0.55801067 </v>
   <v>       0.37699467       0.54275067       0.49273267 </v>
   <v>       0.39634467       0.29420200       0.55684800 </v>
   <v>       0.53442867       0.50563000       0.48126867 </v>
   <v>       0.54879400       0.35221667       0.53011933 </v>
   <v>       0.44295800       0.43728267       0.61130333 </v>
   <v>       0.41485667       0.39668267       0.44584400 </v>
   <v>       0.22571533       0.56623067       0.55319600 </v>
   <v>       0.33115933       0.54797267       0.66465867 </v>
   <v>       0.35044800       0.68369333       0.57112267 </v>
   <v>       0.48689600       0.66265800       0.47345800 </v>
   <v>       0.63261933       0.48704133       0.59592933 </v>
   <v>       0.48319200       0.58947067       0.61533000 </v>
   <v>       0.74376000       0.49610067       0.65057067 </v>
   <v>       0.81759333       0.50250200       0.66680000 </v>
  </varray>
 </structure>
 <calculation>
  <scstep>
   <time name="dav">    7.42    7.44</time>
   <time name="total">    8.58    8.60</time>
   <energy>
    <i name="alphaZ">     41.16232785 </i>
    <i name="ewald">  16396.22573442 </i>
    <i name="hartreedc"> -33414.64631841 </i>
    <i name="XCdc">    623.63874038 </i>
    <i name="pawpsdc">  16421.75059358 </i>
    <i name="pawaedc"> -17800.06104309 </i>
    <i name="eentropy">     -0.02098779 </i>
    <i name="bandstr">    191.01777836 </i>
    <i name="atom">  18662.21924712 </i>
    <i name="e_fr_energy">   1121.28607240 </i>
    <i name="e_wo_entrp">   1121.30706019 </i>
    <i name="e_0_energy">   1121.29306833 </i>
   </energy>
  </scstep>
  <scstep>
   <time name="dav">    7.36    7.38</time>
   <time name="total">    7.36    7.38</time>
   <energy>
    <i name="e_fr_energy">     88.66510109 </i>
    <i name="e_wo_entrp">     88.65906140 </i>
    <i name="e_0_energy">     88.66308786 </i>
   </energy>
  </scstep>
  <scstep>
   <time name="dav">   11.79   11.82</time>
   <time name="total">   11.79   11.82</time>
   <energy>
    <i name="e_fr_energy">    -33.53311994 </i>
    <i name="e_wo_entrp">    -33.54650681 </i>
    <i name="e_0_energy">    -33.53758223 </i>
   </energy>
  </scstep>
  <scstep>
   <time name="dav">   10.18   10.20</time>
   <time name="total">   10.18   10.20</time>
   <energy>
    <i name="e_fr_energy">    -55.70279043 </i>
    <i name="e_wo_entrp">    -55.71215517 </i>
    <i name="e_0_energy">    -55.70591201 </i>
   </energy>
  </scstep>
  <scstep>
   <time name="dav">   11.91   11.94</time>
   <time name="total">   12.61   12.65</time>
   <energy>
    <i name="e_fr_energy">    -57.15513279 </i>
    <i name="e_wo_entrp">    -57.16455543 </i>
    <i name="e_0_energy">    -57.15827367 </i>
   </energy>
  </scstep>
  <scstep>
   <time name="diag">    1.10    1.10</time>
   <time name="diis">    6.80    6.81</time>
   <time name="orth">    0.05    0.05</time>
   <time name="total">    9.77    9.79</time>
   <energy>
    <i name="e_fr_energy">    -55.84079106 </i>
    <i name="e_wo_entrp">    -55.84865721 </i>
    <i name="e_0_energy">    -55.84341311 </i>
   </energy>
  </scstep>
  <scstep>
   <time name="diag">    1.10    1.10</time>
   <time name="diis">    6.41    6.42</time>
   <time name="orth">    0.06    0.06</time>
   <time name="total">    9.39    9.41</time>
   <energy>
    <i name="e_fr_energy">    -49.12562979 </i>
    <i name="e_wo_entrp">    -49.13452832 </i>
    <i name="e_0_energy">    -49.12859597 </i>
   </energy>
  </scstep>
  <scstep>
   <time name="diag">    1.10    1.10</time>
   <time name="diis">    7.66    7.67</time>
   <time name="orth">    0.05    0.05</time>
   <time name="total">   10.64   10.66</time>
   <energy>
    <i name="e_fr_energy">    -48.91522371 </i>
    <i name="e_wo_entrp">    -48.92445608 </i>
    <i name="e_0_energy">    -48.91830117 </i>
   </energy>
  </scstep>
  <scstep>
   <time name="diag">    1.10    1.10</time>
   <time name="diis">    7.00    7.01</time>
   <time name="orth">    0.06    0.06</time>
   <time name="total">   10.03   10.05</time>
   <energy>
    <i name="e_fr_energy">    -48.86917866 </i>
    <i name="e_wo_entrp">    -48.87841453 </i>
    <i name="e_0_energy">    -48.87225728 </i>
   </energy>
  </scstep>
  <scstep>
   <time name="diag">    1.10    1.10</time>
   <time name="diis">    6.87    6.89</time>
   <time name="orth">    0.05    0.05</time>
   <time name="total">    9.90    9.93</time>
   <energy>
    <i name="e_fr_energy">    -48.81036181 </i>
    <i name="e_wo_entrp">    -48.81955840 </i>
    <i name="e_0_energy">    -48.81342734 </i>
   </energy>
  </scstep>
  <scstep>
   <time name="diag">    1.10    1.10</time>
   <time name="diis">    7.04    7.05</time>
   <time name="orth">    0.05    0.05</time>
   <time name="total">   10.05   10.07</time>
   <energy>
    <i name="e_fr_energy">    -48.79955783 </i>
    <i name="e_wo_entrp">    -48.80881441 </i>
    <i name="e_0_energy">    -48.80264336 </i>
   </energy>
  </scstep>
  <scstep>
   <time name="diag">    1.10    1.10</time>
   <time name="diis">    7.02    7.04</time>
   <time name="orth">    0.05    0.05</time>
   <time name="total">   10.03   10.06</time>
   <energy>
    <i name="e_fr_energy">    -48.79758650 </i>
    <i name="e_wo_entrp">    -48.80681469 </i>
    <i name="e_0_energy">    -48.80066256 </i>
   </energy>
  </scstep>
  <scstep>
   <time name="diag">    1.09    1.10</time>
   <time name="diis">    7.04    7.06</time>
   <time name="orth">    0.05    0.05</time>
   <time name="total">   10.03   10.07</time>
   <energy>
    <i name="e_fr_energy">    -48.79677185 </i>
    <i name="e_wo_entrp">    -48.80599654 </i>
    <i name="e_0_energy">    -48.79984675 </i>
   </energy>
  </scstep>
  <scstep>
   <time name="diag">    1.10    1.10</time>
   <time name="diis">    7.16    7.19</time>
   <time name="orth">    0.05    0.05</time>
   <time name="total">   10.16   10.19</time>
   <energy>
    <i name="e_fr_energy">    -48.79809852 </i>
    <i name="e_wo_entrp">    -48.80732366 </i>
    <i name="e_0_energy">    -48.80117357 </i>
   </energy>
  </scstep>
  <scstep>
   <time name="diag">    1.10    1.10</time>
   <time name="diis">    6.63    6.65</time>
   <time name="orth">    0.05    0.05</time>
   <time name="total">    9.62    9.66</time>
   <energy>
    <i name="e_fr_energy">    -48.79935342 </i>
    <i name="e_wo_entrp">    -48.80857433 </i>
    <i name="e_0_energy">    -48.80242706 </i>
   </energy>
  </scstep>
  <scstep>
   <time name="diag">    1.10    1.10</time>
   <time name="diis">    6.53    6.55</time>
   <time name="orth">    0.05    0.05</time>
   <time name="total">    9.52    9.55</time>
   <energy>
    <i name="e_fr_energy">    -48.80121358 </i>
    <i name="e_wo_entrp">    -48.81044622 </i>
    <i name="e_0_energy">    -48.80429112 </i>
   </energy>
  </scstep>
  <scstep>
   <time name="diag">    1.09    1.10</time>
   <time name="diis">    6.71    6.73</time>
   <time name="orth">    0.05    0.05</time>
   <time name="total">    9.70    9.74</time>
   <energy>
    <i name="e_fr_energy">    -48.80266185 </i>
    <i name="e_wo_entrp">    -48.81189396 </i>
    <i name="e_0_energy">    -48.80573922 </i>
   </energy>
  </scstep>
  <scstep>
   <time name="diag">    1.09    1.10</time>
   <time name="diis">    6.61    6.64</time>
   <time name="orth">    0.05    0.05</time>
   <time name="total">    9.60    9.64</time>
   <energy>
    <i name="e_fr_energy">    -48.80354714 </i>
    <i name="e_wo_entrp">    -48.81277974 </i>
    <i name="e_0_energy">    -48.80662467 </i>
   </energy>
  </scstep>
  <scstep>
   <time name="diag">    1.10    1.10</time>
   <time name="diis">    6.58    6.61</time>
   <time name="orth">    0.05    0.05</time>
   <time name="total">    9.59    9.62</time>
   <energy>
    <i name="e_fr_energy">    -48.80428795 </i>
    <i name="e_wo_entrp">    -48.81351900 </i>
    <i name="e_0_energy">    -48.80736496 </i>
   </energy>
  </scstep>
  <scstep>
   <time name="diag">    1.10    1.10</time>
   <time name="diis">    6.76    6.79</time>
   <time name="orth">    0.05    0.05</time>
   <time name="total">    9.77    9.80</time>
   <energy>
    <i name="e_fr_energy">    -48.80476372 </i>
    <i name="e_wo_entrp">    -48.81399360 </i>
    <i name="e_0_energy">    -48.80784034 </i>
   </energy>
  </scstep>
  <scstep>
   <time name="diag">    1.10    1.10</time>
   <time name="diis">    6.59    6.61</time>
   <time name="orth">    0.05    0.05</time>
   <time name="total">    9.59    9.63</time>
   <energy>
    <i name="e_fr_energy">    -48.80517759 </i>
    <i name="e_wo_entrp">    -48.81440757 </i>
    <i name="e_0_energy">    -48.80825425 </i>
   </energy>
  </scstep>
  <scstep>
   <time name="diag">    1.10    1.10</time>
   <time name="diis">    6.60    6.62</time>
   <time name="orth">    0.05    0.05</time>
   <time name="total">    9.60    9.64</time>
   <energy>
    <i name="e_fr_energy">    -48.80537504 </i>
    <i name="e_wo_entrp">    -48.81460565 </i>
    <i name="e_0_energy">    -48.80845191 </i>
   </energy>
  </scstep>
  <scstep>
   <time name="diag">    1.10    1.11</time>
   <time name="diis">    6.77    6.81</time>
   <time name="orth">    0.05    0.05</time>
   <time name="total">    9.77    9.83</time>
   <energy>
    <i name="e_fr_energy">    -48.80550490 </i>
    <i name="e_wo_entrp">    -48.81473590 </i>
    <i name="e_0_energy">    -48.80858190 </i>
   </energy>
  </scstep>
  <scstep>
   <time name="diag">    1.09    1.10</time>
   <time name="diis">    6.52    6.55</time>
   <time name="orth">    0.05    0.05</time>
   <time name="total">    9.53    9.56</time>
   <energy>
    <i name="e_fr_energy">    -48.80560458 </i>
    <i name="e_wo_entrp">    -48.81483521 </i>
    <i name="e_0_energy">    -48.80868146 </i>
   </energy>
  </scstep>
  <scstep>
   <time name="diag">    1.10    1.10</time>
   <time name="diis">    6.30    6.32</time>
   <time name="orth">    0.05    0.05</time>
   <time name="total">    9.30    9.34</time>
   <energy>
    <i name="e_fr_energy">    -48.80566357 </i>
    <i name="e_wo_entrp">    -48.81489444 </i>
    <i name="e_0_energy">    -48.80874052 </i>
   </energy>
  </scstep>
  <scstep>
   <time name="diag">    1.09    1.10</time>
   <time name="diis">    5.83    5.85</time>
   <time name="orth">    0.05    0.05</time>
   <time name="total">    8.84    8.87</time>
   <energy>
    <i name="e_fr_energy">    -48.80569069 </i>
    <i name="e_wo_entrp">    -48.81492140 </i>
    <i name="e_0_energy">    -48.80876759 </i>
   </energy>
  </scstep>
  <scstep>
   <time name="diag">    1.09    1.10</time>
   <time name="diis">    4.87    4.88</time>
   <time name="orth">    0.05    0.05</time>
   <time name="total">    7.88    7.90</time>
   <energy>
    <i name="e_fr_energy">    -48.80570393 </i>
    <i name="e_wo_entrp">    -48.81493466 </i>
    <i name="e_0_energy">    -48.80878084 </i>
   </energy>
  </scstep>
  <scstep>
   <time name="diag">    1.09    1.10</time>
   <time name="diis">    4.32    4.33</time>
   <time name="orth">    0.05    0.05</time>
   <time name="total">    7.33    7.36</time>
   <energy>
    <i name="e_fr_energy">    -48.80570948 </i>
    <i name="e_wo_entrp">    -48.81494017 </i>
    <i name="e_0_energy">    -48.80878637 </i>
   </energy>
  </scstep>
  <scstep>
   <time name="diag">    1.10    1.10</time>
   <time name="diis">    4.57    4.59</time>
   <time name="orth">    0.06    0.06</time>
   <time name="total">    7.59    7.63</time>
   <energy>
    <i name="e_fr_energy">    -48.80571183 </i>
    <i name="e_wo_entrp">    -48.81494252 </i>
    <i name="e_0_energy">    -48.80878873 </i>
   </energy>
  </scstep>
  <scstep>
   <time name="diag">    1.10    1.10</time>
   <time name="diis">    4.35    4.37</time>
   <time name="orth">    0.05    0.05</time>
   <time name="total">    7.39    7.41</time>
   <energy>
    <i name="e_fr_energy">    -48.80571309 </i>
    <i name="e_wo_entrp">    -48.81494380 </i>
    <i name="e_0_energy">    -48.80878999 </i>
   </energy>
  </scstep>
  <scstep>
   <time name="diag">    1.10    1.10</time>
   <time name="diis">    4.68    4.70</time>
   <time name="orth">    0.05    0.05</time>
   <time name="total">    7.72    7.75</time>
   <energy>
    <i name="e_fr_energy">    -48.80571405 </i>
    <i name="e_wo_entrp">    -48.81494475 </i>
    <i name="e_0_energy">    -48.80879095 </i>
   </energy>
  </scstep>
  <scstep>
   <time name="diag">    1.09    1.10</time>
   <time name="diis">    4.27    4.28</time>
   <time name="orth">    0.05    0.05</time>
   <time name="total">    7.31    7.34</time>
   <energy>
    <i name="e_fr_energy">    -48.80571455 </i>
    <i name="e_wo_entrp">    -48.81494526 </i>
    <i name="e_0_energy">    -48.80879145 </i>
   </energy>
  </scstep>
  <scstep>
   <time name="diag">    1.09    1.10</time>
   <time name="diis">    4.27    4.29</time>
   <time name="orth">    0.05    0.05</time>
   <time name="total">    7.32    7.35</time>
   <energy>
    <i name="e_fr_energy">    -48.80571506 </i>
    <i name="e_wo_entrp">    -48.81494577 </i>
    <i name="e_0_energy">    -48.80879197 </i>
   </energy>
  </scstep>
  <scstep>
   <time name="diag">    1.10    1.10</time>
   <time name="diis">    4.10    4.11</time>
   <time name="orth">    0.05    0.05</time>
   <time name="total">    7.15    7.17</time>
   <energy>
    <i name="e_fr_energy">    -48.80571536 </i>
    <i name="e_wo_entrp">    -48.81494606 </i>
    <i name="e_0_energy">    -48.80879226 </i>
   </energy>
  </scstep>
  <scstep>
   <time name="diag">    1.10    1.10</time>
   <time name="diis">    3.74    3.75</time>
   <time name="orth">    0.06    0.06</time>
   <time name="total">    6.81    6.83</time>
   <energy>
    <i name="e_fr_energy">    -48.80571569 </i>
    <i name="e_wo_entrp">    -48.81494638 </i>
    <i name="e_0_energy">    -48.80879259 </i>
   </energy>
  </scstep>
  <scstep>
   <time name="diag">    1.10    1.11</time>
   <time name="diis">    3.61    3.62</time>
   <time name="orth">    0.05    0.05</time>
   <time name="total">    6.69    6.71</time>
   <energy>
    <i name="e_fr_energy">    -48.80571584 </i>
    <i name="e_wo_entrp">    -48.81494653 </i>
    <i name="e_0_energy">    -48.80879273 </i>
   </energy>
  </scstep>
  <scstep>
   <time name="diag">    1.10    1.10</time>
   <time name="diis">    3.40    3.41</time>
   <time name="orth">    0.05    0.05</time>
   <time name="total">    5.70    5.72</time>
   <energy>
    <i name="alphaZ">     41.16232785 </i>
    <i name="ewald">  16396.22573442 </i>
    <i name="hartreedc"> -33374.96869691 </i>
    <i name="XCdc">    615.67463717 </i>
    <i name="pawpsdc">  17692.35923287 </i>
    <i name="pawaedc"> -19091.28194148 </i>
    <i name="eentropy">      0.00923070 </i>
    <i name="bandstr">   -990.20548765 </i>
    <i name="atom">  18662.21924712 </i>
    <i name="e_fr_energy">    -48.80571592 </i>
    <i name="e_wo_entrp">    -48.81494662 </i>
    <i name="e_0_energy">    -48.80879282 </i>
   </energy>
  </scstep>
  <structure>
   <crystal>
    <varray name="basis" >
     <v>      15.00000000       0.00000000       0.00000000 </v>
     <v>       0.00000000      15.00000000       0.00000000 </v>
     <v>       0.00000000       0.00000000      15.00000000 </v>
    </varray>
    <i name="volume">   3375.00000000 </i>
    <varray name="rec_basis" >
     <v>       0.06666667       0.00000000       0.00000000 </v>
     <v>       0.00000000       0.06666667       0.00000000 </v>
     <v>       0.00000000       0.00000000       0.06666667 </v>
    </varray>
   </crystal>
   <varray name="positions" >
    <v>       0.29162667       0.41815467       0.55801067 </v>
    <v>       0.37699467       0.54275067       0.49273267 </v>
    <v>       0.39634467       0.29420200       0.55684800 </v>
    <v>       0.53442867       0.50563000       0.48126867 </v>
    <v>       0.54879400       0.35221667       0.53011933 </v>
    <v>       0.44295800       0.43728267       0.61130333 </v>
    <v>       0.41485667       0.39668267       0.44584400 </v>
    <v>       0.22571533       0.56623067       0.55319600 </v>
    <v>       0.33115933       0.54797267       0.66465867 </v>
    <v>       0.35044800       0.68369333       0.57112267 </v>
    <v>       0.48689600       0.66265800       0.47345800 </v>
    <v>       0.63261933       0.48704133       0.59592933 </v>
    <v>       0.48319200       0.58947067       0.61533000 </v>
    <v>       0.74376000       0.49610067       0.65057067 </v>
    <v>       0.81759333       0.50250200       0.66680000 </v>
   </varray>
  </structure>
  <varray name="forces" >
   <v>      -0.12507099       0.09502450       0.03394176 </v>
   <v>      -0.42131633       0.56634868       0.18085844 </v>
   <v>      -0.04830724      -0.66249963       0.45951816 </v>
   <v>      -0.29321104       0.07540590      -0.35710519 </v>
   <v>       0.25487503      -0.04640255      -0.10557314 </v>
   <v>       0.26414511      -0.09608817       0.10441066 </v>
   <v>       0.15530350       0.23421792      -0.19635541 </v>
   <v>      -0.07676902       0.22847473      -0.22604118 </v>
   <v>       0.48226618      -0.14077041      -0.35501274 </v>
   <v>       0.07493910      -0.32526565      -0.09586811 </v>
   <v>      -0.16434608       0.00308824       0.22084563 </v>
   <v>       0.16091314      -0.16182701       0.55160009 </v>
   <v>       0.12601104       0.24249850      -0.04275624 </v>
   <v>      -2.17649684      -0.16930916      -0.59092223 </v>
   <v>       1.78706445       0.15710413       0.41845950 </v>
  </varray>
  <varray name="stress" >
   <v>       0.25475506      -0.30260223       0.80102723 </v>
   <v>      -0.30260221       0.75937889      -0.59600269 </v>
   <v>       0.80102724      -0.59600269      -0.06382581 </v>
  </varray>
  <energy>
   <i name="e_fr_energy">    -48.80571592 </i>
   <i name="e_wo_entrp">    -48.80879282 </i>
   <i name="e_0_energy">      0.00923070 </i>
  </energy>
  <time name="totalsc">  344.52  345.63</time>
  <eigenvalues>
   <array>
    <dimension dim="1">band</dimension>
    <dimension dim="2">kpoint</dimension>
    <dimension dim="3">spin</dimension>
    <field>eigene</field>
    <field>occ</field>
    <set>
     <set comment="spin 1">
      <set comment="kpoint 1">
       <r>  -28.9131    1.0000 </r>
       <r>  -13.8955    1.0000 </r>
       <r>  -11.5195    1.0000 </r>
       <r>  -11.4406    1.0000 </r>
       <r>  -11.1298    1.0000 </r>
       <r>  -10.1846    1.0000 </r>
       <r>   -8.6021    1.0000 </r>
       <r>   -8.2328    1.0000 </r>
       <r>   -7.7022    1.0000 </r>
       <r>   -7.4994    1.0000 </r>
       <r>   -7.4247    1.0000 </r>
       <r>   -7.3432    1.0000 </r>
       <r>   -7.2541    1.0000 </r>
       <r>   -7.1666    1.0000 </r>
       <r>   -7.0014    1.0000 </r>
       <r>   -6.9901    1.0000 </r>
       <r>   -6.7792    1.0000 </r>
       <r>   -6.7707    1.0000 </r>
       <r>   -6.6170    1.0000 </r>
       <r>   -6.5933    1.0000 </r>
       <r>   -6.5541    1.0000 </r>
       <r>   -6.5250    1.0000 </r>
       <r>   -6.4980    1.0000 </r>
       <r>   -6.4685    1.0000 </r>
       <r>   -6.3957    1.0000 </r>
       <r>   -6.3742    1.0000 </r>
       <r>   -6.3042    1.0000 </r>
       <r>   -6.2812    1.0000 </r>
       <r>   -6.2620    1.0000 </r>
       <r>   -6.1914    1.0000 </r>
       <r>   -6.1505    1.0000 </r>
       <r>   -6.1283    1.0000 </r>
       <r>   -6.0581    1.0000 </r>
       <r>   -6.0482    1.0000 </r>
       <r>   -5.9735    1.0000 </r>
       <r>   -5.8521    1.0000 </r>
       <r>   -5.7878    1.0000 </r>
       <r>   -5.7613    1.0000 </r>
       <r>   -5.6934    1.0000 </r>
       <r>   -5.6324    1.0000 </r>
       <r>   -5.5935    1.0000 </r>
       <r>   -5.5390    1.0000 </r>
       <r>   -5.5110    1.0000 </r>
       <r>   -5.4939    1.0000 </r>
       <r>   -5.4710    1.0000 </r>
       <r>   -5.3990    1.0000 </r>
       <r>   -5.3757    1.0000 </r>
       <r>   -5.3442    1.0000 </r>
       <r>   -5.3423    1.0000 </r>
       <r>   -5.3053    1.0000 </r>
       <r>   -5.2977    1.0000 </r>
       <r>   -5.2679    1.0000 </r>
       <r>   -5.2404    1.0000 </r>
       <r>   -5.2257    1.0000 </r>
       <r>   -5.1849    1.0000 </r>
       <r>   -5.1455    1.0000 </r>
       <r>   -5.1253    1.0000 </r>
       <r>   -5.1104    1.0000 </r>
       <r>   -5.0994    1.0000 </r>
       <r>   -5.0654    1.0000 </r>
       <r>   -5.0541    1.0000 </r>
       <r>   -5.0124    1.0000 </r>
       <r>   -5.0022    1.0000 </r>
       <r>   -4.9677    1.0000 </r>
       <r>   -4.9291    1.0000 </r>
       <r>   -4.8976    1.0000 </r>
       <r>   -4.8832    1.0000 </r>
       <r>   -4.8559    1.0000 </r>
       <r>   -4.8475    1.0000 </r>
       <r>   -4.8188    1.0000 </r>
       <r>   -4.7989    1.0000 </r>
       <r>   -4.7692    1.0000 </r>
       <r>   -4.7009    1.0000 </r>
       <r>   -4.4966    1.0000 </r>
       <r>   -4.1645    1.0000 </r>
       <r>   -4.0732    1.0000 </r>
       <r>   -3.5650    1.0000 </r>
       <r>   -2.9828   -0.0000 </r>
       <r>   -2.8496   -0.0000 </r>
       <r>   -2.5295   -0.0000 </r>
       <r>   -2.3258   -0.0000 </r>
       <r>   -1.9416   -0.0000 </r>
       <r>   -1.8336   -0.0000 </r>
       <r>   -1.7100   -0.0000 </r>
       <r>   -1.4151   -0.0000 </r>
       <r>   -1.0915   -0.0000 </r>
       <r>   -0.9154   -0.0000 </r>
       <r>   -0.6832    0.0000 </r>
       <r>   -0.3618    0.0000 </r>
       <r>   -0.2271    0.0000 </r>
       <r>   -0.0696    0.0000 </r>
       <r>    0.1083    0.0000 </r>
      </set>
     </set>
     <set comment="spin 2">
      <set comment="kpoint 1">
       <r>  -28.8952    1.0000 </r>
       <r>  -13.8624    1.0000 </r>
       <r>  -11.4866    1.0000 </r>
       <r>  -11.4203    1.0000 </r>
       <r>  -11.0811    1.0000 </r>
       <r>  -10.1411    1.0000 </r>
       <r>   -8.5803    1.0000 </r>
       <r>   -8.1852    1.0000 </r>
       <r>   -7.6599    1.0000 </r>
       <r>   -7.4808    1.0000 </r>
       <r>   -7.3982    1.0000 </r>
       <r>   -7.2946    1.0000 </r>
       <r>   -7.2103    1.0000 </r>
       <r>   -7.1426    1.0000 </r>
       <r>   -6.9697    1.0000 </r>
       <r>   -6.9525    1.0000 </r>
       <r>   -6.7551    1.0000 </r>
       <r>   -6.7431    1.0000 </r>
       <r>   -6.5855    1.0000 </r>
       <r>   -6.5687    1.0000 </r>
       <r>   -6.5332    1.0000 </r>
       <r>   -6.4992    1.0000 </r>
       <r>   -6.4736    1.0000 </r>
       <r>   -6.4453    1.0000 </r>
       <r>   -6.3703    1.0000 </r>
       <r>   -6.3540    1.0000 </r>
       <r>   -6.2802    1.0000 </r>
       <r>   -6.2551    1.0000 </r>
       <r>   -6.2363    1.0000 </r>
       <r>   -6.1714    1.0000 </r>
       <r>   -6.1265    1.0000 </r>
       <r>   -6.0984    1.0000 </r>
       <r>   -6.0349    1.0000 </r>
       <r>   -6.0262    1.0000 </r>
       <r>   -5.9484    1.0000 </r>
       <r>   -5.8287    1.0000 </r>
       <r>   -5.7573    1.0000 </r>
       <r>   -5.7310    1.0000 </r>
       <r>   -5.6759    1.0000 </r>
       <r>   -5.6022    1.0000 </r>
       <r>   -5.5672    1.0000 </r>
       <r>   -5.5075    1.0000 </r>
       <r>   -5.4864    1.0000 </r>
       <r>   -5.4670    1.0000 </r>
       <r>   -5.4471    1.0000 </r>
       <r>   -5.3677    1.0000 </r>
       <r>   -5.3493    1.0000 </r>
       <r>   -5.3218    1.0000 </r>
       <r>   -5.3147    1.0000 </r>
       <r>   -5.2748    1.0000 </r>
       <r>   -5.2722    1.0000 </r>
       <r>   -5.2346    1.0000 </r>
       <r>   -5.2126    1.0000 </r>
       <r>   -5.2011    1.0000 </r>
       <r>   -5.1584    1.0000 </r>
       <r>   -5.1218    1.0000 </r>
       <r>   -5.1054    1.0000 </r>
       <r>   -5.0851    1.0000 </r>
       <r>   -5.0818    1.0000 </r>
       <r>   -5.0416    1.0000 </r>
       <r>   -5.0219    1.0000 </r>
       <r>   -4.9834    1.0000 </r>
       <r>   -4.9809    1.0000 </r>
       <r>   -4.9434    1.0000 </r>
       <r>   -4.9017    1.0000 </r>
       <r>   -4.8658    1.0000 </r>
       <r>   -4.8589    1.0000 </r>
       <r>   -4.8222    1.0000 </r>
       <r>   -4.8108    1.0000 </r>
       <r>   -4.7835    1.0000 </r>
       <r>   -4.7675    1.0000 </r>
       <r>   -4.7452    1.0000 </r>
       <r>   -4.6730    1.0000 </r>
       <r>   -4.4556    1.0000 </r>
       <r>   -4.0996    1.0334 </r>
       <r>   -4.0366    0.9666 </r>
       <r>   -3.3528   -0.0000 </r>
       <r>   -2.9324   -0.0000 </r>
       <r>   -2.7982   -0.0000 </r>
       <r>   -2.4681   -0.0000 </r>
       <r>   -2.2329   -0.0000 </r>
       <r>   -1.9078   -0.0000 </r>
       <r>   -1.7460   -0.0000 </r>
       <r>   -1.6508   -0.0000 </r>
       <r>   -1.3172   -0.0000 </r>
       <r>   -0.9331    0.0000 </r>
       <r>   -0.8606    0.0000 </r>
       <r>   -0.6170    0.0000 </r>
       <r>   -0.2540    0.0000 </r>
       <r>   -0.1677    0.0000 </r>
       <r>   -0.0157    0.0000 </r>
       <r>    0.1611    0.0000 </r>
      </set>
     </set>
    </set>
   </array>
  </eigenvalues>
  <separator name="orbital magnetization" >
   <v name="MAGDIPOLOUT">      0.00000000      0.00000000      0.00000000</v>
  </separator>
  <dos>
   <i name="efermi">     -3.96461564 </i>
   <total>
    <array>
     <dimension dim="1">gridpoints</dimension>
     <dimension dim="2">spin</dimension>
     <field>energy</field>
     <field>total</field>
     <field>integrated</field>
     <set>
      <set comment="spin 1">
       <r>   -30.3668     0.0000     0.0000 </r>
       <r>   -30.2602     0.0000     0.0000 </r>
       <r>   -30.1536     0.0000     0.0000 </r>
       <r>   -30.0470     0.0000     0.0000 </r>
       <r>   -29.9404     0.0000     0.0000 </r>
       <r>   -29.8338     0.0000     0.0000 </r>
       <r>   -29.7272    -0.0000    -0.0000 </r>
       <r>   -29.6206    -0.0000    -0.0000 </r>
       <r>   -29.5140    -0.0000    -0.0000 </r>
       <r>   -29.4074    -0.0000    -0.0000 </r>
       <r>   -29.3008    -0.0000    -0.0000 </r>
       <r>   -29.1941    -0.0049    -0.0005 </r>
       <r>   -29.0875    -0.3076    -0.0333 </r>
       <r>   -28.9809     1.2110     0.0958 </r>
       <r>   -28.8743    14.1538     1.6047 </r>
       <r>   -28.7677     4.2648     2.0593 </r>
       <r>   -28.6611    -0.5365     2.0021 </r>
       <r>   -28.5545    -0.0198     2.0000 </r>
       <r>   -28.4479    -0.0000     2.0000 </r>
       <r>   -28.3413    -0.0000     2.0000 </r>
       <r>   -28.2347    -0.0000     2.0000 </r>
       <r>   -28.1281     0.0000     2.0000 </r>
       <r>   -28.0215     0.0000     2.0000 </r>
       <r>   -27.9149     0.0000     2.0000 </r>
       <r>   -27.8083     0.0000     2.0000 </r>
       <r>   -27.7017     0.0000     2.0000 </r>
       <r>   -27.5951     0.0000     2.0000 </r>
       <r>   -27.4885     0.0000     2.0000 </r>
       <r>   -27.3819     0.0000     2.0000 </r>
       <r>   -27.2752     0.0000     2.0000 </r>
       <r>   -27.1686     0.0000     2.0000 </r>
       <r>   -27.0620     0.0000     2.0000 </r>
       <r>   -26.9554     0.0000     2.0000 </r>
       <r>   -26.8488     0.0000     2.0000 </r>
       <r>   -26.7422     0.0000     2.0000 </r>
       <r>   -26.6356     0.0000     2.0000 </r>
       <r>   -26.5290     0.0000     2.0000 </r>
       <r>   -26.4224     0.0000     2.0000 </r>
       <r>   -26.3158     0.0000     2.0000 </r>
       <r>   -26.2092     0.0000     2.0000 </r>
       <r>   -26.1026     0.0000     2.0000 </r>
       <r>   -25.9960     0.0000     2.0000 </r>
       <r>   -25.8894     0.0000     2.0000 </r>
       <r>   -25.7828     0.0000     2.0000 </r>
       <r>   -25.6762     0.0000     2.0000 </r>
       <r>   -25.5696     0.0000     2.0000 </r>
       <r>   -25.4630     0.0000     2.0000 </r>
       <r>   -25.3563     0.0000     2.0000 </r>
       <r>   -25.2497     0.0000     2.0000 </r>
       <r>   -25.1431     0.0000     2.0000 </r>
       <r>   -25.0365     0.0000     2.0000 </r>
       <r>   -24.9299     0.0000     2.0000 </r>
       <r>   -24.8233     0.0000     2.0000 </r>
       <r>   -24.7167     0.0000     2.0000 </r>
       <r>   -24.6101     0.0000     2.0000 </r>
       <r>   -24.5035     0.0000     2.0000 </r>
       <r>   -24.3969     0.0000     2.0000 </r>
       <r>   -24.2903     0.0000     2.0000 </r>
       <r>   -24.1837     0.0000     2.0000 </r>
       <r>   -24.0771     0.0000     2.0000 </r>
       <r>   -23.9705     0.0000     2.0000 </r>
       <r>   -23.8639     0.0000     2.0000 </r>
       <r>   -23.7573     0.0000     2.0000 </r>
       <r>   -23.6507     0.0000     2.0000 </r>
       <r>   -23.5441     0.0000     2.0000 </r>
       <r>   -23.4374     0.0000     2.0000 </r>
       <r>   -23.3308     0.0000     2.0000 </r>
       <r>   -23.2242     0.0000     2.0000 </r>
       <r>   -23.1176     0.0000     2.0000 </r>
       <r>   -23.0110     0.0000     2.0000 </r>
       <r>   -22.9044     0.0000     2.0000 </r>
       <r>   -22.7978     0.0000     2.0000 </r>
       <r>   -22.6912     0.0000     2.0000 </r>
       <r>   -22.5846     0.0000     2.0000 </r>
       <r>   -22.4780     0.0000     2.0000 </r>
       <r>   -22.3714     0.0000     2.0000 </r>
       <r>   -22.2648     0.0000     2.0000 </r>
       <r>   -22.1582     0.0000     2.0000 </r>
       <r>   -22.0516     0.0000     2.0000 </r>
       <r>   -21.9450     0.0000     2.0000 </r>
       <r>   -21.8384     0.0000     2.0000 </r>
       <r>   -21.7318     0.0000     2.0000 </r>
       <r>   -21.6252     0.0000     2.0000 </r>
       <r>   -21.5185     0.0000     2.0000 </r>
       <r>   -21.4119     0.0000     2.0000 </r>
       <r>   -21.3053     0.0000     2.0000 </r>
       <r>   -21.1987     0.0000     2.0000 </r>
       <r>   -21.0921     0.0000     2.0000 </r>
       <r>   -20.9855     0.0000     2.0000 </r>
       <r>   -20.8789     0.0000     2.0000 </r>
       <r>   -20.7723     0.0000     2.0000 </r>
       <r>   -20.6657     0.0000     2.0000 </r>
       <r>   -20.5591     0.0000     2.0000 </r>
       <r>   -20.4525     0.0000     2.0000 </r>
       <r>   -20.3459     0.0000     2.0000 </r>
       <r>   -20.2393     0.0000     2.0000 </r>
       <r>   -20.1327     0.0000     2.0000 </r>
       <r>   -20.0261     0.0000     2.0000 </r>
       <r>   -19.9195     0.0000     2.0000 </r>
       <r>   -19.8129     0.0000     2.0000 </r>
       <r>   -19.7063     0.0000     2.0000 </r>
       <r>   -19.5996     0.0000     2.0000 </r>
       <r>   -19.4930     0.0000     2.0000 </r>
       <r>   -19.3864     0.0000     2.0000 </r>
       <r>   -19.2798     0.0000     2.0000 </r>
       <r>   -19.1732     0.0000     2.0000 </r>
       <r>   -19.0666     0.0000     2.0000 </r>
       <r>   -18.9600     0.0000     2.0000 </r>
       <r>   -18.8534     0.0000     2.0000 </r>
       <r>   -18.7468     0.0000     2.0000 </r>
       <r>   -18.6402     0.0000     2.0000 </r>
       <r>   -18.5336     0.0000     2.0000 </r>
       <r>   -18.4270     0.0000     2.0000 </r>
       <r>   -18.3204     0.0000     2.0000 </r>
       <r>   -18.2138     0.0000     2.0000 </r>
       <r>   -18.1072     0.0000     2.0000 </r>
       <r>   -18.0006     0.0000     2.0000 </r>
       <r>   -17.8940     0.0000     2.0000 </r>
       <r>   -17.7874     0.0000     2.0000 </r>
       <r>   -17.6807     0.0000     2.0000 </r>
       <r>   -17.5741     0.0000     2.0000 </r>
       <r>   -17.4675     0.0000     2.0000 </r>
       <r>   -17.3609     0.0000     2.0000 </r>
       <r>   -17.2543     0.0000     2.0000 </r>
       <r>   -17.1477     0.0000     2.0000 </r>
       <r>   -17.0411     0.0000     2.0000 </r>
       <r>   -16.9345     0.0000     2.0000 </r>
       <r>   -16.8279     0.0000     2.0000 </r>
       <r>   -16.7213     0.0000     2.0000 </r>
       <r>   -16.6147     0.0000     2.0000 </r>
       <r>   -16.5081     0.0000     2.0000 </r>
       <r>   -16.4015     0.0000     2.0000 </r>
       <r>   -16.2949     0.0000     2.0000 </r>
       <r>   -16.1883     0.0000     2.0000 </r>
       <r>   -16.0817     0.0000     2.0000 </r>
       <r>   -15.9751     0.0000     2.0000 </r>
       <r>   -15.8685     0.0000     2.0000 </r>
       <r>   -15.7618     0.0000     2.0000 </r>
       <r>   -15.6552     0.0000     2.0000 </r>
       <r>   -15.5486     0.0000     2.0000 </r>
       <r>   -15.4420     0.0000     2.0000 </r>
       <r>   -15.3354     0.0000     2.0000 </r>
       <r>   -15.2288     0.0000     2.0000 </r>
       <r>   -15.1222     0.0000     2.0000 </r>
       <r>   -15.0156     0.0000     2.0000 </r>
       <r>   -14.9090     0.0000     2.0000 </r>
       <r>   -14.8024     0.0000     2.0000 </r>
       <r>   -14.6958    -0.0000     2.0000 </r>
       <r>   -14.5892    -0.0000     2.0000 </r>
       <r>   -14.4826    -0.0000     2.0000 </r>
       <r>   -14.3760    -0.0000     2.0000 </r>
       <r>   -14.2694    -0.0000     2.0000 </r>
       <r>   -14.1628    -0.0097     1.9990 </r>
       <r>   -14.0562    -0.4171     1.9545 </r>
       <r>   -13.9496     2.4595     2.2167 </r>
       <r>   -13.8429    14.5458     3.7674 </r>
       <r>   -13.7363     2.6225     4.0469 </r>
       <r>   -13.6297    -0.4298     4.0011 </r>
       <r>   -13.5231    -0.0104     4.0000 </r>
       <r>   -13.4165    -0.0000     4.0000 </r>
       <r>   -13.3099    -0.0000     4.0000 </r>
       <r>   -13.2033    -0.0000     4.0000 </r>
       <r>   -13.0967     0.0000     4.0000 </r>
       <r>   -12.9901     0.0000     4.0000 </r>
       <r>   -12.8835     0.0000     4.0000 </r>
       <r>   -12.7769     0.0000     4.0000 </r>
       <r>   -12.6703     0.0000     4.0000 </r>
       <r>   -12.5637     0.0000     4.0000 </r>
       <r>   -12.4571     0.0000     4.0000 </r>
       <r>   -12.3505    -0.0000     4.0000 </r>
       <r>   -12.2439    -0.0000     4.0000 </r>
       <r>   -12.1373    -0.0000     4.0000 </r>
       <r>   -12.0307    -0.0000     4.0000 </r>
       <r>   -11.9240    -0.0000     4.0000 </r>
       <r>   -11.8174    -0.0020     3.9998 </r>
       <r>   -11.7108    -0.2028     3.9782 </r>
       <r>   -11.6042    -0.2192     3.9548 </r>
       <r>   -11.4976    14.9423     5.5477 </r>
       <r>   -11.3910    21.1630     7.8038 </r>
       <r>   -11.2844     1.8677     8.0029 </r>
       <r>   -11.1778     2.6337     8.2837 </r>
       <r>   -11.0712    14.4815     9.8275 </r>
       <r>   -10.9646     2.0057    10.0413 </r>
       <r>   -10.8580    -0.3800    10.0008 </r>
       <r>   -10.7514    -0.0077    10.0000 </r>
       <r>   -10.6448    -0.0000    10.0000 </r>
       <r>   -10.5382    -0.0001    10.0000 </r>
       <r>   -10.4316    -0.0248     9.9974 </r>
       <r>   -10.3250    -0.5688     9.9367 </r>
       <r>   -10.2184     4.9388    10.4632 </r>
       <r>   -10.1118    13.8423    11.9389 </r>
       <r>   -10.0051     0.8479    12.0293 </r>
       <r>    -9.8985    -0.2709    12.0004 </r>
       <r>    -9.7919    -0.0037    12.0000 </r>
       <r>    -9.6853    -0.0000    12.0000 </r>
       <r>    -9.5787    -0.0000    12.0000 </r>
       <r>    -9.4721    -0.0000    12.0000 </r>
       <r>    -9.3655    -0.0000    12.0000 </r>
       <r>    -9.2589    -0.0000    12.0000 </r>
       <r>    -9.1523    -0.0000    12.0000 </r>
       <r>    -9.0457    -0.0000    12.0000 </r>
       <r>    -8.9391    -0.0002    12.0000 </r>
       <r>    -8.8325    -0.0497    11.9947 </r>
       <r>    -8.7259    -0.6149    11.9291 </r>
       <r>    -8.6193     7.3625    12.7140 </r>
       <r>    -8.5127    12.2529    14.0203 </r>
       <r>    -8.4061    -0.3413    13.9839 </r>
       <r>    -8.2995     1.1323    14.1046 </r>
       <r>    -8.1929    14.2113    15.6196 </r>
       <r>    -8.0862     4.1157    16.0583 </r>
       <r>    -7.9796    -0.5343    16.0014 </r>
       <r>    -7.8730    -0.3545    15.9636 </r>
       <r>    -7.7664     1.4963    16.1231 </r>
       <r>    -7.6598    13.8645    17.6011 </r>
       <r>    -7.5532     5.5613    18.1940 </r>
       <r>    -7.4466    20.0678    20.3334 </r>
       <r>    -7.3400    25.5882    23.0612 </r>
       <r>    -7.2334    23.1103    25.5249 </r>
       <r>    -7.1268    19.1045    27.5615 </r>
       <r>    -7.0202    15.9309    29.2599 </r>
       <r>    -6.9136    24.2860    31.8489 </r>
       <r>    -6.8070    10.6956    32.9891 </r>
       <r>    -6.7004    25.6837    35.7271 </r>
       <r>    -6.5938    28.5086    38.7663 </r>
       <r>    -6.4872    61.7714    45.3515 </r>
       <r>    -6.3806    45.7601    50.2297 </r>
       <r>    -6.2740    48.6969    55.4211 </r>
       <r>    -6.1673    48.0241    60.5407 </r>
       <r>    -6.0607    48.7588    65.7387 </r>
       <r>    -5.9541    33.9151    69.3542 </r>
       <r>    -5.8475    17.9421    71.2670 </r>
       <r>    -5.7409    37.4167    75.2558 </r>
       <r>    -5.6343    35.8387    79.0764 </r>
       <r>    -5.5277    49.6497    84.3693 </r>
       <r>    -5.4211    58.2787    90.5822 </r>
       <r>    -5.3145    75.4579    98.6264 </r>
       <r>    -5.2079    82.5620   107.4280 </r>
       <r>    -5.1013    79.7285   115.9275 </r>
       <r>    -4.9947    83.6778   124.8480 </r>
       <r>    -4.8881    74.1660   132.7545 </r>
       <r>    -4.7815    84.3433   141.7459 </r>
       <r>    -4.6749    36.5927   145.6469 </r>
       <r>    -4.5683     4.8231   146.1611 </r>
       <r>    -4.4617    13.0928   147.5569 </r>
       <r>    -4.3551     4.5361   148.0404 </r>
       <r>    -4.2484    -0.6501   147.9711 </r>
       <r>    -4.1418    13.9985   149.4634 </r>
       <r>    -4.0352    20.6396   151.6637 </r>
       <r>    -3.9286     3.7566   152.0642 </r>
       <r>    -3.8220    -0.5974   152.0005 </r>
       <r>    -3.7154    -0.5202   151.9451 </r>
       <r>    -3.6088     3.6256   152.3316 </r>
       <r>    -3.5022    14.3780   153.8644 </r>
       <r>    -3.3956     1.6252   154.0376 </r>
       <r>    -3.2890    -0.3478   154.0005 </r>
       <r>    -3.1824    -0.1572   153.9838 </r>
       <r>    -3.0758    -0.2119   153.9612 </r>
       <r>    -2.9692    11.2191   155.1572 </r>
       <r>    -2.8626    15.9107   156.8534 </r>
       <r>    -2.7560    11.0778   158.0343 </r>
       <r>    -2.6494    -0.8368   157.9451 </r>
       <r>    -2.5428     7.7253   158.7687 </r>
       <r>    -2.4362    11.2486   159.9679 </r>
       <r>    -2.3295     9.2333   160.9522 </r>
       <r>    -2.2229    10.3473   162.0553 </r>
       <r>    -2.1163    -0.7234   161.9781 </r>
       <r>    -2.0097     0.7795   162.0612 </r>
       <r>    -1.9031    15.0373   163.6643 </r>
       <r>    -1.7965    18.4658   165.6329 </r>
       <r>    -1.6899    16.5303   167.3951 </r>
       <r>    -1.5833     5.9937   168.0340 </r>
       <r>    -1.4767     1.0915   168.1504 </r>
       <r>    -1.3701    14.3674   169.6820 </r>
       <r>    -1.2635     3.1562   170.0185 </r>
       <r>    -1.1569     0.8837   170.1127 </r>
       <r>    -1.0503    13.6627   171.5692 </r>
       <r>    -0.9437     9.6423   172.5971 </r>
       <r>    -0.8371    12.4203   173.9212 </r>
       <r>    -0.7305     3.6966   174.3153 </r>
       <r>    -0.6239    14.2330   175.8326 </r>
       <r>    -0.5173     1.4773   175.9901 </r>
       <r>    -0.4106     2.4077   176.2468 </r>
       <r>    -0.3040    15.0487   177.8511 </r>
       <r>    -0.1974    15.0041   179.4506 </r>
       <r>    -0.0908    11.7251   180.7005 </r>
       <r>     0.0158    11.9780   181.9775 </r>
       <r>     0.1224    12.0006   183.2568 </r>
       <r>     0.2290     7.6378   184.0710 </r>
       <r>     0.3356    -0.6099   184.0060 </r>
       <r>     0.4422    -0.0561   184.0000 </r>
       <r>     0.5488    -0.0002   184.0000 </r>
       <r>     0.6554    -0.0000   184.0000 </r>
       <r>     0.7620    -0.0000   184.0000 </r>
       <r>     0.8686     0.0000   184.0000 </r>
       <r>     0.9752     0.0000   184.0000 </r>
       <r>     1.0818     0.0000   184.0000 </r>
       <r>     1.1884     0.0000   184.0000 </r>
       <r>     1.2950     0.0000   184.0000 </r>
       <r>     1.4016     0.0000   184.0000 </r>
       <r>     1.5083     0.0000   184.0000 </r>
       <r>     1.6149     0.0000   184.0000 </r>
      </set>
      <set comment="spin 2">
       <r>   -30.3668     0.0000     0.0000 </r>
       <r>   -30.2602     0.0000     0.0000 </r>
       <r>   -30.1536     0.0000     0.0000 </r>
       <r>   -30.0470     0.0000     0.0000 </r>
       <r>   -29.9404     0.0000     0.0000 </r>
       <r>   -29.8338     0.0000     0.0000 </r>
       <r>   -29.7272    -0.0000    -0.0000 </r>
       <r>   -29.6206    -0.0000    -0.0000 </r>
       <r>   -29.5140    -0.0000    -0.0000 </r>
       <r>   -29.4074    -0.0000    -0.0000 </r>
       <r>   -29.3008    -0.0000    -0.0000 </r>
       <r>   -29.1941    -0.0019    -0.0002 </r>
       <r>   -29.0875    -0.1888    -0.0203 </r>
       <r>   -28.9809     0.1289    -0.0066 </r>
       <r>   -28.8743    12.6777     1.3449 </r>
       <r>   -28.7677     6.8032     2.0702 </r>
       <r>   -28.6611    -0.6155     2.0046 </r>
       <r>   -28.5545    -0.0428     2.0000 </r>
       <r>   -28.4479    -0.0002     2.0000 </r>
       <r>   -28.3413    -0.0000     2.0000 </r>
       <r>   -28.2347    -0.0000     2.0000 </r>
       <r>   -28.1281     0.0000     2.0000 </r>
       <r>   -28.0215     0.0000     2.0000 </r>
       <r>   -27.9149     0.0000     2.0000 </r>
       <r>   -27.8083     0.0000     2.0000 </r>
       <r>   -27.7017     0.0000     2.0000 </r>
       <r>   -27.5951     0.0000     2.0000 </r>
       <r>   -27.4885     0.0000     2.0000 </r>
       <r>   -27.3819     0.0000     2.0000 </r>
       <r>   -27.2752     0.0000     2.0000 </r>
       <r>   -27.1686     0.0000     2.0000 </r>
       <r>   -27.0620     0.0000     2.0000 </r>
       <r>   -26.9554     0.0000     2.0000 </r>
       <r>   -26.8488     0.0000     2.0000 </r>
       <r>   -26.7422     0.0000     2.0000 </r>
       <r>   -26.6356     0.0000     2.0000 </r>
       <r>   -26.5290     0.0000     2.0000 </r>
       <r>   -26.4224     0.0000     2.0000 </r>
       <r>   -26.3158     0.0000     2.0000 </r>
       <r>   -26.2092     0.0000     2.0000 </r>
       <r>   -26.1026     0.0000     2.0000 </r>
       <r>   -25.9960     0.0000     2.0000 </r>
       <r>   -25.8894     0.0000     2.0000 </r>
       <r>   -25.7828     0.0000     2.0000 </r>
       <r>   -25.6762     0.0000     2.0000 </r>
       <r>   -25.5696     0.0000     2.0000 </r>
       <r>   -25.4630     0.0000     2.0000 </r>
       <r>   -25.3563     0.0000     2.0000 </r>
       <r>   -25.2497     0.0000     2.0000 </r>
       <r>   -25.1431     0.0000     2.0000 </r>
       <r>   -25.0365     0.0000     2.0000 </r>
       <r>   -24.9299     0.0000     2.0000 </r>
       <r>   -24.8233     0.0000     2.0000 </r>
       <r>   -24.7167     0.0000     2.0000 </r>
       <r>   -24.6101     0.0000     2.0000 </r>
       <r>   -24.5035     0.0000     2.0000 </r>
       <r>   -24.3969     0.0000     2.0000 </r>
       <r>   -24.2903     0.0000     2.0000 </r>
       <r>   -24.1837     0.0000     2.0000 </r>
       <r>   -24.0771     0.0000     2.0000 </r>
       <r>   -23.9705     0.0000     2.0000 </r>
       <r>   -23.8639     0.0000     2.0000 </r>
       <r>   -23.7573     0.0000     2.0000 </r>
       <r>   -23.6507     0.0000     2.0000 </r>
       <r>   -23.5441     0.0000     2.0000 </r>
       <r>   -23.4374     0.0000     2.0000 </r>
       <r>   -23.3308     0.0000     2.0000 </r>
       <r>   -23.2242     0.0000     2.0000 </r>
       <r>   -23.1176     0.0000     2.0000 </r>
       <r>   -23.0110     0.0000     2.0000 </r>
       <r>   -22.9044     0.0000     2.0000 </r>
       <r>   -22.7978     0.0000     2.0000 </r>
       <r>   -22.6912     0.0000     2.0000 </r>
       <r>   -22.5846     0.0000     2.0000 </r>
       <r>   -22.4780     0.0000     2.0000 </r>
       <r>   -22.3714     0.0000     2.0000 </r>
       <r>   -22.2648     0.0000     2.0000 </r>
       <r>   -22.1582     0.0000     2.0000 </r>
       <r>   -22.0516     0.0000     2.0000 </r>
       <r>   -21.9450     0.0000     2.0000 </r>
       <r>   -21.8384     0.0000     2.0000 </r>
       <r>   -21.7318     0.0000     2.0000 </r>
       <r>   -21.6252     0.0000     2.0000 </r>
       <r>   -21.5185     0.0000     2.0000 </r>
       <r>   -21.4119     0.0000     2.0000 </r>
       <r>   -21.3053     0.0000     2.0000 </r>
       <r>   -21.1987     0.0000     2.0000 </r>
       <r>   -21.0921     0.0000     2.0000 </r>
       <r>   -20.9855     0.0000     2.0000 </r>
       <r>   -20.8789     0.0000     2.0000 </r>
       <r>   -20.7723     0.0000     2.0000 </r>
       <r>   -20.6657     0.0000     2.0000 </r>
       <r>   -20.5591     0.0000     2.0000 </r>
       <r>   -20.4525     0.0000     2.0000 </r>
       <r>   -20.3459     0.0000     2.0000 </r>
       <r>   -20.2393     0.0000     2.0000 </r>
       <r>   -20.1327     0.0000     2.0000 </r>
       <r>   -20.0261     0.0000     2.0000 </r>
       <r>   -19.9195     0.0000     2.0000 </r>
       <r>   -19.8129     0.0000     2.0000 </r>
       <r>   -19.7063     0.0000     2.0000 </r>
       <r>   -19.5996     0.0000     2.0000 </r>
       <r>   -19.4930     0.0000     2.0000 </r>
       <r>   -19.3864     0.0000     2.0000 </r>
       <r>   -19.2798     0.0000     2.0000 </r>
       <r>   -19.1732     0.0000     2.0000 </r>
       <r>   -19.0666     0.0000     2.0000 </r>
       <r>   -18.9600     0.0000     2.0000 </r>
       <r>   -18.8534     0.0000     2.0000 </r>
       <r>   -18.7468     0.0000     2.0000 </r>
       <r>   -18.6402     0.0000     2.0000 </r>
       <r>   -18.5336     0.0000     2.0000 </r>
       <r>   -18.4270     0.0000     2.0000 </r>
       <r>   -18.3204     0.0000     2.0000 </r>
       <r>   -18.2138     0.0000     2.0000 </r>
       <r>   -18.1072     0.0000     2.0000 </r>
       <r>   -18.0006     0.0000     2.0000 </r>
       <r>   -17.8940     0.0000     2.0000 </r>
       <r>   -17.7874     0.0000     2.0000 </r>
       <r>   -17.6807     0.0000     2.0000 </r>
       <r>   -17.5741     0.0000     2.0000 </r>
       <r>   -17.4675     0.0000     2.0000 </r>
       <r>   -17.3609     0.0000     2.0000 </r>
       <r>   -17.2543     0.0000     2.0000 </r>
       <r>   -17.1477     0.0000     2.0000 </r>
       <r>   -17.0411     0.0000     2.0000 </r>
       <r>   -16.9345     0.0000     2.0000 </r>
       <r>   -16.8279     0.0000     2.0000 </r>
       <r>   -16.7213     0.0000     2.0000 </r>
       <r>   -16.6147     0.0000     2.0000 </r>
       <r>   -16.5081     0.0000     2.0000 </r>
       <r>   -16.4015     0.0000     2.0000 </r>
       <r>   -16.2949     0.0000     2.0000 </r>
       <r>   -16.1883     0.0000     2.0000 </r>
       <r>   -16.0817     0.0000     2.0000 </r>
       <r>   -15.9751     0.0000     2.0000 </r>
       <r>   -15.8685     0.0000     2.0000 </r>
       <r>   -15.7618     0.0000     2.0000 </r>
       <r>   -15.6552     0.0000     2.0000 </r>
       <r>   -15.5486     0.0000     2.0000 </r>
       <r>   -15.4420     0.0000     2.0000 </r>
       <r>   -15.3354     0.0000     2.0000 </r>
       <r>   -15.2288     0.0000     2.0000 </r>
       <r>   -15.1222     0.0000     2.0000 </r>
       <r>   -15.0156     0.0000     2.0000 </r>
       <r>   -14.9090     0.0000     2.0000 </r>
       <r>   -14.8024     0.0000     2.0000 </r>
       <r>   -14.6958    -0.0000     2.0000 </r>
       <r>   -14.5892    -0.0000     2.0000 </r>
       <r>   -14.4826    -0.0000     2.0000 </r>
       <r>   -14.3760    -0.0000     2.0000 </r>
       <r>   -14.2694    -0.0000     2.0000 </r>
       <r>   -14.1628    -0.0017     1.9998 </r>
       <r>   -14.0562    -0.1810     1.9805 </r>
       <r>   -13.9496     0.0684     1.9878 </r>
       <r>   -13.8429    12.5238     3.3229 </r>
       <r>   -13.7363     7.0129     4.0705 </r>
       <r>   -13.6297    -0.6162     4.0048 </r>
       <r>   -13.5231    -0.0453     4.0000 </r>
       <r>   -13.4165    -0.0002     4.0000 </r>
       <r>   -13.3099    -0.0000     4.0000 </r>
       <r>   -13.2033    -0.0000     4.0000 </r>
       <r>   -13.0967     0.0000     4.0000 </r>
       <r>   -12.9901     0.0000     4.0000 </r>
       <r>   -12.8835     0.0000     4.0000 </r>
       <r>   -12.7769     0.0000     4.0000 </r>
       <r>   -12.6703     0.0000     4.0000 </r>
       <r>   -12.5637     0.0000     4.0000 </r>
       <r>   -12.4571     0.0000     4.0000 </r>
       <r>   -12.3505    -0.0000     4.0000 </r>
       <r>   -12.2439    -0.0000     4.0000 </r>
       <r>   -12.1373    -0.0000     4.0000 </r>
       <r>   -12.0307    -0.0000     4.0000 </r>
       <r>   -11.9240    -0.0000     4.0000 </r>
       <r>   -11.8174    -0.0003     4.0000 </r>
       <r>   -11.7108    -0.0662     3.9929 </r>
       <r>   -11.6042    -0.8346     3.9039 </r>
       <r>   -11.4976     8.8655     4.8491 </r>
       <r>   -11.3910    24.9824     7.5123 </r>
       <r>   -11.2844     5.2018     8.0669 </r>
       <r>   -11.1778    -0.9956     7.9607 </r>
       <r>   -11.0712    11.3192     9.1674 </r>
       <r>   -10.9646     8.4643    10.0697 </r>
       <r>   -10.8580    -0.5880    10.0071 </r>
       <r>   -10.7514    -0.0659    10.0000 </r>
       <r>   -10.6448    -0.0003    10.0000 </r>
       <r>   -10.5382    -0.0000    10.0000 </r>
       <r>   -10.4316    -0.0030     9.9997 </r>
       <r>   -10.3250    -0.2410     9.9740 </r>
       <r>   -10.2184     0.5706    10.0348 </r>
       <r>   -10.1118    13.5034    11.4744 </r>
       <r>   -10.0051     5.5523    12.0663 </r>
       <r>    -9.8985    -0.5915    12.0032 </r>
       <r>    -9.7919    -0.0300    12.0000 </r>
       <r>    -9.6853    -0.0001    12.0000 </r>
       <r>    -9.5787    -0.0000    12.0000 </r>
       <r>    -9.4721    -0.0000    12.0000 </r>
       <r>    -9.3655    -0.0000    12.0000 </r>
       <r>    -9.2589    -0.0000    12.0000 </r>
       <r>    -9.1523    -0.0000    12.0000 </r>
       <r>    -9.0457    -0.0000    12.0000 </r>
       <r>    -8.9391    -0.0000    12.0000 </r>
       <r>    -8.8325    -0.0196    11.9979 </r>
       <r>    -8.7259    -0.5348    11.9409 </r>
       <r>    -8.6193     4.2334    12.3922 </r>
       <r>    -8.5127    14.1662    13.9024 </r>
       <r>    -8.4061     1.1578    14.0258 </r>
       <r>    -8.2995    -0.8808    13.9319 </r>
       <r>    -8.1929     8.8051    14.8706 </r>
       <r>    -8.0862    11.0443    16.0480 </r>
       <r>    -7.9796    -0.3257    16.0133 </r>
       <r>    -7.8730    -0.2194    15.9899 </r>
       <r>    -7.7664    -0.4834    15.9383 </r>
       <r>    -7.6598     9.6834    16.9706 </r>
       <r>    -7.5532    10.3408    18.0730 </r>
       <r>    -7.4466    15.9380    19.7721 </r>
       <r>    -7.3400    21.9423    22.1113 </r>
       <r>    -7.2334    22.2956    24.4881 </r>
       <r>    -7.1268    25.6186    27.2192 </r>
       <r>    -7.0202    11.4727    28.4422 </r>
       <r>    -6.9136    27.0994    31.3312 </r>
       <r>    -6.8070    10.5532    32.4562 </r>
       <r>    -6.7004    26.1764    35.2468 </r>
       <r>    -6.5938    21.4187    37.5301 </r>
       <r>    -6.4872    59.7908    43.9042 </r>
       <r>    -6.3806    50.3463    49.2714 </r>
       <r>    -6.2740    45.6079    54.1334 </r>
       <r>    -6.1673    49.5843    59.4194 </r>
       <r>    -6.0607    48.2458    64.5626 </r>
       <r>    -5.9541    40.0192    68.8289 </r>
       <r>    -5.8475    17.2013    70.6627 </r>
       <r>    -5.7409    32.6542    74.1438 </r>
       <r>    -5.6343    37.7465    78.1678 </r>
       <r>    -5.5277    42.8247    82.7331 </r>
       <r>    -5.4211    59.9165    89.1205 </r>
       <r>    -5.3145    66.1118    96.1684 </r>
       <r>    -5.2079    86.5970   105.4001 </r>
       <r>    -5.1013    79.4969   113.8749 </r>
       <r>    -4.9947    85.2606   122.9642 </r>
       <r>    -4.8881    69.4956   130.3728 </r>
       <r>    -4.7815    84.5603   139.3874 </r>
       <r>    -4.6749    54.1076   145.1556 </r>
       <r>    -4.5683     8.4279   146.0541 </r>
       <r>    -4.4617     8.0225   146.9093 </r>
       <r>    -4.3551    10.6962   148.0496 </r>
       <r>    -4.2484    -0.9757   147.9456 </r>
       <r>    -4.1418     3.2478   148.2918 </r>
       <r>    -4.0352    24.4693   150.9004 </r>
       <r>    -3.9286    11.2466   152.0993 </r>
       <r>    -3.8220    -0.8346   152.0103 </r>
       <r>    -3.7154    -0.0964   152.0001 </r>
       <r>    -3.6088    -0.0171   151.9982 </r>
       <r>    -3.5022    -0.5075   151.9441 </r>
       <r>    -3.3956     3.7550   152.3444 </r>
       <r>    -3.2890    14.3389   153.8730 </r>
       <r>    -3.1824     1.5134   154.0344 </r>
       <r>    -3.0758    -0.8939   153.9391 </r>
       <r>    -2.9692     4.1845   154.3852 </r>
       <r>    -2.8626    15.5339   156.0412 </r>
       <r>    -2.7560    15.3780   157.6806 </r>
       <r>    -2.6494     3.2677   158.0289 </r>
       <r>    -2.5428     0.2094   158.0512 </r>
       <r>    -2.4362    13.5555   159.4963 </r>
       <r>    -2.3295     4.9309   160.0220 </r>
       <r>    -2.2229    10.7701   161.1701 </r>
       <r>    -2.1163     8.3259   162.0577 </r>
       <r>    -2.0097    -0.9939   161.9518 </r>
       <r>    -1.9031    10.0961   163.0281 </r>
       <r>    -1.7965    11.5709   164.2616 </r>
       <r>    -1.6899    18.2056   166.2024 </r>
       <r>    -1.5833    16.3367   167.9440 </r>
       <r>    -1.4767     0.4119   167.9879 </r>
       <r>    -1.3701     2.2692   168.2298 </r>
       <r>    -1.2635    14.5413   169.7800 </r>
       <r>    -1.1569     2.4265   170.0387 </r>
       <r>    -1.0503    -1.2164   169.9090 </r>
       <r>    -0.9437     8.6058   170.8265 </r>
       <r>    -0.8371    24.3277   173.4199 </r>
       <r>    -0.7305     5.5902   174.0159 </r>
       <r>    -0.6239     8.1821   174.8881 </r>
       <r>    -0.5173    10.8843   176.0484 </r>
       <r>    -0.4106    -0.8242   175.9606 </r>
       <r>    -0.3040     2.1795   176.1929 </r>
       <r>    -0.1974    19.7751   178.3011 </r>
       <r>    -0.0908    16.4173   180.0512 </r>
       <r>     0.0158    13.3295   181.4722 </r>
       <r>     0.1224     9.2710   182.4606 </r>
       <r>     0.2290    13.5693   183.9071 </r>
       <r>     0.3356     1.1836   184.0333 </r>
       <r>     0.4422    -0.3077   184.0005 </r>
       <r>     0.5488    -0.0049   184.0000 </r>
       <r>     0.6554    -0.0000   184.0000 </r>
       <r>     0.7620    -0.0000   184.0000 </r>
       <r>     0.8686    -0.0000   184.0000 </r>
       <r>     0.9752     0.0000   184.0000 </r>
       <r>     1.0818     0.0000   184.0000 </r>
       <r>     1.1884     0.0000   184.0000 </r>
       <r>     1.2950     0.0000   184.0000 </r>
       <r>     1.4016     0.0000   184.0000 </r>
       <r>     1.5083     0.0000   184.0000 </r>
       <r>     1.6149     0.0000   184.0000 </r>
      </set>
     </set>
    </array>
   </total>
  </dos>
 </calculation>
 <structure name="finalpos" >
  <crystal>
   <varray name="basis" >
    <v>      15.00000000       0.00000000       0.00000000 </v>
    <v>       0.00000000      15.00000000       0.00000000 </v>
    <v>       0.00000000       0.00000000      15.00000000 </v>
   </varray>
   <i name="volume">   3375.00000000 </i>
   <varray name="rec_basis" >
    <v>       0.06666667       0.00000000       0.00000000 </v>
    <v>       0.00000000       0.06666667       0.00000000 </v>
    <v>       0.00000000       0.00000000       0.06666667 </v>
   </varray>
  </crystal>
  <varray name="positions" >
   <v>       0.29162667       0.41815467       0.55801067 </v>
   <v>       0.37699467       0.54275067       0.49273267 </v>
   <v>       0.39634467       0.29420200       0.55684800 </v>
   <v>       0.53442867       0.50563000       0.48126867 </v>
   <v>       0.54879400       0.35221667       0.53011933 </v>
   <v>       0.44295800       0.43728267       0.61130333 </v>
   <v>       0.41485667       0.39668267       0.44584400 </v>
   <v>       0.22571533       0.56623067       0.55319600 </v>
   <v>       0.33115933       0.54797267       0.66465867 </v>
   <v>       0.35044800       0.68369333       0.57112267 </v>
   <v>       0.48689600       0.66265800       0.47345800 </v>
   <v>       0.63261933       0.48704133       0.59592933 </v>
   <v>       0.48319200       0.58947067       0.61533000 </v>
   <v>       0.74376000       0.49610067       0.65057067 </v>
   <v>       0.81759333       0.50250200       0.66680000 </v>
  </varray>
 </structure>
</modeling>
