<?xml version="1.0" encoding="ISO-8859-1"?>
<modeling>
 <generator>
  <i name="program" type="string">vasp </i>
  <i name="version" type="string">5.4.4.18Apr17-6-g9f103f2a35  </i>
  <i name="subversion" type="string">(build May 08 2019 13:49:07) complex            parallel </i>
  <i name="platform" type="string">LinuxIFC </i>
  <i name="date" type="string">2019 11 13 </i>
  <i name="time" type="string">15:14:26 </i>
 </generator>
 <incar>
  <i type="string" name="SYSTEM"> CuCO</i>
  <i type="int" name="ISTART">     0</i>
  <i type="string" name="PREC">accurate</i>
  <i type="string" name="ALGO"> Fast</i>
  <i type="int" name="ISPIN">     2</i>
  <i type="int" name="INIWAV">     1</i>
  <i type="int" name="NELM">   300</i>
  <i type="int" name="NELMIN">     3</i>
  <i type="int" name="IBRION">    -1</i>
  <i name="EDIFF">      0.00000010</i>
  <i name="EDIFFG">     -0.00100000</i>
  <i type="int" name="NSW">     0</i>
  <i type="int" name="ISYM">     0</i>
  <i name="ENCUT">    600.00000000</i>
  <i name="NUPDOWN">      1.00000000</i>
  <i type="logical" name="LREAL"> F  </i>
  <i type="int" name="ISMEAR">     1</i>
  <i name="SIGMA">      0.10000000</i>
  <i name="KSPACING">      0.50000000</i>
  <i type="logical" name="KGAMMA"> F  </i>
  <i type="logical" name="LWAVE"> F  </i>
  <i type="logical" name="LCHARG"> F  </i>
  <v type="int" name="KPOINT_BSE">    -1     0     0     0</v>
  <i type="int" name="NELM">   300</i>
  <i type="string" name="GGA"> PE</i>
 </incar>
 <structure name="primitive_cell" >
  <crystal>
   <varray name="basis" >
    <v>      15.00000000       0.00000000       0.00000000 </v>
    <v>       0.00000000      15.00000000       0.00000000 </v>
    <v>       0.00000000       0.00000000      15.00000000 </v>
   </varray>
   <i name="volume">   3375.00000000 </i>
   <varray name="rec_basis" >
    <v>       0.06666667       0.00000000       0.00000000 </v>
    <v>       0.00000000       0.06666667       0.00000000 </v>
    <v>       0.00000000       0.00000000       0.06666667 </v>
   </varray>
  </crystal>
  <varray name="positions" >
   <v>       0.28901267       0.41974000      -0.44062667 </v>
   <v>       0.22423200      -0.43367467      -0.45520267 </v>
   <v>       0.33635533      -0.45340400      -0.34574933 </v>
   <v>       0.44534600       0.43815867      -0.38487800 </v>
   <v>       0.39702667       0.29206800      -0.43827200 </v>
   <v>       0.37694000      -0.45118467       0.49084800 </v>
   <v>       0.41622933       0.40185333       0.44556467 </v>
   <v>       0.48814133      -0.40943533      -0.38413333 </v>
   <v>      -0.45130467       0.34678867      -0.47170133 </v>
   <v>       0.35237600      -0.31603333      -0.42779667 </v>
   <v>      -0.46322333      -0.49563400       0.48075667 </v>
   <v>       0.48743533      -0.33478000       0.47682867 </v>
   <v>      -0.37952133       0.48045467      -0.39248133 </v>
   <v>      -0.26493333       0.49557133      -0.35047667 </v>
   <v>      -0.18784000       0.49918800      -0.34566000 </v>
  </varray>
 </structure>
 <varray name="primitive_index" >
  <v type="int" >        1 </v>
  <v type="int" >        8 </v>
  <v type="int" >        9 </v>
  <v type="int" >        6 </v>
  <v type="int" >        3 </v>
  <v type="int" >        2 </v>
  <v type="int" >        7 </v>
  <v type="int" >       13 </v>
  <v type="int" >        5 </v>
  <v type="int" >       10 </v>
  <v type="int" >        4 </v>
  <v type="int" >       11 </v>
  <v type="int" >       12 </v>
  <v type="int" >       14 </v>
  <v type="int" >       15 </v>
 </varray>
 <kpoints>
  <generation param="Monkhorst-Pack">
   <v type="int" name="divisions">       1        1        1 </v>
   <v name="usershift">      0.00000000       0.00000000       0.00000000 </v>
   <v name="genvec1">      1.00000000       0.00000000       0.00000000 </v>
   <v name="genvec2">      0.00000000       1.00000000       0.00000000 </v>
   <v name="genvec3">      0.00000000       0.00000000       1.00000000 </v>
   <v name="shift">      0.00000000       0.00000000       0.00000000 </v>
  </generation>
  <varray name="kpointlist" >
   <v>       0.00000000       0.00000000       0.00000000 </v>
  </varray>
  <varray name="weights" >
   <v>       1.00000000 </v>
  </varray>
 </kpoints>
 <parameters>
  <separator name="general" >
   <i type="string" name="SYSTEM">CuCO</i>
   <i type="logical" name="LCOMPAT"> F  </i>
  </separator>
  <separator name="electronic" >
   <i type="string" name="PREC">accura</i>
   <i name="ENMAX">    600.00000000</i>
   <i name="ENAUG">    644.87300000</i>
   <i name="EDIFF">      0.00000010</i>
   <i type="int" name="IALGO">    68</i>
   <i type="int" name="IWAVPR">    10</i>
   <i type="int" name="NBANDS">    92</i>
   <i name="NELECT">    153.00000000</i>
   <i type="int" name="TURBO">     0</i>
   <i type="int" name="IRESTART">     0</i>
   <i type="int" name="NREBOOT">     0</i>
   <i type="int" name="NMIN">     0</i>
   <i name="EREF">      0.00000000</i>
   <separator name="electronic smearing" >
    <i type="int" name="ISMEAR">     1</i>
    <i name="SIGMA">      0.10000000</i>
    <i name="KSPACING">      0.50000000</i>
    <i type="logical" name="KGAMMA"> F  </i>
   </separator>
   <separator name="electronic projectors" >
    <i type="logical" name="LREAL"> F  </i>
    <v name="ROPT">      0.00000000      0.00000000      0.00000000</v>
    <i type="int" name="LMAXPAW">  -100</i>
    <i type="int" name="LMAXMIX">     2</i>
    <i type="logical" name="NLSPLINE"> F  </i>
   </separator>
   <separator name="electronic startup" >
    <i type="int" name="ISTART">     0</i>
    <i type="int" name="ICHARG">     2</i>
    <i type="int" name="INIWAV">     1</i>
   </separator>
   <separator name="electronic spin" >
    <i type="int" name="ISPIN">     2</i>
    <i type="logical" name="LNONCOLLINEAR"> F  </i>
    <v name="MAGMOM">      0.06666667      0.06666667      0.06666667      0.06666667      0.06666667      0.06666667      0.06666667      0.06666667      0.06666667      0.06666667      0.06666667      0.06666667      0.06666667      0.06666667      0.06666667</v>
    <i name="NUPDOWN">      1.00000000</i>
    <i type="logical" name="LSORBIT"> F  </i>
    <v name="SAXIS">      0.00000000      0.00000000      1.00000000</v>
    <i type="logical" name="LSPIRAL"> F  </i>
    <v name="QSPIRAL">      0.00000000      0.00000000      0.00000000</v>
    <i type="logical" name="LZEROZ"> F  </i>
   </separator>
   <separator name="electronic exchange-correlation" >
    <i type="logical" name="LASPH"> F  </i>
    <i type="logical" name="LMETAGGA"> F  </i>
   </separator>
   <separator name="electronic convergence" >
    <i type="int" name="NELM">   300</i>
    <i type="int" name="NELMDL">    -5</i>
    <i type="int" name="NELMIN">     3</i>
    <i name="ENINI">    600.00000000</i>
    <separator name="electronic convergence detail" >
     <i type="logical" name="LDIAG"> T  </i>
     <i type="logical" name="LSUBROT"> F  </i>
     <i name="WEIMIN">      0.00000000</i>
     <i name="EBREAK">      0.00000000</i>
     <i name="DEPER">      0.30000000</i>
     <i type="int" name="NRMM">     4</i>
     <i name="TIME">      0.40000000</i>
    </separator>
   </separator>
   <separator name="electronic mixer" >
    <i name="AMIX">      0.40000000</i>
    <i name="BMIX">      1.00000000</i>
    <i name="AMIN">      0.10000000</i>
    <i name="AMIX_MAG">      1.60000000</i>
    <i name="BMIX_MAG">      1.00000000</i>
    <separator name="electronic mixer details" >
     <i type="int" name="IMIX">     4</i>
     <i type="logical" name="MIXFIRST"> F  </i>
     <i type="int" name="MAXMIX">   -45</i>
     <i name="WC">    100.00000000</i>
     <i type="int" name="INIMIX">     1</i>
     <i type="int" name="MIXPRE">     1</i>
     <i type="int" name="MREMOVE">     5</i>
    </separator>
   </separator>
   <separator name="electronic dipolcorrection" >
    <i type="logical" name="LDIPOL"> F  </i>
    <i type="logical" name="LMONO"> F  </i>
    <i type="int" name="IDIPOL">     0</i>
    <i name="EPSILON">      1.00000000</i>
    <v name="DIPOL">   -100.00000000   -100.00000000   -100.00000000</v>
    <i name="EFIELD">      0.00000000</i>
   </separator>
  </separator>
  <separator name="grids" >
   <i type="int" name="NGX">   120</i>
   <i type="int" name="NGY">   120</i>
   <i type="int" name="NGZ">   120</i>
   <i type="int" name="NGXF">   240</i>
   <i type="int" name="NGYF">   240</i>
   <i type="int" name="NGZF">   240</i>
   <i type="logical" name="ADDGRID"> F  </i>
  </separator>
  <separator name="ionic" >
   <i type="int" name="NSW">     0</i>
   <i type="int" name="IBRION">    -1</i>
   <i type="int" name="MDALGO">     0</i>
   <i type="int" name="ISIF">     2</i>
   <i name="PSTRESS">      0.00000000</i>
   <i name="EDIFFG">     -0.00100000</i>
   <i type="int" name="NFREE">     0</i>
   <i name="POTIM">      0.50000000</i>
   <i name="SMASS">     -3.00000000</i>
   <i name="SCALEE">      1.00000000</i>
  </separator>
  <separator name="ionic md" >
   <i name="TEBEG">      0.00010000</i>
   <i name="TEEND">      0.00010000</i>
   <i type="int" name="NBLOCK">     1</i>
   <i type="int" name="KBLOCK">     1</i>
   <i type="int" name="NPACO">   256</i>
   <i name="APACO">     16.00000000</i>
  </separator>
  <separator name="symmetry" >
   <i type="int" name="ISYM">     0</i>
   <i name="SYMPREC">      0.00001000</i>
  </separator>
  <separator name="dos" >
   <i type="int" name="LORBIT">     0</i>
   <v name="RWIGS">     -1.00000000     -1.00000000     -1.00000000</v>
   <i type="int" name="NEDOS">   301</i>
   <i name="EMIN">     10.00000000</i>
   <i name="EMAX">    -10.00000000</i>
   <i name="EFERMI">      0.00000000</i>
  </separator>
  <separator name="writing" >
   <i type="int" name="NWRITE">     2</i>
   <i type="logical" name="LWAVE"> F  </i>
   <i type="logical" name="LDOWNSAMPLE"> F  </i>
   <i type="logical" name="LCHARG"> F  </i>
   <i type="logical" name="LPARD"> F  </i>
   <i type="logical" name="LVTOT"> F  </i>
   <i type="logical" name="LVHAR"> F  </i>
   <i type="logical" name="LELF"> F  </i>
   <i type="logical" name="LOPTICS"> F  </i>
   <v name="STM">      0.00000000      0.00000000      0.00000000      0.00000000      0.00000000      0.00000000      0.00000000</v>
  </separator>
  <separator name="performance" >
   <i type="int" name="NPAR">     4</i>
   <i type="int" name="NSIM">     4</i>
   <i type="int" name="NBLK">    -1</i>
   <i type="logical" name="LPLANE"> T  </i>
   <i type="logical" name="LSCALAPACK"> T  </i>
   <i type="logical" name="LSCAAWARE"> F  </i>
   <i type="logical" name="LSCALU"> F  </i>
   <i type="logical" name="LASYNC"> F  </i>
   <i type="logical" name="LORBITALREAL"> F  </i>
  </separator>
  <separator name="miscellaneous" >
   <i type="int" name="IDIOT">     3</i>
   <i type="int" name="ISPECIAL">     0</i>
   <i type="logical" name="LMUSIC"> F  </i>
   <v name="POMASS">     63.54600000     12.01100000     16.00000000</v>
   <v name="DARWINR">      0.00000000      0.00000000      0.00000000</v>
   <v name="DARWINV">      1.00000000      1.00000000      1.00000000</v>
   <i type="logical" name="LCORR"> T  </i>
  </separator>
  <i type="logical" name="GGA_COMPAT"> T  </i>
  <i type="logical" name="LBERRY"> F  </i>
  <i type="int" name="ICORELEVEL">     0</i>
  <i type="logical" name="LDAU"> F  </i>
  <i type="int" name="I_CONSTRAINED_M">     0</i>
  <separator name="electronic exchange-correlation" >
   <i type="string" name="GGA">PE</i>
   <i type="int" name="VOSKOWN">     0</i>
   <i type="logical" name="LHFCALC"> F  </i>
   <i type="string" name="PRECFOCK"></i>
   <i type="logical" name="LSYMGRAD"> F  </i>
   <i type="logical" name="LHFONE"> F  </i>
   <i type="logical" name="LRHFCALC"> F  </i>
   <i type="logical" name="LTHOMAS"> F  </i>
   <i type="logical" name="LMODELHF"> F  </i>
   <i name="ENCUT4O">     -1.00000000</i>
   <i type="int" name="EXXOEP">     0</i>
   <i type="int" name="FOURORBIT">     0</i>
   <i name="AEXX">      0.00000000</i>
   <i name="HFALPHA">      0.00000000</i>
   <i name="MCALPHA">      0.00000000</i>
   <i name="ALDAX">      1.00000000</i>
   <i name="AGGAX">      1.00000000</i>
   <i name="ALDAC">      1.00000000</i>
   <i name="AGGAC">      1.00000000</i>
   <i type="int" name="NKREDX">     1</i>
   <i type="int" name="NKREDY">     1</i>
   <i type="int" name="NKREDZ">     1</i>
   <i type="logical" name="SHIFTRED"> F  </i>
   <i type="logical" name="ODDONLY"> F  </i>
   <i type="logical" name="EVENONLY"> F  </i>
   <i type="int" name="LMAXFOCK">     0</i>
   <i type="int" name="NMAXFOCKAE">     0</i>
   <i type="logical" name="LFOCKAEDFT"> F  </i>
   <i name="HFSCREEN">      0.00000000</i>
   <i name="HFSCREENC">      0.00000000</i>
   <i type="int" name="NBANDSGWLOW">     0</i>
  </separator>
  <separator name="vdW DFT" >
   <i type="logical" name="LUSE_VDW"> F  </i>
   <i name="Zab_VDW">     -0.84910000</i>
   <i name="PARAM1">      0.12340000</i>
   <i name="PARAM2">      1.00000000</i>
   <i name="PARAM3">      0.00000000</i>
  </separator>
  <separator name="model GW" >
   <i type="int" name="MODEL_GW">     0</i>
   <i name="MODEL_EPS0">    135.00000000</i>
   <i name="MODEL_ALPHA">      1.00000000</i>
  </separator>
  <separator name="linear response parameters" >
   <i type="logical" name="LEPSILON"> F  </i>
   <i type="logical" name="LRPA"> F  </i>
   <i type="logical" name="LNABLA"> F  </i>
   <i type="logical" name="LVEL"> F  </i>
   <i type="int" name="KINTER">     0</i>
   <i name="CSHIFT">      0.10000000</i>
   <i name="OMEGAMAX">     -1.00000000</i>
   <i name="DEG_THRESHOLD">      0.00200000</i>
   <i name="RTIME">     -0.10000000</i>
   <i name="WPLASMAI">      0.00000000</i>
   <v name="DFIELD">      0.00000000      0.00000000      0.00000000</v>
   <v name="WPLASMA">      0.00000000      0.00000000      0.00000000      0.00000000      0.00000000      0.00000000      0.00000000      0.00000000      0.00000000</v>
  </separator>
  <separator name="orbital magnetization" >
   <i type="logical" name="NUCIND"> F  </i>
   <v name="MAGPOS">      0.00000000      0.00000000      0.00000000</v>
   <i type="logical" name="LNICSALL"> T  </i>
   <i type="logical" name="ORBITALMAG"> F  </i>
   <i type="logical" name="LMAGBLOCH"> F  </i>
   <i type="logical" name="LCHIMAG"> F  </i>
   <i type="logical" name="LGAUGE"> T  </i>
   <i type="int" name="MAGATOM">     0</i>
   <v name="MAGDIPOL">      0.00000000      0.00000000      0.00000000</v>
   <v name="AVECCONST">      0.00000000      0.00000000      0.00000000</v>
  </separator>
  <separator name="response functions" >
   <i type="logical" name="LADDER"> F  </i>
   <i type="logical" name="LRPAFORCE"> F  </i>
   <i type="logical" name="LFXC"> F  </i>
   <i type="logical" name="LHARTREE"> T  </i>
   <i type="int" name="IBSE">     0</i>
   <v type="int" name="KPOINT">    -1     0     0     0</v>
   <i type="logical" name="LTCTE"> F  </i>
   <i type="logical" name="LTETE"> F  </i>
   <i type="logical" name="LTRIPLET"> F  </i>
   <i type="logical" name="LFXCEPS"> F  </i>
   <i type="logical" name="LFXHEG"> F  </i>
   <i type="int" name="NATURALO">     2</i>
   <i type="logical" name="L2ORDER"> F  </i>
   <i type="logical" name="LMP2LT"> F  </i>
   <i type="logical" name="LUSEW"> F  </i>
   <i name="ENCUTGW">     -2.00000000</i>
   <i name="ENCUTGWSOFT">     -2.00000000</i>
   <i name="ENCUTLF">     -1.00000000</i>
   <i type="int" name="LMAXMP2">    -1</i>
   <i name="SCISSOR">      0.00000000</i>
   <i type="int" name="NOMEGA">     0</i>
   <i type="int" name="NOMEGAR">     0</i>
   <i type="int" name="NBANDSGW">    -1</i>
   <i type="int" name="NBANDSO">    -1</i>
   <i type="int" name="NBANDSV">    -1</i>
   <i type="int" name="NELM">   300</i>
   <i type="int" name="NELMHF">     1</i>
   <i type="int" name="DIM">     3</i>
   <i type="int" name="ANTIRES">     0</i>
   <i name="OMEGAMAX">    -30.00000000</i>
   <i name="OMEGAMIN">    -30.00000000</i>
   <i name="OMEGATL">   -200.00000000</i>
   <i type="int" name="OMEGAGRID">   140</i>
   <i name="CSHIFT">     -0.10000000</i>
   <i type="logical" name="SELFENERGY"> F  </i>
   <i type="logical" name="LSPECTRAL"> F  </i>
   <i type="logical" name="LSPECTRALGW"> F  </i>
   <i type="logical" name="LSINGLES"> F  </i>
   <i type="logical" name="LFERMIGW"> F  </i>
   <i type="logical" name="ODDONLYGW"> F  </i>
   <i type="logical" name="EVENONLYGW"> F  </i>
   <i type="int" name="NKREDLFX">     1</i>
   <i type="int" name="NKREDLFY">     1</i>
   <i type="int" name="NKREDLFZ">     1</i>
   <i type="int" name="MAXMEM">  2800</i>
   <i type="int" name="TELESCOPE">     0</i>
   <i type="int" name="TAUPAR">     1</i>
   <i type="int" name="OMEGAPAR">    -1</i>
   <i name="LAMBDA">      1.00000000</i>
  </separator>
  <separator name="External order field" >
   <i name="OFIELD_KAPPA">      0.00000000</i>
   <v name="OFIELD_K">      0.00000000      0.00000000      0.00000000</v>
   <i name="OFIELD_Q6_NEAR">      0.00000000</i>
   <i name="OFIELD_Q6_FAR">      0.00000000</i>
   <i name="OFIELD_A">      0.00000000</i>
  </separator>
 </parameters>
 <atominfo>
  <atoms>      15 </atoms>
  <types>       3 </types>
  <array name="atoms" >
   <dimension dim="1">ion</dimension>
   <field type="string">element</field>
   <field type="int">atomtype</field>
   <set>
    <rc><c>Cu</c><c>   1</c></rc>
    <rc><c>Cu</c><c>   1</c></rc>
    <rc><c>Cu</c><c>   1</c></rc>
    <rc><c>Cu</c><c>   1</c></rc>
    <rc><c>Cu</c><c>   1</c></rc>
    <rc><c>Cu</c><c>   1</c></rc>
    <rc><c>Cu</c><c>   1</c></rc>
    <rc><c>Cu</c><c>   1</c></rc>
    <rc><c>Cu</c><c>   1</c></rc>
    <rc><c>Cu</c><c>   1</c></rc>
    <rc><c>Cu</c><c>   1</c></rc>
    <rc><c>Cu</c><c>   1</c></rc>
    <rc><c>Cu</c><c>   1</c></rc>
    <rc><c>C </c><c>   2</c></rc>
    <rc><c>O </c><c>   3</c></rc>
   </set>
  </array>
  <array name="atomtypes" >
   <dimension dim="1">type</dimension>
   <field type="int">atomspertype</field>
   <field type="string">element</field>
   <field>mass</field>
   <field>valence</field>
   <field type="string">pseudopotential</field>
   <set>
    <rc><c>  13</c><c>Cu</c><c>     63.54600000</c><c>     11.00000000</c><c>  PAW_PBE Cu 22Jun2005                  </c></rc>
    <rc><c>   1</c><c>C </c><c>     12.01100000</c><c>      4.00000000</c><c>  PAW_PBE C 08Apr2002                   </c></rc>
    <rc><c>   1</c><c>O </c><c>     16.00000000</c><c>      6.00000000</c><c>  PAW_PBE O 08Apr2002                   </c></rc>
   </set>
  </array>
 </atominfo>
 <structure name="initialpos" >
  <crystal>
   <varray name="basis" >
    <v>      15.00000000       0.00000000       0.00000000 </v>
    <v>       0.00000000      15.00000000       0.00000000 </v>
    <v>       0.00000000       0.00000000      15.00000000 </v>
   </varray>
   <i name="volume">   3375.00000000 </i>
   <varray name="rec_basis" >
    <v>       0.06666667       0.00000000       0.00000000 </v>
    <v>       0.00000000       0.06666667       0.00000000 </v>
    <v>       0.00000000       0.00000000       0.06666667 </v>
   </varray>
  </crystal>
  <varray name="positions" >
   <v>       0.28901267       0.41974000       0.55937333 </v>
   <v>       0.37694000       0.54881533       0.49084800 </v>
   <v>       0.39702667       0.29206800       0.56172800 </v>
   <v>       0.53677667       0.50436600       0.48075667 </v>
   <v>       0.54869533       0.34678867       0.52829867 </v>
   <v>       0.44534600       0.43815867       0.61512200 </v>
   <v>       0.41622933       0.40185333       0.44556467 </v>
   <v>       0.22423200       0.56632533       0.54479733 </v>
   <v>       0.33635533       0.54659600       0.65425067 </v>
   <v>       0.35237600       0.68396667       0.57220333 </v>
   <v>       0.48743533       0.66522000       0.47682867 </v>
   <v>       0.62047867       0.48045467       0.60751867 </v>
   <v>       0.48814133       0.59056467       0.61586667 </v>
   <v>       0.73506667       0.49557133       0.64952333 </v>
   <v>       0.81216000       0.49918800       0.65434000 </v>
  </varray>
 </structure>
 <calculation>
  <scstep>
   <time name="dav">    7.45    7.45</time>
   <time name="total">    8.62    8.63</time>
   <energy>
    <i name="alphaZ">     41.16232785 </i>
    <i name="ewald">  16433.74470538 </i>
    <i name="hartreedc"> -33456.48637791 </i>
    <i name="XCdc">    623.45650526 </i>
    <i name="pawpsdc">  16421.75059358 </i>
    <i name="pawaedc"> -17800.06104309 </i>
    <i name="eentropy">      0.00171923 </i>
    <i name="bandstr">    192.93728871 </i>
    <i name="atom">  18662.21924712 </i>
    <i name="e_fr_energy">   1118.72496612 </i>
    <i name="e_wo_entrp">   1118.72324689 </i>
    <i name="e_0_energy">   1118.72439304 </i>
   </energy>
  </scstep>
  <scstep>
   <time name="dav">    7.33    7.34</time>
   <time name="total">    7.34    7.34</time>
   <energy>
    <i name="e_fr_energy">     89.66709166 </i>
    <i name="e_wo_entrp">     89.65088637 </i>
    <i name="e_0_energy">     89.66168990 </i>
   </energy>
  </scstep>
  <scstep>
   <time name="dav">   11.66   11.67</time>
   <time name="total">   11.66   11.67</time>
   <energy>
    <i name="e_fr_energy">    -33.05799561 </i>
    <i name="e_wo_entrp">    -33.07106651 </i>
    <i name="e_0_energy">    -33.06235258 </i>
   </energy>
  </scstep>
  <scstep>
   <time name="dav">   10.11   10.12</time>
   <time name="total">   10.11   10.12</time>
   <energy>
    <i name="e_fr_energy">    -55.76402477 </i>
    <i name="e_wo_entrp">    -55.77305427 </i>
    <i name="e_0_energy">    -55.76703460 </i>
   </energy>
  </scstep>
  <scstep>
   <time name="dav">   11.92   11.93</time>
   <time name="total">   12.63   12.64</time>
   <energy>
    <i name="e_fr_energy">    -57.44989980 </i>
    <i name="e_wo_entrp">    -57.45928458 </i>
    <i name="e_0_energy">    -57.45302806 </i>
   </energy>
  </scstep>
  <scstep>
   <time name="diag">    1.09    1.09</time>
   <time name="diis">    6.79    6.80</time>
   <time name="orth">    0.06    0.06</time>
   <time name="total">    9.76    9.77</time>
   <energy>
    <i name="e_fr_energy">    -56.51263515 </i>
    <i name="e_wo_entrp">    -56.52173333 </i>
    <i name="e_0_energy">    -56.51566788 </i>
   </energy>
  </scstep>
  <scstep>
   <time name="diag">    1.09    1.09</time>
   <time name="diis">    6.14    6.14</time>
   <time name="orth">    0.06    0.06</time>
   <time name="total">    9.12    9.12</time>
   <energy>
    <i name="e_fr_energy">    -49.36214970 </i>
    <i name="e_wo_entrp">    -49.37128217 </i>
    <i name="e_0_energy">    -49.36519386 </i>
   </energy>
  </scstep>
  <scstep>
   <time name="diag">    1.09    1.09</time>
   <time name="diis">    7.33    7.33</time>
   <time name="orth">    0.06    0.06</time>
   <time name="total">   10.30   10.31</time>
   <energy>
    <i name="e_fr_energy">    -49.11321807 </i>
    <i name="e_wo_entrp">    -49.12220331 </i>
    <i name="e_0_energy">    -49.11621315 </i>
   </energy>
  </scstep>
  <scstep>
   <time name="diag">    1.09    1.09</time>
   <time name="diis">    7.03    7.03</time>
   <time name="orth">    0.06    0.06</time>
   <time name="total">   10.01   10.01</time>
   <energy>
    <i name="e_fr_energy">    -49.07690703 </i>
    <i name="e_wo_entrp">    -49.08584550 </i>
    <i name="e_0_energy">    -49.07988652 </i>
   </energy>
  </scstep>
  <scstep>
   <time name="diag">    1.09    1.09</time>
   <time name="diis">    7.01    7.01</time>
   <time name="orth">    0.05    0.05</time>
   <time name="total">    9.98    9.99</time>
   <energy>
    <i name="e_fr_energy">    -49.01897842 </i>
    <i name="e_wo_entrp">    -49.02805412 </i>
    <i name="e_0_energy">    -49.02200365 </i>
   </energy>
  </scstep>
  <scstep>
   <time name="diag">    1.09    1.09</time>
   <time name="diis">    7.03    7.03</time>
   <time name="orth">    0.05    0.05</time>
   <time name="total">   10.00   10.00</time>
   <energy>
    <i name="e_fr_energy">    -49.01058887 </i>
    <i name="e_wo_entrp">    -49.01957719 </i>
    <i name="e_0_energy">    -49.01358498 </i>
   </energy>
  </scstep>
  <scstep>
   <time name="diag">    1.09    1.09</time>
   <time name="diis">    6.86    6.86</time>
   <time name="orth">    0.05    0.05</time>
   <time name="total">    9.83    9.84</time>
   <energy>
    <i name="e_fr_energy">    -49.00830177 </i>
    <i name="e_wo_entrp">    -49.01736177 </i>
    <i name="e_0_energy">    -49.01132177 </i>
   </energy>
  </scstep>
  <scstep>
   <time name="diag">    1.09    1.09</time>
   <time name="diis">    7.05    7.05</time>
   <time name="orth">    0.05    0.05</time>
   <time name="total">   10.02   10.03</time>
   <energy>
    <i name="e_fr_energy">    -49.00742582 </i>
    <i name="e_wo_entrp">    -49.01646893 </i>
    <i name="e_0_energy">    -49.01044019 </i>
   </energy>
  </scstep>
  <scstep>
   <time name="diag">    1.08    1.09</time>
   <time name="diis">    7.23    7.23</time>
   <time name="orth">    0.05    0.05</time>
   <time name="total">   10.21   10.22</time>
   <energy>
    <i name="e_fr_energy">    -49.00852238 </i>
    <i name="e_wo_entrp">    -49.01758157 </i>
    <i name="e_0_energy">    -49.01154211 </i>
   </energy>
  </scstep>
  <scstep>
   <time name="diag">    1.09    1.09</time>
   <time name="diis">    6.58    6.58</time>
   <time name="orth">    0.06    0.06</time>
   <time name="total">    9.56    9.57</time>
   <energy>
    <i name="e_fr_energy">    -49.00963826 </i>
    <i name="e_wo_entrp">    -49.01869453 </i>
    <i name="e_0_energy">    -49.01265701 </i>
   </energy>
  </scstep>
  <scstep>
   <time name="diag">    1.09    1.09</time>
   <time name="diis">    6.50    6.50</time>
   <time name="orth">    0.06    0.06</time>
   <time name="total">    9.48    9.49</time>
   <energy>
    <i name="e_fr_energy">    -49.01110412 </i>
    <i name="e_wo_entrp">    -49.02015084 </i>
    <i name="e_0_energy">    -49.01411969 </i>
   </energy>
  </scstep>
  <scstep>
   <time name="diag">    1.09    1.09</time>
   <time name="diis">    6.42    6.43</time>
   <time name="orth">    0.06    0.06</time>
   <time name="total">    9.40    9.42</time>
   <energy>
    <i name="e_fr_energy">    -49.01288555 </i>
    <i name="e_wo_entrp">    -49.02192593 </i>
    <i name="e_0_energy">    -49.01589901 </i>
   </energy>
  </scstep>
  <scstep>
   <time name="diag">    1.09    1.09</time>
   <time name="diis">    6.68    6.68</time>
   <time name="orth">    0.06    0.06</time>
   <time name="total">    9.66    9.67</time>
   <energy>
    <i name="e_fr_energy">    -49.01364812 </i>
    <i name="e_wo_entrp">    -49.02269201 </i>
    <i name="e_0_energy">    -49.01666275 </i>
   </energy>
  </scstep>
  <scstep>
   <time name="diag">    1.09    1.09</time>
   <time name="diis">    7.73    7.73</time>
   <time name="orth">    0.06    0.06</time>
   <time name="total">   10.72   10.72</time>
   <energy>
    <i name="e_fr_energy">    -49.01437534 </i>
    <i name="e_wo_entrp">    -49.02341996 </i>
    <i name="e_0_energy">    -49.01739021 </i>
   </energy>
  </scstep>
  <scstep>
   <time name="diag">    1.09    1.09</time>
   <time name="diis">    6.55    6.55</time>
   <time name="orth">    0.06    0.06</time>
   <time name="total">    9.53    9.54</time>
   <energy>
    <i name="e_fr_energy">    -49.01493951 </i>
    <i name="e_wo_entrp">    -49.02398514 </i>
    <i name="e_0_energy">    -49.01795472 </i>
   </energy>
  </scstep>
  <scstep>
   <time name="diag">    1.09    1.09</time>
   <time name="diis">    6.77    6.77</time>
   <time name="orth">    0.06    0.06</time>
   <time name="total">    9.76    9.76</time>
   <energy>
    <i name="e_fr_energy">    -49.01531779 </i>
    <i name="e_wo_entrp">    -49.02436397 </i>
    <i name="e_0_energy">    -49.01833318 </i>
   </energy>
  </scstep>
  <scstep>
   <time name="diag">    1.09    1.09</time>
   <time name="diis">    6.87    6.87</time>
   <time name="orth">    0.06    0.06</time>
   <time name="total">    9.86    9.86</time>
   <energy>
    <i name="e_fr_energy">    -49.01556221 </i>
    <i name="e_wo_entrp">    -49.02460719 </i>
    <i name="e_0_energy">    -49.01857720 </i>
   </energy>
  </scstep>
  <scstep>
   <time name="diag">    1.09    1.09</time>
   <time name="diis">    6.54    6.54</time>
   <time name="orth">    0.06    0.06</time>
   <time name="total">    9.53    9.54</time>
   <energy>
    <i name="e_fr_energy">    -49.01569874 </i>
    <i name="e_wo_entrp">    -49.02474381 </i>
    <i name="e_0_energy">    -49.01871377 </i>
   </energy>
  </scstep>
  <scstep>
   <time name="diag">    1.09    1.09</time>
   <time name="diis">    6.60    6.61</time>
   <time name="orth">    0.06    0.06</time>
   <time name="total">    9.60    9.61</time>
   <energy>
    <i name="e_fr_energy">    -49.01580265 </i>
    <i name="e_wo_entrp">    -49.02484759 </i>
    <i name="e_0_energy">    -49.01881763 </i>
   </energy>
  </scstep>
  <scstep>
   <time name="diag">    1.09    1.09</time>
   <time name="diis">    6.48    6.48</time>
   <time name="orth">    0.05    0.05</time>
   <time name="total">    9.47    9.48</time>
   <energy>
    <i name="e_fr_energy">    -49.01586693 </i>
    <i name="e_wo_entrp">    -49.02491190 </i>
    <i name="e_0_energy">    -49.01888192 </i>
   </energy>
  </scstep>
  <scstep>
   <time name="diag">    1.09    1.09</time>
   <time name="diis">    6.38    6.38</time>
   <time name="orth">    0.05    0.05</time>
   <time name="total">    9.37    9.38</time>
   <energy>
    <i name="e_fr_energy">    -49.01590474 </i>
    <i name="e_wo_entrp">    -49.02494972 </i>
    <i name="e_0_energy">    -49.01891973 </i>
   </energy>
  </scstep>
  <scstep>
   <time name="diag">    1.09    1.09</time>
   <time name="diis">    5.14    5.14</time>
   <time name="orth">    0.05    0.05</time>
   <time name="total">    8.13    8.13</time>
   <energy>
    <i name="e_fr_energy">    -49.01591857 </i>
    <i name="e_wo_entrp">    -49.02496361 </i>
    <i name="e_0_energy">    -49.01893358 </i>
   </energy>
  </scstep>
  <scstep>
   <time name="diag">    1.09    1.09</time>
   <time name="diis">    4.63    4.63</time>
   <time name="orth">    0.05    0.05</time>
   <time name="total">    7.63    7.63</time>
   <energy>
    <i name="e_fr_energy">    -49.01592575 </i>
    <i name="e_wo_entrp">    -49.02497071 </i>
    <i name="e_0_energy">    -49.01894074 </i>
   </energy>
  </scstep>
  <scstep>
   <time name="diag">    1.09    1.09</time>
   <time name="diis">    4.59    4.59</time>
   <time name="orth">    0.05    0.05</time>
   <time name="total">    7.59    7.60</time>
   <energy>
    <i name="e_fr_energy">    -49.01592848 </i>
    <i name="e_wo_entrp">    -49.02497345 </i>
    <i name="e_0_energy">    -49.01894347 </i>
   </energy>
  </scstep>
  <scstep>
   <time name="diag">    1.08    1.09</time>
   <time name="diis">    4.46    4.46</time>
   <time name="orth">    0.05    0.05</time>
   <time name="total">    7.46    7.47</time>
   <energy>
    <i name="e_fr_energy">    -49.01592997 </i>
    <i name="e_wo_entrp">    -49.02497489 </i>
    <i name="e_0_energy">    -49.01894495 </i>
   </energy>
  </scstep>
  <scstep>
   <time name="diag">    1.09    1.09</time>
   <time name="diis">    4.76    4.76</time>
   <time name="orth">    0.05    0.05</time>
   <time name="total">    7.78    7.79</time>
   <energy>
    <i name="e_fr_energy">    -49.01593071 </i>
    <i name="e_wo_entrp">    -49.02497563 </i>
    <i name="e_0_energy">    -49.01894568 </i>
   </energy>
  </scstep>
  <scstep>
   <time name="diag">    1.09    1.09</time>
   <time name="diis">    4.31    4.31</time>
   <time name="orth">    0.05    0.05</time>
   <time name="total">    7.34    7.35</time>
   <energy>
    <i name="e_fr_energy">    -49.01593131 </i>
    <i name="e_wo_entrp">    -49.02497624 </i>
    <i name="e_0_energy">    -49.01894629 </i>
   </energy>
  </scstep>
  <scstep>
   <time name="diag">    1.09    1.09</time>
   <time name="diis">    4.22    4.22</time>
   <time name="orth">    0.05    0.05</time>
   <time name="total">    7.25    7.26</time>
   <energy>
    <i name="e_fr_energy">    -49.01593176 </i>
    <i name="e_wo_entrp">    -49.02497669 </i>
    <i name="e_0_energy">    -49.01894673 </i>
   </energy>
  </scstep>
  <scstep>
   <time name="diag">    1.09    1.09</time>
   <time name="diis">    4.00    4.00</time>
   <time name="orth">    0.05    0.05</time>
   <time name="total">    7.04    7.05</time>
   <energy>
    <i name="e_fr_energy">    -49.01593218 </i>
    <i name="e_wo_entrp">    -49.02497713 </i>
    <i name="e_0_energy">    -49.01894717 </i>
   </energy>
  </scstep>
  <scstep>
   <time name="diag">    1.09    1.09</time>
   <time name="diis">    3.83    3.83</time>
   <time name="orth">    0.05    0.05</time>
   <time name="total">    6.88    6.89</time>
   <energy>
    <i name="e_fr_energy">    -49.01593245 </i>
    <i name="e_wo_entrp">    -49.02497739 </i>
    <i name="e_0_energy">    -49.01894743 </i>
   </energy>
  </scstep>
  <scstep>
   <time name="diag">    1.09    1.09</time>
   <time name="diis">    3.52    3.52</time>
   <time name="orth">    0.06    0.06</time>
   <time name="total">    6.58    6.58</time>
   <energy>
    <i name="e_fr_energy">    -49.01593256 </i>
    <i name="e_wo_entrp">    -49.02497749 </i>
    <i name="e_0_energy">    -49.01894754 </i>
   </energy>
  </scstep>
  <scstep>
   <time name="diag">    1.09    1.09</time>
   <time name="diis">    3.24    3.24</time>
   <time name="orth">    0.05    0.05</time>
   <time name="total">    5.55    5.55</time>
   <energy>
    <i name="alphaZ">     41.16232785 </i>
    <i name="ewald">  16433.74470538 </i>
    <i name="hartreedc"> -33413.89297475 </i>
    <i name="XCdc">    615.47666255 </i>
    <i name="pawpsdc">  17640.13987287 </i>
    <i name="pawaedc"> -19038.61748959 </i>
    <i name="eentropy">      0.00904494 </i>
    <i name="bandstr">   -989.25732899 </i>
    <i name="atom">  18662.21924712 </i>
    <i name="e_fr_energy">    -49.01593263 </i>
    <i name="e_wo_entrp">    -49.02497757 </i>
    <i name="e_0_energy">    -49.01894761 </i>
   </energy>
  </scstep>
  <structure>
   <crystal>
    <varray name="basis" >
     <v>      15.00000000       0.00000000       0.00000000 </v>
     <v>       0.00000000      15.00000000       0.00000000 </v>
     <v>       0.00000000       0.00000000      15.00000000 </v>
    </varray>
    <i name="volume">   3375.00000000 </i>
    <varray name="rec_basis" >
     <v>       0.06666667       0.00000000       0.00000000 </v>
     <v>       0.00000000       0.06666667       0.00000000 </v>
     <v>       0.00000000       0.00000000       0.06666667 </v>
    </varray>
   </crystal>
   <varray name="positions" >
    <v>       0.28901267       0.41974000       0.55937333 </v>
    <v>       0.37694000       0.54881533       0.49084800 </v>
    <v>       0.39702667       0.29206800       0.56172800 </v>
    <v>       0.53677667       0.50436600       0.48075667 </v>
    <v>       0.54869533       0.34678867       0.52829867 </v>
    <v>       0.44534600       0.43815867       0.61512200 </v>
    <v>       0.41622933       0.40185333       0.44556467 </v>
    <v>       0.22423200       0.56632533       0.54479733 </v>
    <v>       0.33635533       0.54659600       0.65425067 </v>
    <v>       0.35237600       0.68396667       0.57220333 </v>
    <v>       0.48743533       0.66522000       0.47682867 </v>
    <v>       0.62047867       0.48045467       0.60751867 </v>
    <v>       0.48814133       0.59056467       0.61586667 </v>
    <v>       0.73506667       0.49557133       0.64952333 </v>
    <v>       0.81216000       0.49918800       0.65434000 </v>
   </varray>
  </structure>
  <varray name="forces" >
   <v>       0.35832024      -0.12359886      -0.15183780 </v>
   <v>      -0.15881342       0.01993057       0.09182990 </v>
   <v>      -0.08375381       0.09411311       0.04392040 </v>
   <v>      -0.37746924       0.19251041      -0.19999970 </v>
   <v>      -0.01686274       0.24414924       0.04642322 </v>
   <v>       0.42773924      -0.51835376      -0.42158124 </v>
   <v>      -0.04872479      -0.21658543       0.35667250 </v>
   <v>       0.05206693       0.26749388       0.01197217 </v>
   <v>      -0.07826384       0.06852099       0.04255281 </v>
   <v>      -0.00494065      -0.01036251      -0.09695716 </v>
   <v>       0.02720935       0.01963072       0.04153702 </v>
   <v>       0.06643997      -0.07710054       0.34667790 </v>
   <v>       0.03459914       0.14968059      -0.08651993 </v>
   <v>       0.20164995      -0.18414004      -0.02427930 </v>
   <v>      -0.39919632       0.07411165      -0.00041080 </v>
  </varray>
  <varray name="stress" >
   <v>      -1.13718024      -0.25180657       0.32094681 </v>
   <v>      -0.25180657       0.26028930      -0.22834532 </v>
   <v>       0.32094681      -0.22834532      -0.38853965 </v>
  </varray>
  <energy>
   <i name="e_fr_energy">    -49.01593263 </i>
   <i name="e_wo_entrp">    -49.01894761 </i>
   <i name="e_0_energy">      0.00904494 </i>
  </energy>
  <time name="totalsc">  345.40  345.63</time>
  <eigenvalues>
   <array>
    <dimension dim="1">band</dimension>
    <dimension dim="2">kpoint</dimension>
    <dimension dim="3">spin</dimension>
    <field>eigene</field>
    <field>occ</field>
    <set>
     <set comment="spin 1">
      <set comment="kpoint 1">
       <r>  -28.4012    1.0000 </r>
       <r>  -13.8118    1.0000 </r>
       <r>  -11.2703    1.0000 </r>
       <r>  -11.0922    1.0000 </r>
       <r>  -10.9231    1.0000 </r>
       <r>  -10.1487    1.0000 </r>
       <r>   -8.5782    1.0000 </r>
       <r>   -8.2277    1.0000 </r>
       <r>   -7.7261    1.0000 </r>
       <r>   -7.4934    1.0000 </r>
       <r>   -7.4412    1.0000 </r>
       <r>   -7.3330    1.0000 </r>
       <r>   -7.2892    1.0000 </r>
       <r>   -7.1546    1.0000 </r>
       <r>   -7.0789    1.0000 </r>
       <r>   -6.9426    1.0000 </r>
       <r>   -6.8145    1.0000 </r>
       <r>   -6.7809    1.0000 </r>
       <r>   -6.7165    1.0000 </r>
       <r>   -6.6352    1.0000 </r>
       <r>   -6.6163    1.0000 </r>
       <r>   -6.5720    1.0000 </r>
       <r>   -6.5335    1.0000 </r>
       <r>   -6.4534    1.0000 </r>
       <r>   -6.4132    1.0000 </r>
       <r>   -6.4045    1.0000 </r>
       <r>   -6.3178    1.0000 </r>
       <r>   -6.2656    1.0000 </r>
       <r>   -6.2583    1.0000 </r>
       <r>   -6.2316    1.0000 </r>
       <r>   -6.1477    1.0000 </r>
       <r>   -6.1366    1.0000 </r>
       <r>   -6.0443    1.0000 </r>
       <r>   -6.0217    1.0000 </r>
       <r>   -5.9145    1.0000 </r>
       <r>   -5.8452    1.0000 </r>
       <r>   -5.8096    1.0000 </r>
       <r>   -5.6836    1.0000 </r>
       <r>   -5.6773    1.0000 </r>
       <r>   -5.6407    1.0000 </r>
       <r>   -5.5926    1.0000 </r>
       <r>   -5.5313    1.0000 </r>
       <r>   -5.5256    1.0000 </r>
       <r>   -5.4826    1.0000 </r>
       <r>   -5.4392    1.0000 </r>
       <r>   -5.4161    1.0000 </r>
       <r>   -5.3979    1.0000 </r>
       <r>   -5.3680    1.0000 </r>
       <r>   -5.3561    1.0000 </r>
       <r>   -5.3337    1.0000 </r>
       <r>   -5.3098    1.0000 </r>
       <r>   -5.2873    1.0000 </r>
       <r>   -5.2518    1.0000 </r>
       <r>   -5.2379    1.0000 </r>
       <r>   -5.2228    1.0000 </r>
       <r>   -5.1859    1.0000 </r>
       <r>   -5.1741    1.0000 </r>
       <r>   -5.1513    1.0000 </r>
       <r>   -5.1210    1.0000 </r>
       <r>   -5.0746    1.0000 </r>
       <r>   -5.0651    1.0000 </r>
       <r>   -5.0217    1.0000 </r>
       <r>   -5.0011    1.0000 </r>
       <r>   -4.9925    1.0000 </r>
       <r>   -4.9380    1.0000 </r>
       <r>   -4.9266    1.0000 </r>
       <r>   -4.8934    1.0000 </r>
       <r>   -4.8876    1.0000 </r>
       <r>   -4.8736    1.0000 </r>
       <r>   -4.8329    1.0000 </r>
       <r>   -4.8209    1.0000 </r>
       <r>   -4.7868    1.0000 </r>
       <r>   -4.7388    1.0000 </r>
       <r>   -4.5332    1.0000 </r>
       <r>   -4.1922    1.0000 </r>
       <r>   -4.1455    1.0000 </r>
       <r>   -3.5435    1.0000 </r>
       <r>   -3.0155   -0.0000 </r>
       <r>   -2.8857   -0.0000 </r>
       <r>   -2.5388   -0.0000 </r>
       <r>   -2.3493   -0.0000 </r>
       <r>   -1.9827   -0.0000 </r>
       <r>   -1.8719   -0.0000 </r>
       <r>   -1.7448   -0.0000 </r>
       <r>   -1.3960   -0.0000 </r>
       <r>   -1.0699   -0.0000 </r>
       <r>   -0.9549   -0.0000 </r>
       <r>   -0.7001    0.0000 </r>
       <r>   -0.4059    0.0000 </r>
       <r>   -0.2818    0.0000 </r>
       <r>   -0.1178    0.0000 </r>
       <r>    0.1421    0.0000 </r>
      </set>
     </set>
     <set comment="spin 2">
      <set comment="kpoint 1">
       <r>  -28.3796    1.0000 </r>
       <r>  -13.7720    1.0000 </r>
       <r>  -11.2414    1.0000 </r>
       <r>  -11.0616    1.0000 </r>
       <r>  -10.8674    1.0000 </r>
       <r>  -10.1067    1.0000 </r>
       <r>   -8.5564    1.0000 </r>
       <r>   -8.1798    1.0000 </r>
       <r>   -7.6837    1.0000 </r>
       <r>   -7.4705    1.0000 </r>
       <r>   -7.4143    1.0000 </r>
       <r>   -7.2968    1.0000 </r>
       <r>   -7.2447    1.0000 </r>
       <r>   -7.1270    1.0000 </r>
       <r>   -7.0515    1.0000 </r>
       <r>   -6.9074    1.0000 </r>
       <r>   -6.7929    1.0000 </r>
       <r>   -6.7442    1.0000 </r>
       <r>   -6.6858    1.0000 </r>
       <r>   -6.6170    1.0000 </r>
       <r>   -6.5974    1.0000 </r>
       <r>   -6.5488    1.0000 </r>
       <r>   -6.5038    1.0000 </r>
       <r>   -6.4315    1.0000 </r>
       <r>   -6.3819    1.0000 </r>
       <r>   -6.3734    1.0000 </r>
       <r>   -6.2941    1.0000 </r>
       <r>   -6.2395    1.0000 </r>
       <r>   -6.2361    1.0000 </r>
       <r>   -6.2044    1.0000 </r>
       <r>   -6.1209    1.0000 </r>
       <r>   -6.1092    1.0000 </r>
       <r>   -6.0163    1.0000 </r>
       <r>   -6.0028    1.0000 </r>
       <r>   -5.8901    1.0000 </r>
       <r>   -5.8194    1.0000 </r>
       <r>   -5.7751    1.0000 </r>
       <r>   -5.6662    1.0000 </r>
       <r>   -5.6512    1.0000 </r>
       <r>   -5.6140    1.0000 </r>
       <r>   -5.5695    1.0000 </r>
       <r>   -5.5051    1.0000 </r>
       <r>   -5.4966    1.0000 </r>
       <r>   -5.4557    1.0000 </r>
       <r>   -5.4157    1.0000 </r>
       <r>   -5.3906    1.0000 </r>
       <r>   -5.3669    1.0000 </r>
       <r>   -5.3412    1.0000 </r>
       <r>   -5.3314    1.0000 </r>
       <r>   -5.3033    1.0000 </r>
       <r>   -5.2855    1.0000 </r>
       <r>   -5.2577    1.0000 </r>
       <r>   -5.2327    1.0000 </r>
       <r>   -5.2098    1.0000 </r>
       <r>   -5.1989    1.0000 </r>
       <r>   -5.1600    1.0000 </r>
       <r>   -5.1492    1.0000 </r>
       <r>   -5.1318    1.0000 </r>
       <r>   -5.0955    1.0000 </r>
       <r>   -5.0477    1.0000 </r>
       <r>   -5.0382    1.0000 </r>
       <r>   -5.0006    1.0000 </r>
       <r>   -4.9818    1.0000 </r>
       <r>   -4.9581    1.0000 </r>
       <r>   -4.9139    1.0000 </r>
       <r>   -4.9018    1.0000 </r>
       <r>   -4.8684    1.0000 </r>
       <r>   -4.8465    1.0000 </r>
       <r>   -4.8425    1.0000 </r>
       <r>   -4.8031    1.0000 </r>
       <r>   -4.7814    1.0000 </r>
       <r>   -4.7614    1.0000 </r>
       <r>   -4.7098    1.0000 </r>
       <r>   -4.4876    1.0000 </r>
       <r>   -4.1337    1.0269 </r>
       <r>   -4.1059    0.9731 </r>
       <r>   -3.3360   -0.0000 </r>
       <r>   -2.9661   -0.0000 </r>
       <r>   -2.8359   -0.0000 </r>
       <r>   -2.4678   -0.0000 </r>
       <r>   -2.2551   -0.0000 </r>
       <r>   -1.9526   -0.0000 </r>
       <r>   -1.7951   -0.0000 </r>
       <r>   -1.6725   -0.0000 </r>
       <r>   -1.2835    0.0000 </r>
       <r>   -0.9365    0.0000 </r>
       <r>   -0.8859    0.0000 </r>
       <r>   -0.6229    0.0000 </r>
       <r>   -0.3038    0.0000 </r>
       <r>   -0.2307    0.0000 </r>
       <r>   -0.0555    0.0000 </r>
       <r>    0.1923    0.0000 </r>
      </set>
     </set>
    </set>
   </array>
  </eigenvalues>
  <separator name="orbital magnetization" >
   <v name="MAGDIPOLOUT">      0.00000000      0.00000000      0.00000000</v>
  </separator>
  <dos>
   <i name="efermi">     -4.03188238 </i>
   <total>
    <array>
     <dimension dim="1">gridpoints</dimension>
     <dimension dim="2">spin</dimension>
     <field>energy</field>
     <field>total</field>
     <field>integrated</field>
     <set>
      <set comment="spin 1">
       <r>   -29.8309     0.0000     0.0000 </r>
       <r>   -29.7261     0.0000     0.0000 </r>
       <r>   -29.6212     0.0000     0.0000 </r>
       <r>   -29.5164     0.0000     0.0000 </r>
       <r>   -29.4115     0.0000     0.0000 </r>
       <r>   -29.3067     0.0000     0.0000 </r>
       <r>   -29.2018    -0.0000    -0.0000 </r>
       <r>   -29.0970    -0.0000    -0.0000 </r>
       <r>   -28.9922    -0.0000    -0.0000 </r>
       <r>   -28.8873    -0.0000    -0.0000 </r>
       <r>   -28.7825    -0.0000    -0.0000 </r>
       <r>   -28.6776    -0.0063    -0.0007 </r>
       <r>   -28.5728    -0.3347    -0.0357 </r>
       <r>   -28.4679     1.3350     0.1042 </r>
       <r>   -28.3631    14.2308     1.5962 </r>
       <r>   -28.2583     4.4357     2.0613 </r>
       <r>   -28.1534    -0.5601     2.0026 </r>
       <r>   -28.0486    -0.0243     2.0000 </r>
       <r>   -27.9437    -0.0001     2.0000 </r>
       <r>   -27.8389    -0.0000     2.0000 </r>
       <r>   -27.7340    -0.0000     2.0000 </r>
       <r>   -27.6292     0.0000     2.0000 </r>
       <r>   -27.5244     0.0000     2.0000 </r>
       <r>   -27.4195     0.0000     2.0000 </r>
       <r>   -27.3147     0.0000     2.0000 </r>
       <r>   -27.2098     0.0000     2.0000 </r>
       <r>   -27.1050     0.0000     2.0000 </r>
       <r>   -27.0001     0.0000     2.0000 </r>
       <r>   -26.8953     0.0000     2.0000 </r>
       <r>   -26.7905     0.0000     2.0000 </r>
       <r>   -26.6856     0.0000     2.0000 </r>
       <r>   -26.5808     0.0000     2.0000 </r>
       <r>   -26.4759     0.0000     2.0000 </r>
       <r>   -26.3711     0.0000     2.0000 </r>
       <r>   -26.2662     0.0000     2.0000 </r>
       <r>   -26.1614     0.0000     2.0000 </r>
       <r>   -26.0565     0.0000     2.0000 </r>
       <r>   -25.9517     0.0000     2.0000 </r>
       <r>   -25.8469     0.0000     2.0000 </r>
       <r>   -25.7420     0.0000     2.0000 </r>
       <r>   -25.6372     0.0000     2.0000 </r>
       <r>   -25.5323     0.0000     2.0000 </r>
       <r>   -25.4275     0.0000     2.0000 </r>
       <r>   -25.3226     0.0000     2.0000 </r>
       <r>   -25.2178     0.0000     2.0000 </r>
       <r>   -25.1130     0.0000     2.0000 </r>
       <r>   -25.0081     0.0000     2.0000 </r>
       <r>   -24.9033     0.0000     2.0000 </r>
       <r>   -24.7984     0.0000     2.0000 </r>
       <r>   -24.6936     0.0000     2.0000 </r>
       <r>   -24.5887     0.0000     2.0000 </r>
       <r>   -24.4839     0.0000     2.0000 </r>
       <r>   -24.3791     0.0000     2.0000 </r>
       <r>   -24.2742     0.0000     2.0000 </r>
       <r>   -24.1694     0.0000     2.0000 </r>
       <r>   -24.0645     0.0000     2.0000 </r>
       <r>   -23.9597     0.0000     2.0000 </r>
       <r>   -23.8548     0.0000     2.0000 </r>
       <r>   -23.7500     0.0000     2.0000 </r>
       <r>   -23.6452     0.0000     2.0000 </r>
       <r>   -23.5403     0.0000     2.0000 </r>
       <r>   -23.4355     0.0000     2.0000 </r>
       <r>   -23.3306     0.0000     2.0000 </r>
       <r>   -23.2258     0.0000     2.0000 </r>
       <r>   -23.1209     0.0000     2.0000 </r>
       <r>   -23.0161     0.0000     2.0000 </r>
       <r>   -22.9113     0.0000     2.0000 </r>
       <r>   -22.8064     0.0000     2.0000 </r>
       <r>   -22.7016     0.0000     2.0000 </r>
       <r>   -22.5967     0.0000     2.0000 </r>
       <r>   -22.4919     0.0000     2.0000 </r>
       <r>   -22.3870     0.0000     2.0000 </r>
       <r>   -22.2822     0.0000     2.0000 </r>
       <r>   -22.1774     0.0000     2.0000 </r>
       <r>   -22.0725     0.0000     2.0000 </r>
       <r>   -21.9677     0.0000     2.0000 </r>
       <r>   -21.8628     0.0000     2.0000 </r>
       <r>   -21.7580     0.0000     2.0000 </r>
       <r>   -21.6531     0.0000     2.0000 </r>
       <r>   -21.5483     0.0000     2.0000 </r>
       <r>   -21.4435     0.0000     2.0000 </r>
       <r>   -21.3386     0.0000     2.0000 </r>
       <r>   -21.2338     0.0000     2.0000 </r>
       <r>   -21.1289     0.0000     2.0000 </r>
       <r>   -21.0241     0.0000     2.0000 </r>
       <r>   -20.9192     0.0000     2.0000 </r>
       <r>   -20.8144     0.0000     2.0000 </r>
       <r>   -20.7096     0.0000     2.0000 </r>
       <r>   -20.6047     0.0000     2.0000 </r>
       <r>   -20.4999     0.0000     2.0000 </r>
       <r>   -20.3950     0.0000     2.0000 </r>
       <r>   -20.2902     0.0000     2.0000 </r>
       <r>   -20.1853     0.0000     2.0000 </r>
       <r>   -20.0805     0.0000     2.0000 </r>
       <r>   -19.9757     0.0000     2.0000 </r>
       <r>   -19.8708     0.0000     2.0000 </r>
       <r>   -19.7660     0.0000     2.0000 </r>
       <r>   -19.6611     0.0000     2.0000 </r>
       <r>   -19.5563     0.0000     2.0000 </r>
       <r>   -19.4514     0.0000     2.0000 </r>
       <r>   -19.3466     0.0000     2.0000 </r>
       <r>   -19.2418     0.0000     2.0000 </r>
       <r>   -19.1369     0.0000     2.0000 </r>
       <r>   -19.0321     0.0000     2.0000 </r>
       <r>   -18.9272     0.0000     2.0000 </r>
       <r>   -18.8224     0.0000     2.0000 </r>
       <r>   -18.7175     0.0000     2.0000 </r>
       <r>   -18.6127     0.0000     2.0000 </r>
       <r>   -18.5079     0.0000     2.0000 </r>
       <r>   -18.4030     0.0000     2.0000 </r>
       <r>   -18.2982     0.0000     2.0000 </r>
       <r>   -18.1933     0.0000     2.0000 </r>
       <r>   -18.0885     0.0000     2.0000 </r>
       <r>   -17.9836     0.0000     2.0000 </r>
       <r>   -17.8788     0.0000     2.0000 </r>
       <r>   -17.7740     0.0000     2.0000 </r>
       <r>   -17.6691     0.0000     2.0000 </r>
       <r>   -17.5643     0.0000     2.0000 </r>
       <r>   -17.4594     0.0000     2.0000 </r>
       <r>   -17.3546     0.0000     2.0000 </r>
       <r>   -17.2497     0.0000     2.0000 </r>
       <r>   -17.1449     0.0000     2.0000 </r>
       <r>   -17.0400     0.0000     2.0000 </r>
       <r>   -16.9352     0.0000     2.0000 </r>
       <r>   -16.8304     0.0000     2.0000 </r>
       <r>   -16.7255     0.0000     2.0000 </r>
       <r>   -16.6207     0.0000     2.0000 </r>
       <r>   -16.5158     0.0000     2.0000 </r>
       <r>   -16.4110     0.0000     2.0000 </r>
       <r>   -16.3061     0.0000     2.0000 </r>
       <r>   -16.2013     0.0000     2.0000 </r>
       <r>   -16.0965     0.0000     2.0000 </r>
       <r>   -15.9916     0.0000     2.0000 </r>
       <r>   -15.8868     0.0000     2.0000 </r>
       <r>   -15.7819     0.0000     2.0000 </r>
       <r>   -15.6771     0.0000     2.0000 </r>
       <r>   -15.5722     0.0000     2.0000 </r>
       <r>   -15.4674     0.0000     2.0000 </r>
       <r>   -15.3626     0.0000     2.0000 </r>
       <r>   -15.2577     0.0000     2.0000 </r>
       <r>   -15.1529     0.0000     2.0000 </r>
       <r>   -15.0480     0.0000     2.0000 </r>
       <r>   -14.9432     0.0000     2.0000 </r>
       <r>   -14.8383     0.0000     2.0000 </r>
       <r>   -14.7335     0.0000     2.0000 </r>
       <r>   -14.6287    -0.0000     2.0000 </r>
       <r>   -14.5238    -0.0000     2.0000 </r>
       <r>   -14.4190    -0.0000     2.0000 </r>
       <r>   -14.3141    -0.0000     2.0000 </r>
       <r>   -14.2093    -0.0000     2.0000 </r>
       <r>   -14.1044    -0.0027     1.9997 </r>
       <r>   -13.9996    -0.2187     1.9768 </r>
       <r>   -13.8948     0.2726     2.0054 </r>
       <r>   -13.7899    12.9224     3.3602 </r>
       <r>   -13.6851     6.7740     4.0704 </r>
       <r>   -13.5802    -0.6230     4.0051 </r>
       <r>   -13.4754    -0.0482     4.0000 </r>
       <r>   -13.3705    -0.0002     4.0000 </r>
       <r>   -13.2657    -0.0000     4.0000 </r>
       <r>   -13.1609    -0.0000     4.0000 </r>
       <r>   -13.0560     0.0000     4.0000 </r>
       <r>   -12.9512     0.0000     4.0000 </r>
       <r>   -12.8463     0.0000     4.0000 </r>
       <r>   -12.7415     0.0000     4.0000 </r>
       <r>   -12.6366     0.0000     4.0000 </r>
       <r>   -12.5318     0.0000     4.0000 </r>
       <r>   -12.4270     0.0000     4.0000 </r>
       <r>   -12.3221     0.0000     4.0000 </r>
       <r>   -12.2173     0.0000     4.0000 </r>
       <r>   -12.1124    -0.0000     4.0000 </r>
       <r>   -12.0076    -0.0000     4.0000 </r>
       <r>   -11.9027    -0.0000     4.0000 </r>
       <r>   -11.7979    -0.0000     4.0000 </r>
       <r>   -11.6931    -0.0000     4.0000 </r>
       <r>   -11.5882    -0.0006     3.9999 </r>
       <r>   -11.4834    -0.0971     3.9897 </r>
       <r>   -11.3785    -0.5105     3.9362 </r>
       <r>   -11.2737     9.3370     4.9151 </r>
       <r>   -11.1688    11.1895     6.0883 </r>
       <r>   -11.0640    12.5736     7.4065 </r>
       <r>   -10.9592    10.4284     8.4999 </r>
       <r>   -10.8543    13.4996     9.9152 </r>
       <r>   -10.7495     1.1327    10.0340 </r>
       <r>   -10.6446    -0.3185    10.0006 </r>
       <r>   -10.5398    -0.0056    10.0000 </r>
       <r>   -10.4349    -0.0038     9.9996 </r>
       <r>   -10.3301    -0.2615     9.9722 </r>
       <r>   -10.2253     0.6345    10.0387 </r>
       <r>   -10.1204    13.5421    11.4585 </r>
       <r>   -10.0156     5.8124    12.0679 </r>
       <r>    -9.9107    -0.6104    12.0039 </r>
       <r>    -9.8059    -0.0370    12.0000 </r>
       <r>    -9.7010    -0.0001    12.0000 </r>
       <r>    -9.5962    -0.0000    12.0000 </r>
       <r>    -9.4914    -0.0000    12.0000 </r>
       <r>    -9.3865    -0.0000    12.0000 </r>
       <r>    -9.2817    -0.0000    12.0000 </r>
       <r>    -9.1768    -0.0000    12.0000 </r>
       <r>    -9.0720    -0.0000    12.0000 </r>
       <r>    -8.9671    -0.0000    12.0000 </r>
       <r>    -8.8623    -0.0042    11.9996 </r>
       <r>    -8.7575    -0.2764    11.9706 </r>
       <r>    -8.6526     0.7690    12.0512 </r>
       <r>    -8.5478    13.7160    13.4892 </r>
       <r>    -8.4429     5.4177    14.0572 </r>
       <r>    -8.3381    -1.1379    13.9379 </r>
       <r>    -8.2332     9.2375    14.9064 </r>
       <r>    -8.1284    10.8959    16.0488 </r>
       <r>    -8.0235    -0.3342    16.0137 </r>
       <r>    -7.9187    -0.3220    15.9800 </r>
       <r>    -7.8139     0.0491    15.9851 </r>
       <r>    -7.7090    12.2880    17.2734 </r>
       <r>    -7.6042     6.5541    17.9606 </r>
       <r>    -7.4993    10.2222    19.0323 </r>
       <r>    -7.3945    26.7288    21.8347 </r>
       <r>    -7.2896    26.8093    24.6454 </r>
       <r>    -7.1848    18.3334    26.5675 </r>
       <r>    -7.0800    22.0474    28.8791 </r>
       <r>    -6.9751    15.4717    30.5012 </r>
       <r>    -6.8703    14.9511    32.0687 </r>
       <r>    -6.7654    29.2974    35.1403 </r>
       <r>    -6.6606    34.2498    38.7312 </r>
       <r>    -6.5557    46.4978    43.6061 </r>
       <r>    -6.4509    39.6453    47.7627 </r>
       <r>    -6.3461    42.9491    52.2656 </r>
       <r>    -6.2412    49.4968    57.4550 </r>
       <r>    -6.1364    46.1884    62.2975 </r>
       <r>    -6.0315    36.2985    66.1031 </r>
       <r>    -5.9267    26.2888    68.8593 </r>
       <r>    -5.8218    30.6534    72.0731 </r>
       <r>    -5.7170    26.8519    74.8884 </r>
       <r>    -5.6122    47.2387    79.8410 </r>
       <r>    -5.5073    51.6490    85.2561 </r>
       <r>    -5.4025    68.8523    92.4747 </r>
       <r>    -5.2976    89.3691   101.8445 </r>
       <r>    -5.1928    87.8371   111.0536 </r>
       <r>    -5.0879    75.3379   118.9522 </r>
       <r>    -4.9831    71.8558   126.4858 </r>
       <r>    -4.8783    86.4035   135.5446 </r>
       <r>    -4.7734    76.0890   143.5220 </r>
       <r>    -4.6686    24.1280   146.0517 </r>
       <r>    -4.5637     4.7638   146.5511 </r>
       <r>    -4.4589    13.3168   147.9473 </r>
       <r>    -4.3540     0.2459   147.9731 </r>
       <r>    -4.2492     1.5109   148.1315 </r>
       <r>    -4.1444    24.8436   150.7361 </r>
       <r>    -4.0395    13.1367   152.1134 </r>
       <r>    -3.9347    -0.9606   152.0127 </r>
       <r>    -3.8298    -0.1244   151.9997 </r>
       <r>    -3.7250    -0.2619   151.9722 </r>
       <r>    -3.6201     0.6308   152.0384 </r>
       <r>    -3.5153    13.5368   153.4576 </r>
       <r>    -3.4105     5.8212   154.0679 </r>
       <r>    -3.3056    -0.6137   154.0036 </r>
       <r>    -3.2008    -0.2731   153.9749 </r>
       <r>    -3.0959     0.3007   154.0065 </r>
       <r>    -2.9911    12.7242   155.3405 </r>
       <r>    -2.8862    16.4118   157.0612 </r>
       <r>    -2.7814     9.5221   158.0595 </r>
       <r>    -2.6766    -1.0769   157.9466 </r>
       <r>    -2.5717     4.9734   158.4680 </r>
       <r>    -2.4669    13.3038   159.8628 </r>
       <r>    -2.3620     9.1072   160.8177 </r>
       <r>    -2.2572    11.5588   162.0295 </r>
       <r>    -2.1523    -0.4757   161.9796 </r>
       <r>    -2.0475     1.0269   162.0873 </r>
       <r>    -1.9427    15.1862   163.6795 </r>
       <r>    -1.8378    18.0124   165.5680 </r>
       <r>    -1.7330    16.1911   167.2655 </r>
       <r>    -1.6281     7.6535   168.0679 </r>
       <r>    -1.5233    -1.2460   167.9373 </r>
       <r>    -1.4184     6.6194   168.6313 </r>
       <r>    -1.3136    12.9504   169.9890 </r>
       <r>    -1.2088    -0.3028   169.9573 </r>
       <r>    -1.1039     4.2593   170.4038 </r>
       <r>    -0.9991    17.6323   172.2524 </r>
       <r>    -0.8942    15.3237   173.8590 </r>
       <r>    -0.7894     1.5482   174.0213 </r>
       <r>    -0.6845    11.8159   175.2602 </r>
       <r>    -0.5797     7.4066   176.0367 </r>
       <r>    -0.4749     0.3615   176.0746 </r>
       <r>    -0.3700    14.0574   177.5484 </r>
       <r>    -0.2652    16.5413   179.2826 </r>
       <r>    -0.1603    10.8509   180.4203 </r>
       <r>    -0.0555    13.6260   181.8489 </r>
       <r>     0.0494     1.5162   182.0078 </r>
       <r>     0.1542    11.4035   183.2034 </r>
       <r>     0.2590     8.2644   184.0699 </r>
       <r>     0.3639    -0.5956   184.0074 </r>
       <r>     0.4687    -0.0706   184.0000 </r>
       <r>     0.5736    -0.0004   184.0000 </r>
       <r>     0.6784    -0.0000   184.0000 </r>
       <r>     0.7833    -0.0000   184.0000 </r>
       <r>     0.8881     0.0000   184.0000 </r>
       <r>     0.9930     0.0000   184.0000 </r>
       <r>     1.0978     0.0000   184.0000 </r>
       <r>     1.2026     0.0000   184.0000 </r>
       <r>     1.3075     0.0000   184.0000 </r>
       <r>     1.4123     0.0000   184.0000 </r>
       <r>     1.5172     0.0000   184.0000 </r>
       <r>     1.6220     0.0000   184.0000 </r>
      </set>
      <set comment="spin 2">
       <r>   -29.8309     0.0000     0.0000 </r>
       <r>   -29.7261     0.0000     0.0000 </r>
       <r>   -29.6212     0.0000     0.0000 </r>
       <r>   -29.5164     0.0000     0.0000 </r>
       <r>   -29.4115     0.0000     0.0000 </r>
       <r>   -29.3067     0.0000     0.0000 </r>
       <r>   -29.2018    -0.0000    -0.0000 </r>
       <r>   -29.0970    -0.0000    -0.0000 </r>
       <r>   -28.9922    -0.0000    -0.0000 </r>
       <r>   -28.8873    -0.0000    -0.0000 </r>
       <r>   -28.7825    -0.0000    -0.0000 </r>
       <r>   -28.6776    -0.0020    -0.0002 </r>
       <r>   -28.5728    -0.1871    -0.0198 </r>
       <r>   -28.4679     0.0297    -0.0167 </r>
       <r>   -28.3631    12.3269     1.2757 </r>
       <r>   -28.2583     7.5847     2.0709 </r>
       <r>   -28.1534    -0.6163     2.0063 </r>
       <r>   -28.0486    -0.0595     2.0000 </r>
       <r>   -27.9437    -0.0003     2.0000 </r>
       <r>   -27.8389    -0.0000     2.0000 </r>
       <r>   -27.7340    -0.0000     2.0000 </r>
       <r>   -27.6292     0.0000     2.0000 </r>
       <r>   -27.5244     0.0000     2.0000 </r>
       <r>   -27.4195     0.0000     2.0000 </r>
       <r>   -27.3147     0.0000     2.0000 </r>
       <r>   -27.2098     0.0000     2.0000 </r>
       <r>   -27.1050     0.0000     2.0000 </r>
       <r>   -27.0001     0.0000     2.0000 </r>
       <r>   -26.8953     0.0000     2.0000 </r>
       <r>   -26.7905     0.0000     2.0000 </r>
       <r>   -26.6856     0.0000     2.0000 </r>
       <r>   -26.5808     0.0000     2.0000 </r>
       <r>   -26.4759     0.0000     2.0000 </r>
       <r>   -26.3711     0.0000     2.0000 </r>
       <r>   -26.2662     0.0000     2.0000 </r>
       <r>   -26.1614     0.0000     2.0000 </r>
       <r>   -26.0565     0.0000     2.0000 </r>
       <r>   -25.9517     0.0000     2.0000 </r>
       <r>   -25.8469     0.0000     2.0000 </r>
       <r>   -25.7420     0.0000     2.0000 </r>
       <r>   -25.6372     0.0000     2.0000 </r>
       <r>   -25.5323     0.0000     2.0000 </r>
       <r>   -25.4275     0.0000     2.0000 </r>
       <r>   -25.3226     0.0000     2.0000 </r>
       <r>   -25.2178     0.0000     2.0000 </r>
       <r>   -25.1130     0.0000     2.0000 </r>
       <r>   -25.0081     0.0000     2.0000 </r>
       <r>   -24.9033     0.0000     2.0000 </r>
       <r>   -24.7984     0.0000     2.0000 </r>
       <r>   -24.6936     0.0000     2.0000 </r>
       <r>   -24.5887     0.0000     2.0000 </r>
       <r>   -24.4839     0.0000     2.0000 </r>
       <r>   -24.3791     0.0000     2.0000 </r>
       <r>   -24.2742     0.0000     2.0000 </r>
       <r>   -24.1694     0.0000     2.0000 </r>
       <r>   -24.0645     0.0000     2.0000 </r>
       <r>   -23.9597     0.0000     2.0000 </r>
       <r>   -23.8548     0.0000     2.0000 </r>
       <r>   -23.7500     0.0000     2.0000 </r>
       <r>   -23.6452     0.0000     2.0000 </r>
       <r>   -23.5403     0.0000     2.0000 </r>
       <r>   -23.4355     0.0000     2.0000 </r>
       <r>   -23.3306     0.0000     2.0000 </r>
       <r>   -23.2258     0.0000     2.0000 </r>
       <r>   -23.1209     0.0000     2.0000 </r>
       <r>   -23.0161     0.0000     2.0000 </r>
       <r>   -22.9113     0.0000     2.0000 </r>
       <r>   -22.8064     0.0000     2.0000 </r>
       <r>   -22.7016     0.0000     2.0000 </r>
       <r>   -22.5967     0.0000     2.0000 </r>
       <r>   -22.4919     0.0000     2.0000 </r>
       <r>   -22.3870     0.0000     2.0000 </r>
       <r>   -22.2822     0.0000     2.0000 </r>
       <r>   -22.1774     0.0000     2.0000 </r>
       <r>   -22.0725     0.0000     2.0000 </r>
       <r>   -21.9677     0.0000     2.0000 </r>
       <r>   -21.8628     0.0000     2.0000 </r>
       <r>   -21.7580     0.0000     2.0000 </r>
       <r>   -21.6531     0.0000     2.0000 </r>
       <r>   -21.5483     0.0000     2.0000 </r>
       <r>   -21.4435     0.0000     2.0000 </r>
       <r>   -21.3386     0.0000     2.0000 </r>
       <r>   -21.2338     0.0000     2.0000 </r>
       <r>   -21.1289     0.0000     2.0000 </r>
       <r>   -21.0241     0.0000     2.0000 </r>
       <r>   -20.9192     0.0000     2.0000 </r>
       <r>   -20.8144     0.0000     2.0000 </r>
       <r>   -20.7096     0.0000     2.0000 </r>
       <r>   -20.6047     0.0000     2.0000 </r>
       <r>   -20.4999     0.0000     2.0000 </r>
       <r>   -20.3950     0.0000     2.0000 </r>
       <r>   -20.2902     0.0000     2.0000 </r>
       <r>   -20.1853     0.0000     2.0000 </r>
       <r>   -20.0805     0.0000     2.0000 </r>
       <r>   -19.9757     0.0000     2.0000 </r>
       <r>   -19.8708     0.0000     2.0000 </r>
       <r>   -19.7660     0.0000     2.0000 </r>
       <r>   -19.6611     0.0000     2.0000 </r>
       <r>   -19.5563     0.0000     2.0000 </r>
       <r>   -19.4514     0.0000     2.0000 </r>
       <r>   -19.3466     0.0000     2.0000 </r>
       <r>   -19.2418     0.0000     2.0000 </r>
       <r>   -19.1369     0.0000     2.0000 </r>
       <r>   -19.0321     0.0000     2.0000 </r>
       <r>   -18.9272     0.0000     2.0000 </r>
       <r>   -18.8224     0.0000     2.0000 </r>
       <r>   -18.7175     0.0000     2.0000 </r>
       <r>   -18.6127     0.0000     2.0000 </r>
       <r>   -18.5079     0.0000     2.0000 </r>
       <r>   -18.4030     0.0000     2.0000 </r>
       <r>   -18.2982     0.0000     2.0000 </r>
       <r>   -18.1933     0.0000     2.0000 </r>
       <r>   -18.0885     0.0000     2.0000 </r>
       <r>   -17.9836     0.0000     2.0000 </r>
       <r>   -17.8788     0.0000     2.0000 </r>
       <r>   -17.7740     0.0000     2.0000 </r>
       <r>   -17.6691     0.0000     2.0000 </r>
       <r>   -17.5643     0.0000     2.0000 </r>
       <r>   -17.4594     0.0000     2.0000 </r>
       <r>   -17.3546     0.0000     2.0000 </r>
       <r>   -17.2497     0.0000     2.0000 </r>
       <r>   -17.1449     0.0000     2.0000 </r>
       <r>   -17.0400     0.0000     2.0000 </r>
       <r>   -16.9352     0.0000     2.0000 </r>
       <r>   -16.8304     0.0000     2.0000 </r>
       <r>   -16.7255     0.0000     2.0000 </r>
       <r>   -16.6207     0.0000     2.0000 </r>
       <r>   -16.5158     0.0000     2.0000 </r>
       <r>   -16.4110     0.0000     2.0000 </r>
       <r>   -16.3061     0.0000     2.0000 </r>
       <r>   -16.2013     0.0000     2.0000 </r>
       <r>   -16.0965     0.0000     2.0000 </r>
       <r>   -15.9916     0.0000     2.0000 </r>
       <r>   -15.8868     0.0000     2.0000 </r>
       <r>   -15.7819     0.0000     2.0000 </r>
       <r>   -15.6771     0.0000     2.0000 </r>
       <r>   -15.5722     0.0000     2.0000 </r>
       <r>   -15.4674     0.0000     2.0000 </r>
       <r>   -15.3626     0.0000     2.0000 </r>
       <r>   -15.2577     0.0000     2.0000 </r>
       <r>   -15.1529     0.0000     2.0000 </r>
       <r>   -15.0480     0.0000     2.0000 </r>
       <r>   -14.9432     0.0000     2.0000 </r>
       <r>   -14.8383     0.0000     2.0000 </r>
       <r>   -14.7335     0.0000     2.0000 </r>
       <r>   -14.6287    -0.0000     2.0000 </r>
       <r>   -14.5238    -0.0000     2.0000 </r>
       <r>   -14.4190    -0.0000     2.0000 </r>
       <r>   -14.3141    -0.0000     2.0000 </r>
       <r>   -14.2093    -0.0000     2.0000 </r>
       <r>   -14.1044    -0.0003     2.0000 </r>
       <r>   -13.9996    -0.0564     1.9941 </r>
       <r>   -13.8948    -0.6197     1.9291 </r>
       <r>   -13.7899     7.3761     2.7024 </r>
       <r>   -13.6851    12.4860     4.0115 </r>
       <r>   -13.5802     0.0874     4.0207 </r>
       <r>   -13.4754    -0.1949     4.0002 </r>
       <r>   -13.3705    -0.0021     4.0000 </r>
       <r>   -13.2657    -0.0000     4.0000 </r>
       <r>   -13.1609    -0.0000     4.0000 </r>
       <r>   -13.0560     0.0000     4.0000 </r>
       <r>   -12.9512     0.0000     4.0000 </r>
       <r>   -12.8463     0.0000     4.0000 </r>
       <r>   -12.7415     0.0000     4.0000 </r>
       <r>   -12.6366     0.0000     4.0000 </r>
       <r>   -12.5318     0.0000     4.0000 </r>
       <r>   -12.4270     0.0000     4.0000 </r>
       <r>   -12.3221     0.0000     4.0000 </r>
       <r>   -12.2173     0.0000     4.0000 </r>
       <r>   -12.1124    -0.0000     4.0000 </r>
       <r>   -12.0076    -0.0000     4.0000 </r>
       <r>   -11.9027    -0.0000     4.0000 </r>
       <r>   -11.7979    -0.0000     4.0000 </r>
       <r>   -11.6931    -0.0000     4.0000 </r>
       <r>   -11.5882    -0.0001     4.0000 </r>
       <r>   -11.4834    -0.0313     3.9967 </r>
       <r>   -11.3785    -0.5945     3.9344 </r>
       <r>   -11.2737     5.1428     4.4736 </r>
       <r>   -11.1688    13.3643     5.8747 </r>
       <r>   -11.0640    10.4668     6.9721 </r>
       <r>   -10.9592    10.0586     8.0266 </r>
       <r>   -10.8543    11.4908     9.2314 </r>
       <r>   -10.7495     8.0019    10.0703 </r>
       <r>   -10.6446    -0.6023    10.0072 </r>
       <r>   -10.5398    -0.0680    10.0000 </r>
       <r>   -10.4349    -0.0007    10.0000 </r>
       <r>   -10.3301    -0.0665     9.9930 </r>
       <r>   -10.2253    -0.6047     9.9296 </r>
       <r>   -10.1204     8.0268    10.7711 </r>
       <r>   -10.0156    11.9763    12.0268 </r>
       <r>    -9.9107    -0.0824    12.0181 </r>
       <r>    -9.8059    -0.1713    12.0002 </r>
       <r>    -9.7010    -0.0017    12.0000 </r>
       <r>    -9.5962    -0.0000    12.0000 </r>
       <r>    -9.4914    -0.0000    12.0000 </r>
       <r>    -9.3865    -0.0000    12.0000 </r>
       <r>    -9.2817    -0.0000    12.0000 </r>
       <r>    -9.1768    -0.0000    12.0000 </r>
       <r>    -9.0720    -0.0000    12.0000 </r>
       <r>    -8.9671    -0.0000    12.0000 </r>
       <r>    -8.8623    -0.0013    11.9999 </r>
       <r>    -8.7575    -0.1460    11.9846 </r>
       <r>    -8.6526    -0.2488    11.9585 </r>
       <r>    -8.5478    11.3187    13.1452 </r>
       <r>    -8.4429     8.7909    14.0668 </r>
       <r>    -8.3381    -1.0121    13.9607 </r>
       <r>    -8.2332     2.5077    14.2236 </r>
       <r>    -8.1284    14.6141    15.7558 </r>
       <r>    -8.0235     2.8017    16.0496 </r>
       <r>    -7.9187    -0.5014    15.9970 </r>
       <r>    -7.8139    -0.6320    15.9307 </r>
       <r>    -7.7090     6.2079    16.5816 </r>
       <r>    -7.6042    12.4588    17.8878 </r>
       <r>    -7.4993     6.2138    18.5393 </r>
       <r>    -7.3945    25.2335    21.1848 </r>
       <r>    -7.2896    21.9791    23.4892 </r>
       <r>    -7.1848    24.1790    26.0242 </r>
       <r>    -7.0800    21.3436    28.2619 </r>
       <r>    -6.9751    17.3313    30.0790 </r>
       <r>    -6.8703    14.0106    31.5479 </r>
       <r>    -6.7654    24.0995    34.0746 </r>
       <r>    -6.6606    35.7786    37.8257 </r>
       <r>    -6.5557    45.3344    42.5787 </r>
       <r>    -6.4509    38.8092    46.6476 </r>
       <r>    -6.3461    42.6650    51.1207 </r>
       <r>    -6.2412    47.3182    56.0817 </r>
       <r>    -6.1364    49.0561    61.2249 </r>
       <r>    -6.0315    38.4418    65.2552 </r>
       <r>    -5.9267    29.3588    68.3333 </r>
       <r>    -5.8218    26.4859    71.1102 </r>
       <r>    -5.7170    28.9188    74.1421 </r>
       <r>    -5.6122    42.6542    78.6141 </r>
       <r>    -5.5073    49.4210    83.7955 </r>
       <r>    -5.4025    62.4750    90.3456 </r>
       <r>    -5.2976    86.7805    99.4439 </r>
       <r>    -5.1928    90.5676   108.9393 </r>
       <r>    -5.0879    79.4720   117.2714 </r>
       <r>    -4.9831    69.8487   124.5945 </r>
       <r>    -4.8783    78.3388   132.8078 </r>
       <r>    -4.7734    83.9622   141.6107 </r>
       <r>    -4.6686    40.5648   145.8636 </r>
       <r>    -4.5637     2.5476   146.1307 </r>
       <r>    -4.4589    12.7482   147.4673 </r>
       <r>    -4.3540     5.6278   148.0573 </r>
       <r>    -4.2492    -1.7530   147.8735 </r>
       <r>    -4.1444    12.8378   149.2195 </r>
       <r>    -4.0395    25.8447   151.9291 </r>
       <r>    -3.9347     1.1774   152.0525 </r>
       <r>    -3.8298    -0.4934   152.0008 </r>
       <r>    -3.7250    -0.0078   152.0000 </r>
       <r>    -3.6201    -0.0042   151.9996 </r>
       <r>    -3.5153    -0.2759   151.9706 </r>
       <r>    -3.4105     0.7644   152.0508 </r>
       <r>    -3.3056    13.7108   153.4883 </r>
       <r>    -3.2008     5.4751   154.0623 </r>
       <r>    -3.0959    -1.2359   153.9327 </r>
       <r>    -2.9911     5.8005   154.5408 </r>
       <r>    -2.8862    16.1638   156.2355 </r>
       <r>    -2.7814    15.0461   157.8130 </r>
       <r>    -2.6766     2.1189   158.0351 </r>
       <r>    -2.5717    -0.8719   157.9437 </r>
       <r>    -2.4669    10.1268   159.0054 </r>
       <r>    -2.3620     9.4713   159.9984 </r>
       <r>    -2.2572     9.3167   160.9752 </r>
       <r>    -2.1523    10.1502   162.0394 </r>
       <r>    -2.0475    -0.6394   161.9724 </r>
       <r>    -1.9427    10.8430   163.1092 </r>
       <r>    -1.8378    12.0498   164.3725 </r>
       <r>    -1.7330    15.7409   166.0228 </r>
       <r>    -1.6281    16.1459   167.7156 </r>
       <r>    -1.5233     3.2197   168.0532 </r>
       <r>    -1.4184    -1.1268   167.9350 </r>
       <r>    -1.3136     5.5299   168.5148 </r>
       <r>    -1.2088    13.6857   169.9497 </r>
       <r>    -1.1039     0.3015   169.9813 </r>
       <r>    -0.9991     0.8466   170.0700 </r>
       <r>    -0.8942    23.2531   172.5080 </r>
       <r>    -0.7894    14.8019   174.0598 </r>
       <r>    -0.6845     0.9842   174.1630 </r>
       <r>    -0.5797    14.2839   175.6606 </r>
       <r>    -0.4749     3.4075   176.0178 </r>
       <r>    -0.3700     0.2695   176.0461 </r>
       <r>    -0.2652    19.0575   178.0441 </r>
       <r>    -0.1603    17.9310   179.9241 </r>
       <r>    -0.0555    10.5786   181.0332 </r>
       <r>     0.0494     9.2047   181.9982 </r>
       <r>     0.1542     3.9782   182.4153 </r>
       <r>     0.2590    14.1216   183.8959 </r>
       <r>     0.3639     1.3342   184.0357 </r>
       <r>     0.4687    -0.3347   184.0007 </r>
       <r>     0.5736    -0.0063   184.0000 </r>
       <r>     0.6784    -0.0000   184.0000 </r>
       <r>     0.7833    -0.0000   184.0000 </r>
       <r>     0.8881    -0.0000   184.0000 </r>
       <r>     0.9930     0.0000   184.0000 </r>
       <r>     1.0978     0.0000   184.0000 </r>
       <r>     1.2026     0.0000   184.0000 </r>
       <r>     1.3075     0.0000   184.0000 </r>
       <r>     1.4123     0.0000   184.0000 </r>
       <r>     1.5172     0.0000   184.0000 </r>
       <r>     1.6220     0.0000   184.0000 </r>
      </set>
     </set>
    </array>
   </total>
  </dos>
 </calculation>
 <structure name="finalpos" >
  <crystal>
   <varray name="basis" >
    <v>      15.00000000       0.00000000       0.00000000 </v>
    <v>       0.00000000      15.00000000       0.00000000 </v>
    <v>       0.00000000       0.00000000      15.00000000 </v>
   </varray>
   <i name="volume">   3375.00000000 </i>
   <varray name="rec_basis" >
    <v>       0.06666667       0.00000000       0.00000000 </v>
    <v>       0.00000000       0.06666667       0.00000000 </v>
    <v>       0.00000000       0.00000000       0.06666667 </v>
   </varray>
  </crystal>
  <varray name="positions" >
   <v>       0.28901267       0.41974000       0.55937333 </v>
   <v>       0.37694000       0.54881533       0.49084800 </v>
   <v>       0.39702667       0.29206800       0.56172800 </v>
   <v>       0.53677667       0.50436600       0.48075667 </v>
   <v>       0.54869533       0.34678867       0.52829867 </v>
   <v>       0.44534600       0.43815867       0.61512200 </v>
   <v>       0.41622933       0.40185333       0.44556467 </v>
   <v>       0.22423200       0.56632533       0.54479733 </v>
   <v>       0.33635533       0.54659600       0.65425067 </v>
   <v>       0.35237600       0.68396667       0.57220333 </v>
   <v>       0.48743533       0.66522000       0.47682867 </v>
   <v>       0.62047867       0.48045467       0.60751867 </v>
   <v>       0.48814133       0.59056467       0.61586667 </v>
   <v>       0.73506667       0.49557133       0.64952333 </v>
   <v>       0.81216000       0.49918800       0.65434000 </v>
  </varray>
 </structure>
</modeling>
