 vasp.5.4.4.18Apr17-6-g9f103f2a35 (build May 08 2019 13:49:07) complex          
  
 executed on             LinuxIFC date 2019.11.13  14:24:57
 running on   24 total cores
 distrk:  each k-point on   24 cores,    1 groups
 distr:  one band on NCORES_PER_BAND=   6 cores,    4 groups


--------------------------------------------------------------------------------------------------------


 INCAR:
 POTCAR:    PAW_PBE Cu 22Jun2005                  
 POTCAR:    PAW_PBE C 08Apr2002                   
 POTCAR:    PAW_PBE O 08Apr2002                   
 POTCAR:    PAW_PBE Cu 22Jun2005                  
   VRHFIN =Cu: d10 p1                                                           
   LEXCH  = PE                                                                  
   EATOM  =  1390.9808 eV,  102.2342 Ry                                         
                                                                                
   TITEL  = PAW_PBE Cu 22Jun2005                                                
   LULTRA =        F    use ultrasoft PP ?                                      
   IUNSCR =        1    unscreen: 0-lin 1-nonlin 2-no                           
   RPACOR =    2.000    partial core radius                                     
   POMASS =   63.546; ZVAL   =   11.000    mass and valenz                      
   RCORE  =    2.300    outmost cutoff radius                                   
   RWIGS  =    2.200; RWIGS  =    1.164    wigner-seitz radius (au A)           
   ENMAX  =  295.446; ENMIN  =  221.585 eV                                      
   ICORE  =        3    local potential                                         
   LCOR   =        T    correct aug charges                                     
   LPAW   =        T    paw PP                                                  
   EAUG   =  586.980                                                            
   DEXC   =    0.000                                                            
   RMAX   =    2.344    core radius for proj-oper                               
   RAUG   =    1.300    factor for augmentation sphere                          
   RDEP   =    2.302    radius for radial grids                                 
   RDEPT  =    1.771    core radius for aug-charge                              
                                                                                
   Atomic configuration                                                         
    9 entries                                                                   
     n  l   j            E        occ.                                          
     1  0  0.50     -8850.2468   2.0000                                         
     2  0  0.50     -1062.3498   2.0000                                         
     2  1  1.50      -916.8226   6.0000                                         
     3  0  0.50      -114.6929   2.0000                                         
     3  1  1.50       -72.1325   6.0000                                         
     3  2  2.50        -5.0394  10.0000                                         
     4  0  0.50        -4.6097   1.0000                                         
     4  1  0.50        -4.0817   0.0000                                         
     4  3  2.50        -1.3606   0.0000                                         
   Description                                                                  
     l       E           TYP  RCUT    TYP  RCUT                                 
     2     -5.0393973     23  2.200                                             
     2     10.8846608     23  2.200                                             
     0     -4.6097109     23  2.200                                             
     0      8.2520465     23  2.200                                             
     1     -2.7211652     23  2.200                                             
     1     21.7055443     23  2.200                                             
     3      2.7211652     23  2.300                                             
  local pseudopotential read in
  partial core-charges read in
  partial kinetic energy density read in
  atomic valenz-charges read in
  non local Contribution for L=           2  read in
    real space projection operators read in
  non local Contribution for L=           2  read in
    real space projection operators read in
  non local Contribution for L=           0  read in
    real space projection operators read in
  non local Contribution for L=           0  read in
    real space projection operators read in
  non local Contribution for L=           1  read in
    real space projection operators read in
  non local Contribution for L=           1  read in
    real space projection operators read in
    PAW grid and wavefunctions read in
 
   number of l-projection  operators is LMAX  =           6
   number of lm-projection operators is LMMAX =          18
 
 POTCAR:    PAW_PBE C 08Apr2002                   
   VRHFIN =C: s2p2                                                              
   LEXCH  = PE                                                                  
   EATOM  =   147.1560 eV,   10.8157 Ry                                         
                                                                                
   TITEL  = PAW_PBE C 08Apr2002                                                 
   LULTRA =        F    use ultrasoft PP ?                                      
   IUNSCR =        1    unscreen: 0-lin 1-nonlin 2-no                           
   RPACOR =    1.200    partial core radius                                     
   POMASS =   12.011; ZVAL   =    4.000    mass and valenz                      
   RCORE  =    1.500    outmost cutoff radius                                   
   RWIGS  =    1.630; RWIGS  =    0.863    wigner-seitz radius (au A)           
   ENMAX  =  400.000; ENMIN  =  300.000 eV                                      
   ICORE  =        2    local potential                                         
   LCOR   =        T    correct aug charges                                     
   LPAW   =        T    paw PP                                                  
   EAUG   =  644.873                                                            
   DEXC   =    0.000                                                            
   RMAX   =    1.529    core radius for proj-oper                               
   RAUG   =    1.300    factor for augmentation sphere                          
   RDEP   =    1.501    radius for radial grids                                 
   RDEPT  =    1.300    core radius for aug-charge                              
                                                                                
   Atomic configuration                                                         
    4 entries                                                                   
     n  l   j            E        occ.                                          
     1  0  0.50      -273.3789   2.0000                                         
     2  0  0.50       -13.7508   2.0000                                         
     2  1  0.50        -5.2854   2.0000                                         
     3  2  1.50        -5.4423   0.0000                                         
   Description                                                                  
     l       E           TYP  RCUT    TYP  RCUT                                 
     0    -13.7508458     23  1.200                                             
     0     -8.2022199     23  1.200                                             
     1     -5.2854383     23  1.500                                             
     1     34.0145650     23  1.500                                             
     2     -5.4423304      7  1.500                                             
  local pseudopotential read in
  partial core-charges read in
  partial kinetic energy density read in
  atomic valenz-charges read in
  non local Contribution for L=           0  read in
    real space projection operators read in
  non local Contribution for L=           0  read in
    real space projection operators read in
  non local Contribution for L=           1  read in
    real space projection operators read in
  non local Contribution for L=           1  read in
    real space projection operators read in
    PAW grid and wavefunctions read in
 
   number of l-projection  operators is LMAX  =           4
   number of lm-projection operators is LMMAX =           8
 
 POTCAR:    PAW_PBE O 08Apr2002                   
   VRHFIN =O: s2p4                                                              
   LEXCH  = PE                                                                  
   EATOM  =   432.3788 eV,   31.7789 Ry                                         
                                                                                
   TITEL  = PAW_PBE O 08Apr2002                                                 
   LULTRA =        F    use ultrasoft PP ?                                      
   IUNSCR =        1    unscreen: 0-lin 1-nonlin 2-no                           
   RPACOR =    1.200    partial core radius                                     
   POMASS =   16.000; ZVAL   =    6.000    mass and valenz                      
   RCORE  =    1.520    outmost cutoff radius                                   
   RWIGS  =    1.550; RWIGS  =    0.820    wigner-seitz radius (au A)           
   ENMAX  =  400.000; ENMIN  =  300.000 eV                                      
   ICORE  =        2    local potential                                         
   LCOR   =        T    correct aug charges                                     
   LPAW   =        T    paw PP                                                  
   EAUG   =  605.392                                                            
   DEXC   =    0.000                                                            
   RMAX   =    1.553    core radius for proj-oper                               
   RAUG   =    1.300    factor for augmentation sphere                          
   RDEP   =    1.550    radius for radial grids                                 
   RDEPT  =    1.329    core radius for aug-charge                              
                                                                                
   Atomic configuration                                                         
    4 entries                                                                   
     n  l   j            E        occ.                                          
     1  0  0.50      -514.6923   2.0000                                         
     2  0  0.50       -23.9615   2.0000                                         
     2  1  0.50        -9.0305   4.0000                                         
     3  2  1.50        -9.5241   0.0000                                         
   Description                                                                  
     l       E           TYP  RCUT    TYP  RCUT                                 
     0    -23.9615318     23  1.200                                             
     0     -9.5240782     23  1.200                                             
     1     -9.0304911     23  1.520                                             
     1      8.1634956     23  1.520                                             
     2     -9.5240782      7  1.500                                             
  local pseudopotential read in
  partial core-charges read in
  partial kinetic energy density read in
  kinetic energy density of atom read in
  atomic valenz-charges read in
  non local Contribution for L=           0  read in
    real space projection operators read in
  non local Contribution for L=           0  read in
    real space projection operators read in
  non local Contribution for L=           1  read in
    real space projection operators read in
  non local Contribution for L=           1  read in
    real space projection operators read in
    PAW grid and wavefunctions read in
 
   number of l-projection  operators is LMAX  =           4
   number of lm-projection operators is LMMAX =           8
 
  PAW_PBE Cu 22Jun2005                  :
 energy of atom  1       EATOM=-1390.9808
 kinetic energy error for atom=    0.0033 (will be added to EATOM!!)
  PAW_PBE C 08Apr2002                   :
 energy of atom  2       EATOM= -147.1560
 kinetic energy error for atom=    0.0057 (will be added to EATOM!!)
  PAW_PBE O 08Apr2002                   :
 energy of atom  3       EATOM= -432.3788
 kinetic energy error for atom=    0.0168 (will be added to EATOM!!)
 
 
 POSCAR: Cu13 C1 O1                              
  positions in cartesian coordinates
  No initial velocities read in
 exchange correlation table for  LEXCH =        8
   RHO(1)=    0.500       N(1)  =     2000
   RHO(2)=  100.500       N(2)  =     4000
 


--------------------------------------------------------------------------------------------------------


 ion  position               nearest neighbor table
   1  0.294  0.425  0.548-   7 2.37   2 2.46   9 2.46   8 2.50   3 2.56   6 2.59
   2  0.375  0.553  0.486-  10 2.39  11 2.40   7 2.43   8 2.43   1 2.46   4 2.48   9 2.60  13 2.61

   3  0.393  0.287  0.564-   7 2.45   6 2.50   5 2.54   1 2.56
   4  0.533  0.506  0.484-  12 2.35  13 2.41   7 2.43   2 2.48  11 2.49   6 2.51   5 2.53
   5  0.550  0.345  0.533-   6 2.30  12 2.50   4 2.53   7 2.53   3 2.54
   6  0.453  0.435  0.613-   5 2.30  13 2.39   9 2.42  12 2.44   3 2.50   4 2.51   7 2.58   1 2.59

   7  0.415  0.401  0.449-   1 2.37   4 2.43   2 2.43   3 2.45   5 2.53   6 2.58
   8  0.227  0.578  0.549-   9 2.38   2 2.43   1 2.50  10 2.53
   9  0.339  0.540  0.655-   8 2.38  10 2.41   6 2.42  13 2.45   1 2.46   2 2.60
  10  0.357  0.681  0.580-   2 2.39   9 2.41  13 2.44   8 2.53  11 2.57
  11  0.488  0.665  0.471-  13 2.39   2 2.40   4 2.49  10 2.57
  12  0.610  0.477  0.617-  14 1.83   4 2.35   6 2.44   5 2.50  13 2.51
  13  0.488  0.591  0.612-   6 2.39  11 2.39   4 2.41  10 2.44   9 2.45  12 2.51   2 2.61
  14  0.730  0.489  0.639-  15 1.16  12 1.83
  15  0.804  0.512  0.637-  14 1.16
 

IMPORTANT INFORMATION: All symmetrisations will be switched off!
NOSYMM: (Re-)initialisation of all symmetry stuff for point group C_1.

 
 

Automatic generation of k-mesh.
 generate k-points for:    1    1    1
Space group operators:
 irot       det(A)        alpha          n_x          n_y          n_z        tau_x        tau_y        tau_z
    1     1.000000     0.000000     1.000000     0.000000     0.000000     0.000000     0.000000     0.000000
 
 Subroutine IBZKPT returns following result:
 ===========================================
 
 Found      1 irreducible k-points:
 
 Following reciprocal coordinates:
            Coordinates               Weight
  0.000000  0.000000  0.000000      1.000000
 
 Following cartesian coordinates:
            Coordinates               Weight
  0.000000  0.000000  0.000000      1.000000
 


--------------------------------------------------------------------------------------------------------




 Dimension of arrays:
   k-points           NKPTS =      1   k-points in BZ     NKDIM =      1   number of bands    NBANDS=     92
   number of dos      NEDOS =    301   number of ions     NIONS =     15
   non local maximal  LDIM  =      6   non local SUM 2l+1 LMDIM =     18
   total plane-waves  NPLWV = ******
   max r-space proj   IRMAX =      1   max aug-charges    IRDMAX=  15028
   dimension x,y,z NGX =   120 NGY =  120 NGZ =  120
   dimension x,y,z NGXF=   240 NGYF=  240 NGZF=  240
   support grid    NGXF=   240 NGYF=  240 NGZF=  240
   ions per type =              13   1   1
   NGX,Y,Z   is equivalent  to a cutoff of  13.30, 13.30, 13.30 a.u.
   NGXF,Y,Z  is equivalent  to a cutoff of  26.60, 26.60, 26.60 a.u.

 SYSTEM =  CuCO                                    
 POSCAR =  Cu13 C1 O1                              

 Startparameter for this run:
   NWRITE =      2    write-flag & timer
   PREC   = accura    normal or accurate (medium, high low for compatibility)
   ISTART =      0    job   : 0-new  1-cont  2-samecut
   ICHARG =      2    charge: 1-file 2-atom 10-const
   ISPIN  =      2    spin polarized calculation?
   LNONCOLLINEAR =      F non collinear calculations
   LSORBIT =      F    spin-orbit coupling
   INIWAV =      1    electr: 0-lowe 1-rand  2-diag
   LASPH  =      F    aspherical Exc in radial PAW
   METAGGA=      F    non-selfconsistent MetaGGA calc.

 Electronic Relaxation 1
   ENCUT  =  600.0 eV  44.10 Ry    6.64 a.u.  29.96 29.96 29.96*2*pi/ulx,y,z
   ENINI  =  600.0     initial cutoff
   ENAUG  =  644.9 eV  augmentation charge cutoff
   NELM   =    300;   NELMIN=  3; NELMDL= -5     # of ELM steps 
   EDIFF  = 0.1E-06   stopping-criterion for ELM
   LREAL  =      F    real-space projection
   NLSPLINE    = F    spline interpolate recip. space projectors
   LCOMPAT=      F    compatible to vasp.4.4
   GGA_COMPAT  = T    GGA compatible to vasp.4.4-vasp.4.6
   LMAXPAW     = -100 max onsite density
   LMAXMIX     =    2 max onsite mixed and CHGCAR
   VOSKOWN=      0    Vosko Wilk Nusair interpolation
   ROPT   =    0.00000   0.00000   0.00000
 Ionic relaxation
   EDIFFG = -.1E-02   stopping-criterion for IOM
   NSW    =      0    number of steps for IOM
   NBLOCK =      1;   KBLOCK =      1    inner block; outer block 
   IBRION =     -1    ionic relax: 0-MD 1-quasi-New 2-CG
   NFREE  =      0    steps in history (QN), initial steepest desc. (CG)
   ISIF   =      2    stress and relaxation
   IWAVPR =     10    prediction:  0-non 1-charg 2-wave 3-comb
   ISYM   =      0    0-nonsym 1-usesym 2-fastsym
   LCORR  =      T    Harris-Foulkes like correction to forces

   POTIM  = 0.5000    time-step for ionic-motion
   TEIN   =    0.0    initial temperature
   TEBEG  =    0.0;   TEEND  =   0.0 temperature during run
   SMASS  =  -3.00    Nose mass-parameter (am)
   estimated Nose-frequenzy (Omega)   =  0.10E-29 period in steps =****** mass=  -0.514E-26a.u.
   SCALEE = 1.0000    scale energy and forces
   NPACO  =    256;   APACO  = 16.0  distance and # of slots for P.C.
   PSTRESS=    0.0 pullay stress

  Mass of Ions in am
   POMASS =  63.55 12.01 16.00
  Ionic Valenz
   ZVAL   =  11.00  4.00  6.00
  Atomic Wigner-Seitz radii
   RWIGS  =  -1.00 -1.00 -1.00
  virtual crystal weights 
   VCA    =   1.00  1.00  1.00
   NELECT =     153.0000    total number of electrons
   NUPDOWN=       1.0000    fix difference up-down

 DOS related values:
   EMIN   =  10.00;   EMAX   =-10.00  energy-range for DOS
   EFERMI =   0.00
   ISMEAR =     1;   SIGMA  =   0.10  broadening in eV -4-tet -1-fermi 0-gaus

 Electronic relaxation 2 (details)
   IALGO  =     68    algorithm
   LDIAG  =      T    sub-space diagonalisation (order eigenvalues)
   LSUBROT=      F    optimize rotation matrix (better conditioning)
   TURBO    =      0    0=normal 1=particle mesh
   IRESTART =      0    0=no restart 2=restart with 2 vectors
   NREBOOT  =      0    no. of reboots
   NMIN     =      0    reboot dimension
   EREF     =   0.00    reference energy to select bands
   IMIX   =      4    mixing-type and parameters
     AMIX     =   0.40;   BMIX     =  1.00
     AMIX_MAG =   1.60;   BMIX_MAG =  1.00
     AMIN     =   0.10
     WC   =   100.;   INIMIX=   1;  MIXPRE=   1;  MAXMIX= -45

 Intra band minimization:
   WEIMIN = 0.0000     energy-eigenvalue tresh-hold
   EBREAK =  0.27E-09  absolut break condition
   DEPER  =   0.30     relativ break condition  

   TIME   =   0.40     timestep for ELM

  volume/ion in A,a.u.               =     225.00      1518.37
  Fermi-wavevector in a.u.,A,eV,Ry     =   0.583733  1.103095  4.636102  0.340744
  Thomas-Fermi vector in A             =   1.629149
 
 Write flags
   LWAVE        =      F    write WAVECAR
   LDOWNSAMPLE  =      F    k-point downsampling of WAVECAR
   LCHARG       =      F    write CHGCAR
   LVTOT        =      F    write LOCPOT, total local potential
   LVHAR        =      F    write LOCPOT, Hartree potential only
   LELF         =      F    write electronic localiz. function (ELF)
   LORBIT       =      0    0 simple, 1 ext, 2 COOP (PROOUT), +10 PAW based schemes


 Dipole corrections
   LMONO  =      F    monopole corrections only (constant potential shift)
   LDIPOL =      F    correct potential (dipole corrections)
   IDIPOL =      0    1-x, 2-y, 3-z, 4-all directions 
   EPSILON=  1.0000000 bulk dielectric constant

 Exchange correlation treatment:
   GGA     =    PE    GGA type
   LEXCH   =     8    internal setting for exchange type
   VOSKOWN=      0    Vosko Wilk Nusair interpolation
   LHFCALC =     F    Hartree Fock is set to
   LHFONE  =     F    Hartree Fock one center treatment
   AEXX    =    0.0000 exact exchange contribution

 Linear response parameters
   LEPSILON=     F    determine dielectric tensor
   LRPA    =     F    only Hartree local field effects (RPA)
   LNABLA  =     F    use nabla operator in PAW spheres
   LVEL    =     F    velocity operator in full k-point grid
   LINTERFAST=   F  fast interpolation
   KINTER  =     0    interpolate to denser k-point grid
   CSHIFT  =0.1000    complex shift for real part using Kramers Kronig
   OMEGAMAX=  -1.0    maximum frequency
   DEG_THRESHOLD= 0.2000000E-02 threshold for treating states as degnerate
   RTIME   =   -0.100 relaxation time in fs
  (WPLASMAI=    0.000 imaginary part of plasma frequency in eV, 0.658/RTIME)
   DFIELD  = 0.0000000 0.0000000 0.0000000 field for delta impulse in time
 
 Orbital magnetization related:
   ORBITALMAG=     F  switch on orbital magnetization
   LCHIMAG   =     F  perturbation theory with respect to B field
   DQ        =  0.001000  dq finite difference perturbation B field
   LLRAUG    =     F  two centre corrections for induced B field



--------------------------------------------------------------------------------------------------------


 Static calculation
 charge density and potential will be updated during run
 spin polarized calculation
 RMM-DIIS sequential band-by-band and
  variant of blocked Davidson during initial phase
 perform sub-space diagonalisation
    before iterative eigenvector-optimisation
 modified Broyden-mixing scheme, WC =      100.0
 initial mixing is a Kerker type mixing with AMIX =  0.4000 and BMIX =      1.0000
 Hartree-type preconditioning will be used
 using additional bands           15
 reciprocal scheme for non local part
 use partial core corrections
 calculate Harris-corrections to forces 
   (improved forces if not selfconsistent)
 use gradient corrections 
 use of overlap-Matrix (Vanderbilt PP)
 Methfessel and Paxton  Order N= 1 SIGMA  =   0.10


--------------------------------------------------------------------------------------------------------


  energy-cutoff  :      600.00
  volume of cell :     3375.00
      direct lattice vectors                 reciprocal lattice vectors
    15.000000000  0.000000000  0.000000000     0.066666667  0.000000000  0.000000000
     0.000000000 15.000000000  0.000000000     0.000000000  0.066666667  0.000000000
     0.000000000  0.000000000 15.000000000     0.000000000  0.000000000  0.066666667

  length of vectors
    15.000000000 15.000000000 15.000000000     0.066666667  0.066666667  0.066666667


 
 k-points in units of 2pi/SCALE and weight: read from INCAR                         
   0.00000000  0.00000000  0.00000000       1.000
 
 k-points in reciprocal lattice and weights: read from INCAR                         
   0.00000000  0.00000000  0.00000000       1.000
 
 position of ions in fractional coordinates (direct lattice) 
   0.29374400  0.42465800  0.54782200
   0.37474467  0.55308667  0.48606733
   0.39347933  0.28716200  0.56396067
   0.53295133  0.50561600  0.48378267
   0.54981400  0.34545667  0.53335400
   0.45331933  0.43492733  0.61269533
   0.41476733  0.40072333  0.44859933
   0.22715467  0.57772000  0.54883267
   0.33865467  0.54038333  0.65500000
   0.35663867  0.68080667  0.57956333
   0.48840000  0.66508533  0.47103333
   0.61038400  0.47658600  0.61663533
   0.48813267  0.59066400  0.61224467
   0.72984000  0.48942733  0.63888867
   0.80362000  0.51189867  0.63676800
 
 position of ions in cartesian coordinates  (Angst):
   4.40616000  6.36987000  8.21733000
   5.62117000  8.29630000  7.29101000
   5.90219000  4.30743000  8.45941000
   7.99427000  7.58424000  7.25674000
   8.24721000  5.18185000  8.00031000
   6.79979000  6.52391000  9.19043000
   6.22151000  6.01085000  6.72899000
   3.40732000  8.66580000  8.23249000
   5.07982000  8.10575000  9.82500000
   5.34958000 10.21210000  8.69345000
   7.32600000  9.97628000  7.06550000
   9.15576000  7.14879000  9.24953000
   7.32199000  8.85996000  9.18367000
  10.94760000  7.34141000  9.58333000
  12.05430000  7.67848000  9.55152000
 


--------------------------------------------------------------------------------------------------------


 k-point  1 :   0.0000 0.0000 0.0000  plane waves:  112451

 maximum and minimum number of plane-waves per node :     18753    18726

 maximum number of plane-waves:    112451
 maximum index in each direction: 
   IXMAX=   29   IYMAX=   29   IZMAX=   29
   IXMIN=  -29   IYMIN=  -29   IZMIN=  -29


 parallel 3D FFT for wavefunctions:
    minimum data exchange during FFTs selected (reduces bandwidth)
 parallel 3D FFT for charge:
    minimum data exchange during FFTs selected (reduces bandwidth)


 total amount of memory used by VASP MPI-rank0   158680. kBytes
=======================================================================

   base      :      30000. kBytes
   nonl-proj :      12601. kBytes
   fftplans  :      27994. kBytes
   grid      :      74150. kBytes
   one-center:         93. kBytes
   wavefun   :      13842. kBytes
 
     INWAV:  cpu time    0.0000: real time    0.0001
 Broyden mixing: mesh for mixing (old mesh)
   NGX = 59   NGY = 59   NGZ = 59
  (NGX  =240   NGY  =240   NGZ  =240)
  gives a total of 205379 points

 initial charge density was supplied:
 charge density of overlapping atoms calculated
 number of electron     153.0000000 magnetization       1.0000000
 keeping initial charge density in first step


--------------------------------------------------------------------------------------------------------


 Maximum index for augmentation-charges          707 (set IRDMAX)


--------------------------------------------------------------------------------------------------------


 First call to EWALD:  gamma=   0.118
 Maximum number of real-space cells 3x 3x 3
 Maximum number of reciprocal cells 3x 3x 3

    FEWALD:  cpu time    0.0015: real time    0.0019


--------------------------------------- Iteration      1(   1)  ---------------------------------------


    POTLOK:  cpu time    1.1648: real time    1.1888
    SETDIJ:  cpu time    0.0188: real time    0.0188
     EDDAV:  cpu time    7.6001: real time    7.6046
       DOS:  cpu time    0.0005: real time    0.0005
    --------------------------------------------
      LOOP:  cpu time    8.7842: real time    8.8127

 eigenvalue-minimisations  :   376
 total energy-change (2. order) : 0.1121436E+04  (-0.4465594E+04)
 number of electron     153.0000000 magnetization       1.0000000
 augmentation part      153.0000000 magnetization       1.0000000

 Free energy of the ion-electron system (eV)
  ---------------------------------------------------
  alpha Z        PSCENC =        41.16232785
  Ewald energy   TEWEN  =     16687.98269227
  -Hartree energ DENC   =    -33706.11695452
  -exchange      EXHF   =         0.00000000
  -V(xc)+E(xc)   XCENC  =       623.77167938
  PAW double counting   =     16421.75059358   -17800.06104309
  entropy T*S    EENTRO =        -0.00712125
  eigenvalues    EBANDS =       190.73456188
  atomic energy  EATOM  =     18662.21924712
  Solvation  Ediel_sol  =         0.00000000
  ---------------------------------------------------
  free energy    TOTEN  =      1121.43598322 eV

  energy without entropy =     1121.44310447  energy(sigma->0) =     1121.43835697


--------------------------------------------------------------------------------------------------------




--------------------------------------- Iteration      1(   2)  ---------------------------------------


     EDDAV:  cpu time    7.4727: real time    7.4752
       DOS:  cpu time    0.0003: real time    0.0003
    --------------------------------------------
      LOOP:  cpu time    7.4731: real time    7.4755

 eigenvalue-minimisations  :   368
 total energy-change (2. order) :-0.1031294E+04  (-0.9801367E+03)
 number of electron     153.0000000 magnetization       1.0000000
 augmentation part      153.0000000 magnetization       1.0000000

 Free energy of the ion-electron system (eV)
  ---------------------------------------------------
  alpha Z        PSCENC =        41.16232785
  Ewald energy   TEWEN  =     16687.98269227
  -Hartree energ DENC   =    -33706.11695452
  -exchange      EXHF   =         0.00000000
  -V(xc)+E(xc)   XCENC  =       623.77167938
  PAW double counting   =     16421.75059358   -17800.06104309
  entropy T*S    EENTRO =         0.00587911
  eigenvalues    EBANDS =      -840.57221908
  atomic energy  EATOM  =     18662.21924712
  Solvation  Ediel_sol  =         0.00000000
  ---------------------------------------------------
  free energy    TOTEN  =        90.14220262 eV

  energy without entropy =       90.13632351  energy(sigma->0) =       90.14024292


--------------------------------------------------------------------------------------------------------




--------------------------------------- Iteration      1(   3)  ---------------------------------------


     EDDAV:  cpu time   11.8421: real time   11.8468
       DOS:  cpu time    0.0003: real time    0.0003
    --------------------------------------------
      LOOP:  cpu time   11.8424: real time   11.8471

 eigenvalue-minimisations  :   656
 total energy-change (2. order) :-0.1224671E+03  (-0.1147411E+03)
 number of electron     153.0000000 magnetization       1.0000000
 augmentation part      153.0000000 magnetization       1.0000000

 Free energy of the ion-electron system (eV)
  ---------------------------------------------------
  alpha Z        PSCENC =        41.16232785
  Ewald energy   TEWEN  =     16687.98269227
  -Hartree energ DENC   =    -33706.11695452
  -exchange      EXHF   =         0.00000000
  -V(xc)+E(xc)   XCENC  =       623.77167938
  PAW double counting   =     16421.75059358   -17800.06104309
  entropy T*S    EENTRO =         0.01165935
  eigenvalues    EBANDS =      -963.04509181
  atomic energy  EATOM  =     18662.21924712
  Solvation  Ediel_sol  =         0.00000000
  ---------------------------------------------------
  free energy    TOTEN  =       -32.32488987 eV

  energy without entropy =      -32.33654922  energy(sigma->0) =      -32.32877632


--------------------------------------------------------------------------------------------------------




--------------------------------------- Iteration      1(   4)  ---------------------------------------


     EDDAV:  cpu time   10.2215: real time   10.2263
       DOS:  cpu time    0.0003: real time    0.0003
    --------------------------------------------
      LOOP:  cpu time   10.2219: real time   10.2266

 eigenvalue-minimisations  :   552
 total energy-change (2. order) :-0.2351466E+02  (-0.2313298E+02)
 number of electron     153.0000000 magnetization       1.0000000
 augmentation part      153.0000000 magnetization       1.0000000

 Free energy of the ion-electron system (eV)
  ---------------------------------------------------
  alpha Z        PSCENC =        41.16232785
  Ewald energy   TEWEN  =     16687.98269227
  -Hartree energ DENC   =    -33706.11695452
  -exchange      EXHF   =         0.00000000
  -V(xc)+E(xc)   XCENC  =       623.77167938
  PAW double counting   =     16421.75059358   -17800.06104309
  entropy T*S    EENTRO =         0.01523957
  eigenvalues    EBANDS =      -986.56333589
  atomic energy  EATOM  =     18662.21924712
  Solvation  Ediel_sol  =         0.00000000
  ---------------------------------------------------
  free energy    TOTEN  =       -55.83955373 eV

  energy without entropy =      -55.85479330  energy(sigma->0) =      -55.84463359


--------------------------------------------------------------------------------------------------------




--------------------------------------- Iteration      1(   5)  ---------------------------------------


     EDDAV:  cpu time   12.1255: real time   12.1294
       DOS:  cpu time    0.0004: real time    0.0004
    CHARGE:  cpu time    0.6581: real time    0.6584
    MIXING:  cpu time    0.0243: real time    0.0244
    --------------------------------------------
      LOOP:  cpu time   12.8083: real time   12.8126

 eigenvalue-minimisations  :   680
 total energy-change (2. order) :-0.1764088E+01  (-0.1608420E+01)
 number of electron     153.0000008 magnetization       1.0000000
 augmentation part       87.4293355 magnetization       0.3867636

 Broyden mixing:
  rms(total) = 0.23876E+01    rms(broyden)= 0.23875E+01
  rms(prec ) = 0.27399E+01
  weight for this iteration     100.00

 Free energy of the ion-electron system (eV)
  ---------------------------------------------------
  alpha Z        PSCENC =        41.16232785
  Ewald energy   TEWEN  =     16687.98269227
  -Hartree energ DENC   =    -33706.11695452
  -exchange      EXHF   =         0.00000000
  -V(xc)+E(xc)   XCENC  =       623.77167938
  PAW double counting   =     16421.75059358   -17800.06104309
  entropy T*S    EENTRO =         0.01320103
  eigenvalues    EBANDS =      -988.32538549
  atomic energy  EATOM  =     18662.21924712
  Solvation  Ediel_sol  =         0.00000000
  ---------------------------------------------------
  free energy    TOTEN  =       -57.60364188 eV

  energy without entropy =      -57.61684290  energy(sigma->0) =      -57.60804222


--------------------------------------------------------------------------------------------------------




--------------------------------------- Iteration      1(   6)  ---------------------------------------


    POTLOK:  cpu time    1.1668: real time    1.1683
    SETDIJ:  cpu time    0.0186: real time    0.0190
    EDDIAG:  cpu time    1.0996: real time    1.0999
  RMM-DIIS:  cpu time    7.1921: real time    7.1945
    ORTHCH:  cpu time    0.0571: real time    0.0571
       DOS:  cpu time    0.0005: real time    0.0005
    CHARGE:  cpu time    0.6444: real time    0.6444
    MIXING:  cpu time    0.0250: real time    0.0254
    --------------------------------------------
      LOOP:  cpu time   10.2040: real time   10.2090

 eigenvalue-minimisations  :   423
 total energy-change (2. order) : 0.1243718E+01  (-0.1203996E+02)
 number of electron     153.0000009 magnetization       1.0000000
 augmentation part       95.6958157 magnetization       0.0700098

 Broyden mixing:
  rms(total) = 0.15396E+01    rms(broyden)= 0.15395E+01
  rms(prec ) = 0.17794E+01
  weight for this iteration     100.00

 eigenvalues of (default mixing * dielectric matrix)
  average eigenvalue GAMMA=   0.6168
  0.6168

 Free energy of the ion-electron system (eV)
  ---------------------------------------------------
  alpha Z        PSCENC =        41.16232785
  Ewald energy   TEWEN  =     16687.98269227
  -Hartree energ DENC   =    -33453.81319041
  -exchange      EXHF   =         0.00000000
  -V(xc)+E(xc)   XCENC  =       611.58752138
  PAW double counting   =     16716.81267283   -18040.56568086
  entropy T*S    EENTRO =         0.00914307
  eigenvalues    EBANDS =     -1281.75465672
  atomic energy  EATOM  =     18662.21924712
  Solvation  Ediel_sol  =         0.00000000
  ---------------------------------------------------
  free energy    TOTEN  =       -56.35992346 eV

  energy without entropy =      -56.36906653  energy(sigma->0) =      -56.36297115


--------------------------------------------------------------------------------------------------------




--------------------------------------- Iteration      1(   7)  ---------------------------------------


    POTLOK:  cpu time    1.1669: real time    1.1702
    SETDIJ:  cpu time    0.0186: real time    0.0186
    EDDIAG:  cpu time    1.0974: real time    1.0977
  RMM-DIIS:  cpu time    7.3236: real time    7.3257
    ORTHCH:  cpu time    0.0571: real time    0.0571
       DOS:  cpu time    0.0005: real time    0.0005
    CHARGE:  cpu time    0.6429: real time    0.6431
    MIXING:  cpu time    0.0259: real time    0.0259
    --------------------------------------------
      LOOP:  cpu time   10.3330: real time   10.3387

 eigenvalue-minimisations  :   382
 total energy-change (2. order) : 0.7000276E+01  (-0.2484948E+01)
 number of electron     153.0000009 magnetization       1.0000000
 augmentation part       92.8145258 magnetization       0.1028672

 Broyden mixing:
  rms(total) = 0.37633E+00    rms(broyden)= 0.37630E+00
  rms(prec ) = 0.46973E+00
  weight for this iteration     100.00

 eigenvalues of (default mixing * dielectric matrix)
  average eigenvalue GAMMA=   0.8893
  1.1128  0.6657

 Free energy of the ion-electron system (eV)
  ---------------------------------------------------
  alpha Z        PSCENC =        41.16232785
  Ewald energy   TEWEN  =     16687.98269227
  -Hartree energ DENC   =    -33591.99088815
  -exchange      EXHF   =         0.00000000
  -V(xc)+E(xc)   XCENC  =       616.03393117
  PAW double counting   =     17066.71387055   -18440.94239940
  entropy T*S    EENTRO =         0.00882100
  eigenvalues    EBANDS =     -1090.54724974
  atomic energy  EATOM  =     18662.21924712
  Solvation  Ediel_sol  =         0.00000000
  ---------------------------------------------------
  free energy    TOTEN  =       -49.35964733 eV

  energy without entropy =      -49.36846833  energy(sigma->0) =      -49.36258767


--------------------------------------------------------------------------------------------------------




--------------------------------------- Iteration      1(   8)  ---------------------------------------


    POTLOK:  cpu time    1.1662: real time    1.1665
    SETDIJ:  cpu time    0.0194: real time    0.0194
    EDDIAG:  cpu time    1.0968: real time    1.0975
  RMM-DIIS:  cpu time    7.2066: real time    7.2096
    ORTHCH:  cpu time    0.0571: real time    0.0572
       DOS:  cpu time    0.0005: real time    0.0005
    CHARGE:  cpu time    0.6485: real time    0.6485
    MIXING:  cpu time    0.0241: real time    0.0241
    --------------------------------------------
      LOOP:  cpu time   10.2192: real time   10.2233

 eigenvalue-minimisations  :   422
 total energy-change (2. order) : 0.2747298E+00  (-0.3466606E+00)
 number of electron     153.0000009 magnetization       1.0000000
 augmentation part       92.1036023 magnetization       0.1058626

 Broyden mixing:
  rms(total) = 0.25819E+00    rms(broyden)= 0.25817E+00
  rms(prec ) = 0.29188E+00
  weight for this iteration     100.00

 eigenvalues of (default mixing * dielectric matrix)
  average eigenvalue GAMMA=   0.9719
  1.4659  0.7249  0.7249

 Free energy of the ion-electron system (eV)
  ---------------------------------------------------
  alpha Z        PSCENC =        41.16232785
  Ewald energy   TEWEN  =     16687.98269227
  -Hartree energ DENC   =    -33637.28221662
  -exchange      EXHF   =         0.00000000
  -V(xc)+E(xc)   XCENC  =       616.34711433
  PAW double counting   =     17406.07270643   -18798.78272561
  entropy T*S    EENTRO =         0.00889091
  eigenvalues    EBANDS =     -1026.81295418
  atomic energy  EATOM  =     18662.21924712
  Solvation  Ediel_sol  =         0.00000000
  ---------------------------------------------------
  free energy    TOTEN  =       -49.08491749 eV

  energy without entropy =      -49.09380840  energy(sigma->0) =      -49.08788113


--------------------------------------------------------------------------------------------------------




--------------------------------------- Iteration      1(   9)  ---------------------------------------


    POTLOK:  cpu time    1.1675: real time    1.1706
    SETDIJ:  cpu time    0.0184: real time    0.0184
    EDDIAG:  cpu time    1.0997: real time    1.1001
  RMM-DIIS:  cpu time    7.0511: real time    7.0533
    ORTHCH:  cpu time    0.0569: real time    0.0569
       DOS:  cpu time    0.0004: real time    0.0004
    CHARGE:  cpu time    0.6498: real time    0.6498
    MIXING:  cpu time    0.0255: real time    0.0255
    --------------------------------------------
      LOOP:  cpu time   10.0693: real time   10.0751

 eigenvalue-minimisations  :   417
 total energy-change (2. order) : 0.3015091E-01  (-0.8604025E-01)
 number of electron     153.0000009 magnetization       1.0000000
 augmentation part       92.2748356 magnetization       0.0893910

 Broyden mixing:
  rms(total) = 0.17055E+00    rms(broyden)= 0.17054E+00
  rms(prec ) = 0.20239E+00
  weight for this iteration     100.00

 eigenvalues of (default mixing * dielectric matrix)
  average eigenvalue GAMMA=   1.0353
  2.0655  0.7786  0.7786  0.5186

 Free energy of the ion-electron system (eV)
  ---------------------------------------------------
  alpha Z        PSCENC =        41.16232785
  Ewald energy   TEWEN  =     16687.98269227
  -Hartree energ DENC   =    -33637.34370255
  -exchange      EXHF   =         0.00000000
  -V(xc)+E(xc)   XCENC  =       615.75497279
  PAW double counting   =     17559.04651038   -18954.79308574
  entropy T*S    EENTRO =         0.00908670
  eigenvalues    EBANDS =     -1023.09281541
  atomic energy  EATOM  =     18662.21924712
  Solvation  Ediel_sol  =         0.00000000
  ---------------------------------------------------
  free energy    TOTEN  =       -49.05476658 eV

  energy without entropy =      -49.06385328  energy(sigma->0) =      -49.05779548


--------------------------------------------------------------------------------------------------------




--------------------------------------- Iteration      1(  10)  ---------------------------------------


    POTLOK:  cpu time    1.1700: real time    1.1716
    SETDIJ:  cpu time    0.0183: real time    0.0183
    EDDIAG:  cpu time    1.0996: real time    1.0999
  RMM-DIIS:  cpu time    7.1204: real time    7.1226
    ORTHCH:  cpu time    0.0571: real time    0.0571
       DOS:  cpu time    0.0004: real time    0.0004
    CHARGE:  cpu time    0.6520: real time    0.6523
    MIXING:  cpu time    0.0252: real time    0.0252
    --------------------------------------------
      LOOP:  cpu time   10.1432: real time   10.1475

 eigenvalue-minimisations  :   417
 total energy-change (2. order) : 0.4787651E-01  (-0.2553378E-01)
 number of electron     153.0000009 magnetization       1.0000000
 augmentation part       92.4058306 magnetization       0.0800492

 Broyden mixing:
  rms(total) = 0.52944E-01    rms(broyden)= 0.52939E-01
  rms(prec ) = 0.68878E-01
  weight for this iteration     100.00

 eigenvalues of (default mixing * dielectric matrix)
  average eigenvalue GAMMA=   1.0277
  2.0651  1.0229  0.7982  0.7982  0.4541

 Free energy of the ion-electron system (eV)
  ---------------------------------------------------
  alpha Z        PSCENC =        41.16232785
  Ewald energy   TEWEN  =     16687.98269227
  -Hartree energ DENC   =    -33636.88480915
  -exchange      EXHF   =         0.00000000
  -V(xc)+E(xc)   XCENC  =       615.46934491
  PAW double counting   =     17643.41354063   -19040.76770283
  entropy T*S    EENTRO =         0.00901605
  eigenvalues    EBANDS =     -1021.61054692
  atomic energy  EATOM  =     18662.21924712
  Solvation  Ediel_sol  =         0.00000000
  ---------------------------------------------------
  free energy    TOTEN  =       -49.00689007 eV

  energy without entropy =      -49.01590612  energy(sigma->0) =      -49.00989542


--------------------------------------------------------------------------------------------------------




--------------------------------------- Iteration      1(  11)  ---------------------------------------


    POTLOK:  cpu time    1.1705: real time    1.1708
    SETDIJ:  cpu time    0.0184: real time    0.0184
    EDDIAG:  cpu time    1.0987: real time    1.0990
  RMM-DIIS:  cpu time    7.4105: real time    7.4130
    ORTHCH:  cpu time    0.0556: real time    0.0556
       DOS:  cpu time    0.0004: real time    0.0004
    CHARGE:  cpu time    0.6515: real time    0.6515
    MIXING:  cpu time    0.0260: real time    0.0260
    --------------------------------------------
      LOOP:  cpu time   10.4316: real time   10.4347

 eigenvalue-minimisations  :   442
 total energy-change (2. order) : 0.7984891E-02  (-0.5980211E-02)
 number of electron     153.0000009 magnetization       1.0000000
 augmentation part       92.3626432 magnetization       0.0837218

 Broyden mixing:
  rms(total) = 0.36283E-01    rms(broyden)= 0.36282E-01
  rms(prec ) = 0.48169E-01
  weight for this iteration     100.00

 eigenvalues of (default mixing * dielectric matrix)
  average eigenvalue GAMMA=   1.0637
  2.1431  1.5619  0.7845  0.7845  0.6536  0.4544

 Free energy of the ion-electron system (eV)
  ---------------------------------------------------
  alpha Z        PSCENC =        41.16232785
  Ewald energy   TEWEN  =     16687.98269227
  -Hartree energ DENC   =    -33643.44173130
  -exchange      EXHF   =         0.00000000
  -V(xc)+E(xc)   XCENC  =       615.58965879
  PAW double counting   =     17685.15996581   -19084.35439602
  entropy T*S    EENTRO =         0.00908908
  eigenvalues    EBANDS =     -1013.32575878
  atomic energy  EATOM  =     18662.21924712
  Solvation  Ediel_sol  =         0.00000000
  ---------------------------------------------------
  free energy    TOTEN  =       -48.99890518 eV

  energy without entropy =      -49.00799426  energy(sigma->0) =      -49.00193487


--------------------------------------------------------------------------------------------------------




--------------------------------------- Iteration      1(  12)  ---------------------------------------


    POTLOK:  cpu time    1.1699: real time    1.1710
    SETDIJ:  cpu time    0.0184: real time    0.0184
    EDDIAG:  cpu time    1.0972: real time    1.0978
  RMM-DIIS:  cpu time    7.2562: real time    7.2583
    ORTHCH:  cpu time    0.0555: real time    0.0555
       DOS:  cpu time    0.0004: real time    0.0004
    CHARGE:  cpu time    0.6506: real time    0.6508
    MIXING:  cpu time    0.0268: real time    0.0268
    --------------------------------------------
      LOOP:  cpu time   10.2751: real time   10.2791

 eigenvalue-minimisations  :   424
 total energy-change (2. order) : 0.2428874E-02  (-0.1790966E-02)
 number of electron     153.0000009 magnetization       1.0000000
 augmentation part       92.3678724 magnetization       0.0834784

 Broyden mixing:
  rms(total) = 0.16410E-01    rms(broyden)= 0.16409E-01
  rms(prec ) = 0.28201E-01
  weight for this iteration     100.00

 eigenvalues of (default mixing * dielectric matrix)
  average eigenvalue GAMMA=   1.0673
  2.4014  1.6150  0.9881  0.7351  0.7351  0.5409  0.4552

 Free energy of the ion-electron system (eV)
  ---------------------------------------------------
  alpha Z        PSCENC =        41.16232785
  Ewald energy   TEWEN  =     16687.98269227
  -Hartree energ DENC   =    -33646.54812700
  -exchange      EXHF   =         0.00000000
  -V(xc)+E(xc)   XCENC  =       615.61672441
  PAW double counting   =     17697.15659995   -19096.72479823
  entropy T*S    EENTRO =         0.00904700
  eigenvalues    EBANDS =     -1009.87018968
  atomic energy  EATOM  =     18662.21924712
  Solvation  Ediel_sol  =         0.00000000
  ---------------------------------------------------
  free energy    TOTEN  =       -48.99647630 eV

  energy without entropy =      -49.00552330  energy(sigma->0) =      -48.99949197


--------------------------------------------------------------------------------------------------------




--------------------------------------- Iteration      1(  13)  ---------------------------------------


    POTLOK:  cpu time    1.1713: real time    1.1745
    SETDIJ:  cpu time    0.0177: real time    0.0178
    EDDIAG:  cpu time    1.0977: real time    1.0982
  RMM-DIIS:  cpu time    7.4782: real time    7.4804
    ORTHCH:  cpu time    0.0552: real time    0.0552
       DOS:  cpu time    0.0005: real time    0.0005
    CHARGE:  cpu time    0.6501: real time    0.6501
    MIXING:  cpu time    0.0276: real time    0.0276
    --------------------------------------------
      LOOP:  cpu time   10.4983: real time   10.5042

 eigenvalue-minimisations  :   444
 total energy-change (2. order) : 0.6757108E-03  (-0.4940102E-03)
 number of electron     153.0000009 magnetization       1.0000000
 augmentation part       92.3801422 magnetization       0.0834401

 Broyden mixing:
  rms(total) = 0.97104E-02    rms(broyden)= 0.97101E-02
  rms(prec ) = 0.19704E-01
  weight for this iteration     100.00

 eigenvalues of (default mixing * dielectric matrix)
  average eigenvalue GAMMA=   1.1027
  2.3978  1.8368  1.3099  0.7915  0.7915  0.7345  0.5181  0.4419

 Free energy of the ion-electron system (eV)
  ---------------------------------------------------
  alpha Z        PSCENC =        41.16232785
  Ewald energy   TEWEN  =     16687.98269227
  -Hartree energ DENC   =    -33650.01182557
  -exchange      EXHF   =         0.00000000
  -V(xc)+E(xc)   XCENC  =       615.61898396
  PAW double counting   =     17703.23714332   -19102.85776994
  entropy T*S    EENTRO =         0.00907511
  eigenvalues    EBANDS =     -1006.35567471
  atomic energy  EATOM  =     18662.21924712
  Solvation  Ediel_sol  =         0.00000000
  ---------------------------------------------------
  free energy    TOTEN  =       -48.99580059 eV

  energy without entropy =      -49.00487571  energy(sigma->0) =      -48.99882563


--------------------------------------------------------------------------------------------------------




--------------------------------------- Iteration      1(  14)  ---------------------------------------


    POTLOK:  cpu time    1.1702: real time    1.1716
    SETDIJ:  cpu time    0.0186: real time    0.0186
    EDDIAG:  cpu time    1.0995: real time    1.0997
  RMM-DIIS:  cpu time    7.8648: real time    7.8672
    ORTHCH:  cpu time    0.0555: real time    0.0555
       DOS:  cpu time    0.0005: real time    0.0005
    CHARGE:  cpu time    0.6518: real time    0.6522
    MIXING:  cpu time    0.0284: real time    0.0284
    --------------------------------------------
      LOOP:  cpu time   10.8892: real time   10.8936

 eigenvalue-minimisations  :   464
 total energy-change (2. order) :-0.1137622E-02  (-0.2964977E-03)
 number of electron     153.0000009 magnetization       1.0000000
 augmentation part       92.3807552 magnetization       0.0834938

 Broyden mixing:
  rms(total) = 0.78896E-02    rms(broyden)= 0.78894E-02
  rms(prec ) = 0.14179E-01
  weight for this iteration     100.00

 eigenvalues of (default mixing * dielectric matrix)
  average eigenvalue GAMMA=   1.1490
  2.4080  2.4080  1.2734  0.9978  0.7970  0.7970  0.7208  0.4938  0.4450

 Free energy of the ion-electron system (eV)
  ---------------------------------------------------
  alpha Z        PSCENC =        41.16232785
  Ewald energy   TEWEN  =     16687.98269227
  -Hartree energ DENC   =    -33655.41837975
  -exchange      EXHF   =         0.00000000
  -V(xc)+E(xc)   XCENC  =       615.65894943
  PAW double counting   =     17696.72106795   -19096.10069955
  entropy T*S    EENTRO =         0.00908048
  eigenvalues    EBANDS =     -1001.23122403
  atomic energy  EATOM  =     18662.21924712
  Solvation  Ediel_sol  =         0.00000000
  ---------------------------------------------------
  free energy    TOTEN  =       -48.99693822 eV

  energy without entropy =      -49.00601870  energy(sigma->0) =      -48.99996504


--------------------------------------------------------------------------------------------------------




--------------------------------------- Iteration      1(  15)  ---------------------------------------


    POTLOK:  cpu time    1.1706: real time    1.1720
    SETDIJ:  cpu time    0.0185: real time    0.0185
    EDDIAG:  cpu time    1.0979: real time    1.0982
  RMM-DIIS:  cpu time    6.9596: real time    6.9620
    ORTHCH:  cpu time    0.0547: real time    0.0547
       DOS:  cpu time    0.0005: real time    0.0004
    CHARGE:  cpu time    0.6521: real time    0.6523
    MIXING:  cpu time    0.0292: real time    0.0292
    --------------------------------------------
      LOOP:  cpu time    9.9830: real time    9.9872

 eigenvalue-minimisations  :   399
 total energy-change (2. order) :-0.1317295E-02  (-0.1500027E-03)
 number of electron     153.0000009 magnetization       1.0000000
 augmentation part       92.3742513 magnetization       0.0841734

 Broyden mixing:
  rms(total) = 0.62530E-02    rms(broyden)= 0.62528E-02
  rms(prec ) = 0.10279E-01
  weight for this iteration     100.00

 eigenvalues of (default mixing * dielectric matrix)
  average eigenvalue GAMMA=   1.1608
  2.6484  2.6484  1.2790  1.2790  0.7690  0.7690  0.7505  0.5463  0.4463  0.4727

 Free energy of the ion-electron system (eV)
  ---------------------------------------------------
  alpha Z        PSCENC =        41.16232785
  Ewald energy   TEWEN  =     16687.98269227
  -Hartree energ DENC   =    -33659.10041694
  -exchange      EXHF   =         0.00000000
  -V(xc)+E(xc)   XCENC  =       615.70265348
  PAW double counting   =     17691.05330992   -19090.33684019
  entropy T*S    EENTRO =         0.00907629
  eigenvalues    EBANDS =      -997.69030531
  atomic energy  EATOM  =     18662.21924712
  Solvation  Ediel_sol  =         0.00000000
  ---------------------------------------------------
  free energy    TOTEN  =       -48.99825551 eV

  energy without entropy =      -49.00733180  energy(sigma->0) =      -49.00128094


--------------------------------------------------------------------------------------------------------




--------------------------------------- Iteration      1(  16)  ---------------------------------------


    POTLOK:  cpu time    1.1696: real time    1.1719
    SETDIJ:  cpu time    0.0183: real time    0.0183
    EDDIAG:  cpu time    1.0971: real time    1.0974
  RMM-DIIS:  cpu time    6.4670: real time    6.4693
    ORTHCH:  cpu time    0.0554: real time    0.0554
       DOS:  cpu time    0.0005: real time    0.0005
    CHARGE:  cpu time    0.6538: real time    0.6541
    MIXING:  cpu time    0.0300: real time    0.0300
    --------------------------------------------
      LOOP:  cpu time    9.4918: real time    9.4969

 eigenvalue-minimisations  :   396
 total energy-change (2. order) :-0.1219528E-02  (-0.6123084E-04)
 number of electron     153.0000009 magnetization       1.0000000
 augmentation part       92.3764258 magnetization       0.0842084

 Broyden mixing:
  rms(total) = 0.39318E-02    rms(broyden)= 0.39317E-02
  rms(prec ) = 0.69292E-02
  weight for this iteration     100.00

 eigenvalues of (default mixing * dielectric matrix)
  average eigenvalue GAMMA=   1.2028
  3.0404  2.6116  1.4719  1.4719  0.8723  0.8723  0.7236  0.7236  0.4435  0.5109
  0.4883

 Free energy of the ion-electron system (eV)
  ---------------------------------------------------
  alpha Z        PSCENC =        41.16232785
  Ewald energy   TEWEN  =     16687.98269227
  -Hartree energ DENC   =    -33661.20464836
  -exchange      EXHF   =         0.00000000
  -V(xc)+E(xc)   XCENC  =       615.72036353
  PAW double counting   =     17687.39116764   -19086.57768715
  entropy T*S    EENTRO =         0.00908220
  eigenvalues    EBANDS =      -995.70202015
  atomic energy  EATOM  =     18662.21924712
  Solvation  Ediel_sol  =         0.00000000
  ---------------------------------------------------
  free energy    TOTEN  =       -48.99947504 eV

  energy without entropy =      -49.00855724  energy(sigma->0) =      -49.00250244


--------------------------------------------------------------------------------------------------------




--------------------------------------- Iteration      1(  17)  ---------------------------------------


    POTLOK:  cpu time    1.1703: real time    1.1707
    SETDIJ:  cpu time    0.0184: real time    0.0184
    EDDIAG:  cpu time    1.0967: real time    1.0972
  RMM-DIIS:  cpu time    6.4753: real time    6.4773
    ORTHCH:  cpu time    0.0551: real time    0.0551
       DOS:  cpu time    0.0004: real time    0.0004
    CHARGE:  cpu time    0.6532: real time    0.6535
    MIXING:  cpu time    0.0313: real time    0.0313
    --------------------------------------------
      LOOP:  cpu time    9.5008: real time    9.5039

 eigenvalue-minimisations  :   394
 total energy-change (2. order) :-0.1844305E-02  (-0.5511821E-04)
 number of electron     153.0000009 magnetization       1.0000000
 augmentation part       92.3790396 magnetization       0.0840797

 Broyden mixing:
  rms(total) = 0.28493E-02    rms(broyden)= 0.28492E-02
  rms(prec ) = 0.44694E-02
  weight for this iteration     100.00

 eigenvalues of (default mixing * dielectric matrix)
  average eigenvalue GAMMA=   1.3128
  4.2075  2.5417  2.1085  1.4359  0.9226  0.9226  0.7586  0.7586  0.6628  0.4442
  0.5092  0.4814

 Free energy of the ion-electron system (eV)
  ---------------------------------------------------
  alpha Z        PSCENC =        41.16232785
  Ewald energy   TEWEN  =     16687.98269227
  -Hartree energ DENC   =    -33663.49212882
  -exchange      EXHF   =         0.00000000
  -V(xc)+E(xc)   XCENC  =       615.72693240
  PAW double counting   =     17685.46203524   -19084.59848853
  entropy T*S    EENTRO =         0.00908379
  eigenvalues    EBANDS =      -993.47302067
  atomic energy  EATOM  =     18662.21924712
  Solvation  Ediel_sol  =         0.00000000
  ---------------------------------------------------
  free energy    TOTEN  =       -49.00131934 eV

  energy without entropy =      -49.01040314  energy(sigma->0) =      -49.00434728


--------------------------------------------------------------------------------------------------------




--------------------------------------- Iteration      1(  18)  ---------------------------------------


    POTLOK:  cpu time    1.1702: real time    1.1704
    SETDIJ:  cpu time    0.0182: real time    0.0182
    EDDIAG:  cpu time    1.0962: real time    1.0966
  RMM-DIIS:  cpu time    6.9500: real time    6.9525
    ORTHCH:  cpu time    0.0555: real time    0.0555
       DOS:  cpu time    0.0004: real time    0.0004
    CHARGE:  cpu time    0.6521: real time    0.6524
    MIXING:  cpu time    0.0329: real time    0.0329
    --------------------------------------------
      LOOP:  cpu time    9.9755: real time    9.9791

 eigenvalue-minimisations  :   411
 total energy-change (2. order) :-0.8369050E-03  (-0.2445880E-04)
 number of electron     153.0000009 magnetization       1.0000000
 augmentation part       92.3755151 magnetization       0.0842669

 Broyden mixing:
  rms(total) = 0.16251E-02    rms(broyden)= 0.16250E-02
  rms(prec ) = 0.28338E-02
  weight for this iteration     100.00

 eigenvalues of (default mixing * dielectric matrix)
  average eigenvalue GAMMA=   1.3403
  4.9088  2.6397  2.1735  1.2706  1.2706  0.8452  0.8452  0.7241  0.7241  0.6065
  0.4449  0.5005  0.4704

 Free energy of the ion-electron system (eV)
  ---------------------------------------------------
  alpha Z        PSCENC =        41.16232785
  Ewald energy   TEWEN  =     16687.98269227
  -Hartree energ DENC   =    -33664.63369120
  -exchange      EXHF   =         0.00000000
  -V(xc)+E(xc)   XCENC  =       615.73270019
  PAW double counting   =     17685.47178692   -19084.64685491
  entropy T*S    EENTRO =         0.00908524
  eigenvalues    EBANDS =      -992.29944972
  atomic energy  EATOM  =     18662.21924712
  Solvation  Ediel_sol  =         0.00000000
  ---------------------------------------------------
  free energy    TOTEN  =       -49.00215625 eV

  energy without entropy =      -49.01124149  energy(sigma->0) =      -49.00518466


--------------------------------------------------------------------------------------------------------




--------------------------------------- Iteration      1(  19)  ---------------------------------------


    POTLOK:  cpu time    1.1707: real time    1.1728
    SETDIJ:  cpu time    0.0181: real time    0.0181
    EDDIAG:  cpu time    1.0967: real time    1.0970
  RMM-DIIS:  cpu time    7.4684: real time    7.4705
    ORTHCH:  cpu time    0.0553: real time    0.0553
       DOS:  cpu time    0.0004: real time    0.0004
    CHARGE:  cpu time    0.6530: real time    0.6530
    MIXING:  cpu time    0.0334: real time    0.0334
    --------------------------------------------
      LOOP:  cpu time   10.4959: real time   10.5006

 eigenvalue-minimisations  :   443
 total energy-change (2. order) :-0.6522157E-03  (-0.1238814E-04)
 number of electron     153.0000009 magnetization       1.0000000
 augmentation part       92.3736357 magnetization       0.0842569

 Broyden mixing:
  rms(total) = 0.13363E-02    rms(broyden)= 0.13363E-02
  rms(prec ) = 0.22375E-02
  weight for this iteration     100.00

 eigenvalues of (default mixing * dielectric matrix)
  average eigenvalue GAMMA=   1.4129
  5.7988  2.6745  2.2077  1.5473  1.5473  0.9491  0.9491  0.7356  0.7356  0.6659
  0.5585  0.4438  0.4968  0.4710

 Free energy of the ion-electron system (eV)
  ---------------------------------------------------
  alpha Z        PSCENC =        41.16232785
  Ewald energy   TEWEN  =     16687.98269227
  -Hartree energ DENC   =    -33665.21929087
  -exchange      EXHF   =         0.00000000
  -V(xc)+E(xc)   XCENC  =       615.73492182
  PAW double counting   =     17685.44520511   -19084.63983244
  entropy T*S    EENTRO =         0.00908540
  eigenvalues    EBANDS =      -991.69716473
  atomic energy  EATOM  =     18662.21924712
  Solvation  Ediel_sol  =         0.00000000
  ---------------------------------------------------
  free energy    TOTEN  =       -49.00280846 eV

  energy without entropy =      -49.01189386  energy(sigma->0) =      -49.00583693


--------------------------------------------------------------------------------------------------------




--------------------------------------- Iteration      1(  20)  ---------------------------------------


    POTLOK:  cpu time    1.1709: real time    1.1735
    SETDIJ:  cpu time    0.0178: real time    0.0178
    EDDIAG:  cpu time    1.0962: real time    1.0965
  RMM-DIIS:  cpu time    6.9188: real time    6.9211
    ORTHCH:  cpu time    0.0553: real time    0.0553
       DOS:  cpu time    0.0005: real time    0.0005
    CHARGE:  cpu time    0.6544: real time    0.6544
    MIXING:  cpu time    0.0353: real time    0.0355
    --------------------------------------------
      LOOP:  cpu time    9.9493: real time    9.9546

 eigenvalue-minimisations  :   405
 total energy-change (2. order) :-0.6151677E-03  (-0.4761352E-05)
 number of electron     153.0000009 magnetization       1.0000000
 augmentation part       92.3748155 magnetization       0.0842858

 Broyden mixing:
  rms(total) = 0.78411E-03    rms(broyden)= 0.78403E-03
  rms(prec ) = 0.13724E-02
  weight for this iteration     100.00

 eigenvalues of (default mixing * dielectric matrix)
  average eigenvalue GAMMA=   1.4491
  6.4041  2.7488  2.2948  1.9011  1.4124  1.1028  0.8792  0.8792  0.7531  0.7531
  0.6574  0.4441  0.5321  0.5026  0.4717

 Free energy of the ion-electron system (eV)
  ---------------------------------------------------
  alpha Z        PSCENC =        41.16232785
  Ewald energy   TEWEN  =     16687.98269227
  -Hartree energ DENC   =    -33665.31283067
  -exchange      EXHF   =         0.00000000
  -V(xc)+E(xc)   XCENC  =       615.73293792
  PAW double counting   =     17685.59870435   -19084.79084524
  entropy T*S    EENTRO =         0.00908362
  eigenvalues    EBANDS =      -991.60474084
  atomic energy  EATOM  =     18662.21924712
  Solvation  Ediel_sol  =         0.00000000
  ---------------------------------------------------
  free energy    TOTEN  =       -49.00342363 eV

  energy without entropy =      -49.01250725  energy(sigma->0) =      -49.00645150


--------------------------------------------------------------------------------------------------------




--------------------------------------- Iteration      1(  21)  ---------------------------------------


    POTLOK:  cpu time    1.1724: real time    1.1728
    SETDIJ:  cpu time    0.0178: real time    0.0178
    EDDIAG:  cpu time    1.0954: real time    1.0957
  RMM-DIIS:  cpu time    6.5429: real time    6.5447
    ORTHCH:  cpu time    0.0555: real time    0.0555
       DOS:  cpu time    0.0005: real time    0.0005
    CHARGE:  cpu time    0.6518: real time    0.6522
    MIXING:  cpu time    0.0369: real time    0.0369
    --------------------------------------------
      LOOP:  cpu time    9.5733: real time    9.5761

 eigenvalue-minimisations  :   401
 total energy-change (2. order) :-0.4329823E-03  (-0.3629633E-05)
 number of electron     153.0000009 magnetization       1.0000000
 augmentation part       92.3767546 magnetization       0.0842986

 Broyden mixing:
  rms(total) = 0.70884E-03    rms(broyden)= 0.70879E-03
  rms(prec ) = 0.10513E-02
  weight for this iteration     100.00

 eigenvalues of (default mixing * dielectric matrix)
  average eigenvalue GAMMA=   1.4947
  6.6705  3.1205  2.4426  2.1059  1.4169  1.4169  0.9504  0.9504  0.7687  0.7687
  0.6814  0.6814  0.4442  0.5277  0.4990  0.4698

 Free energy of the ion-electron system (eV)
  ---------------------------------------------------
  alpha Z        PSCENC =        41.16232785
  Ewald energy   TEWEN  =     16687.98269227
  -Hartree energ DENC   =    -33665.28436779
  -exchange      EXHF   =         0.00000000
  -V(xc)+E(xc)   XCENC  =       615.72971740
  PAW double counting   =     17685.80185614   -19084.98218905
  entropy T*S    EENTRO =         0.00908296
  eigenvalues    EBANDS =      -991.64222352
  atomic energy  EATOM  =     18662.21924712
  Solvation  Ediel_sol  =         0.00000000
  ---------------------------------------------------
  free energy    TOTEN  =       -49.00385661 eV

  energy without entropy =      -49.01293958  energy(sigma->0) =      -49.00688427


--------------------------------------------------------------------------------------------------------




--------------------------------------- Iteration      1(  22)  ---------------------------------------


    POTLOK:  cpu time    1.1714: real time    1.1730
    SETDIJ:  cpu time    0.0180: real time    0.0180
    EDDIAG:  cpu time    1.0945: real time    1.0955
  RMM-DIIS:  cpu time    7.0568: real time    7.0597
    ORTHCH:  cpu time    0.0552: real time    0.0555
       DOS:  cpu time    0.0005: real time    0.0005
    CHARGE:  cpu time    0.6524: real time    0.6525
    MIXING:  cpu time    0.0382: real time    0.0382
    --------------------------------------------
      LOOP:  cpu time   10.0870: real time   10.0930

 eigenvalue-minimisations  :   402
 total energy-change (2. order) :-0.3149273E-03  (-0.2528642E-05)
 number of electron     153.0000009 magnetization       1.0000000
 augmentation part       92.3762273 magnetization       0.0842814

 Broyden mixing:
  rms(total) = 0.39223E-03    rms(broyden)= 0.39218E-03
  rms(prec ) = 0.60303E-03
  weight for this iteration     100.00

 eigenvalues of (default mixing * dielectric matrix)
  average eigenvalue GAMMA=   1.5301
  7.0147  3.7831  2.4565  2.1335  1.5057  1.5057  0.9494  0.9082  0.9082  0.7895
  0.7895  0.7096  0.6162  0.4441  0.5294  0.4983  0.4703

 Free energy of the ion-electron system (eV)
  ---------------------------------------------------
  alpha Z        PSCENC =        41.16232785
  Ewald energy   TEWEN  =     16687.98269227
  -Hartree energ DENC   =    -33665.38803667
  -exchange      EXHF   =         0.00000000
  -V(xc)+E(xc)   XCENC  =       615.72917950
  PAW double counting   =     17686.09561727   -19085.28428002
  entropy T*S    EENTRO =         0.00908398
  eigenvalues    EBANDS =      -991.53000284
  atomic energy  EATOM  =     18662.21924712
  Solvation  Ediel_sol  =         0.00000000
  ---------------------------------------------------
  free energy    TOTEN  =       -49.00417154 eV

  energy without entropy =      -49.01325552  energy(sigma->0) =      -49.00719953


--------------------------------------------------------------------------------------------------------




--------------------------------------- Iteration      1(  23)  ---------------------------------------


    POTLOK:  cpu time    1.1730: real time    1.1737
    SETDIJ:  cpu time    0.0188: real time    0.0188
    EDDIAG:  cpu time    1.0955: real time    1.0959
  RMM-DIIS:  cpu time    6.6433: real time    6.6452
    ORTHCH:  cpu time    0.0555: real time    0.0554
       DOS:  cpu time    0.0004: real time    0.0004
    CHARGE:  cpu time    0.6520: real time    0.6523
    MIXING:  cpu time    0.0406: real time    0.0406
    --------------------------------------------
      LOOP:  cpu time    9.6790: real time    9.6823

 eigenvalue-minimisations  :   397
 total energy-change (2. order) :-0.1278981E-03  (-0.7787322E-06)
 number of electron     153.0000009 magnetization       1.0000000
 augmentation part       92.3755844 magnetization       0.0842689

 Broyden mixing:
  rms(total) = 0.24604E-03    rms(broyden)= 0.24604E-03
  rms(prec ) = 0.38531E-03
  weight for this iteration     100.00

 eigenvalues of (default mixing * dielectric matrix)
  average eigenvalue GAMMA=   1.5679
  7.4601  4.2982  2.4607  2.1881  1.8108  1.3023  1.3023  0.9563  0.9563  0.7810
  0.7810  0.6922  0.6922  0.5956  0.4441  0.5296  0.4706  0.5007

 Free energy of the ion-electron system (eV)
  ---------------------------------------------------
  alpha Z        PSCENC =        41.16232785
  Ewald energy   TEWEN  =     16687.98269227
  -Hartree energ DENC   =    -33665.45035248
  -exchange      EXHF   =         0.00000000
  -V(xc)+E(xc)   XCENC  =       615.72964281
  PAW double counting   =     17686.12788135   -19085.32163847
  entropy T*S    EENTRO =         0.00908372
  eigenvalues    EBANDS =      -991.46318362
  atomic energy  EATOM  =     18662.21924712
  Solvation  Ediel_sol  =         0.00000000
  ---------------------------------------------------
  free energy    TOTEN  =       -49.00429944 eV

  energy without entropy =      -49.01338316  energy(sigma->0) =      -49.00732735


--------------------------------------------------------------------------------------------------------




--------------------------------------- Iteration      1(  24)  ---------------------------------------


    POTLOK:  cpu time    1.1720: real time    1.1740
    SETDIJ:  cpu time    0.0180: real time    0.0180
    EDDIAG:  cpu time    1.0944: real time    1.0950
  RMM-DIIS:  cpu time    6.7136: real time    6.7158
    ORTHCH:  cpu time    0.0557: real time    0.0557
       DOS:  cpu time    0.0005: real time    0.0005
    CHARGE:  cpu time    0.6509: real time    0.6511
    MIXING:  cpu time    0.0426: real time    0.0426
    --------------------------------------------
      LOOP:  cpu time    9.7476: real time    9.7526

 eigenvalue-minimisations  :   402
 total energy-change (2. order) :-0.9345773E-04  (-0.6840493E-06)
 number of electron     153.0000009 magnetization       1.0000000
 augmentation part       92.3754787 magnetization       0.0842774

 Broyden mixing:
  rms(total) = 0.17966E-03    rms(broyden)= 0.17965E-03
  rms(prec ) = 0.27351E-03
  weight for this iteration     100.00

 eigenvalues of (default mixing * dielectric matrix)
  average eigenvalue GAMMA=   1.5772
  7.7014  4.5515  2.3741  2.3741  1.9047  1.3794  1.3794  0.9731  0.9731  0.8152
  0.8152  0.7722  0.7722  0.6405  0.5960  0.4441  0.5302  0.4704  0.4994

 Free energy of the ion-electron system (eV)
  ---------------------------------------------------
  alpha Z        PSCENC =        41.16232785
  Ewald energy   TEWEN  =     16687.98269227
  -Hartree energ DENC   =    -33665.47038444
  -exchange      EXHF   =         0.00000000
  -V(xc)+E(xc)   XCENC  =       615.72983718
  PAW double counting   =     17686.06894021   -19085.26247597
  entropy T*S    EENTRO =         0.00908379
  eigenvalues    EBANDS =      -991.44366090
  atomic energy  EATOM  =     18662.21924712
  Solvation  Ediel_sol  =         0.00000000
  ---------------------------------------------------
  free energy    TOTEN  =       -49.00439290 eV

  energy without entropy =      -49.01347668  energy(sigma->0) =      -49.00742083


--------------------------------------------------------------------------------------------------------




--------------------------------------- Iteration      1(  25)  ---------------------------------------


    POTLOK:  cpu time    1.1711: real time    1.1713
    SETDIJ:  cpu time    0.0183: real time    0.0183
    EDDIAG:  cpu time    1.0964: real time    1.0968
  RMM-DIIS:  cpu time    6.7311: real time    6.7334
    ORTHCH:  cpu time    0.0554: real time    0.0554
       DOS:  cpu time    0.0005: real time    0.0005
    CHARGE:  cpu time    0.6509: real time    0.6512
    MIXING:  cpu time    0.0452: real time    0.0452
    --------------------------------------------
      LOOP:  cpu time    9.7691: real time    9.7722

 eigenvalue-minimisations  :   392
 total energy-change (2. order) :-0.7017770E-04  (-0.5596474E-06)
 number of electron     153.0000009 magnetization       1.0000000
 augmentation part       92.3758691 magnetization       0.0842812

 Broyden mixing:
  rms(total) = 0.16686E-03    rms(broyden)= 0.16684E-03
  rms(prec ) = 0.22633E-03
  weight for this iteration     100.00

 eigenvalues of (default mixing * dielectric matrix)
  average eigenvalue GAMMA=   1.5998
  7.9058  4.9303  2.5050  2.5050  1.8085  1.8085  1.2652  1.2652  0.9665  0.9665
  0.7856  0.7856  0.6983  0.6983  0.6173  0.4441  0.4701  0.5010  0.5346  0.5346

 Free energy of the ion-electron system (eV)
  ---------------------------------------------------
  alpha Z        PSCENC =        41.16232785
  Ewald energy   TEWEN  =     16687.98269227
  -Hartree energ DENC   =    -33665.45111050
  -exchange      EXHF   =         0.00000000
  -V(xc)+E(xc)   XCENC  =       615.72934999
  PAW double counting   =     17685.95133055   -19085.13890189
  entropy T*S    EENTRO =         0.00908372
  eigenvalues    EBANDS =      -991.46848219
  atomic energy  EATOM  =     18662.21924712
  Solvation  Ediel_sol  =         0.00000000
  ---------------------------------------------------
  free energy    TOTEN  =       -49.00446308 eV

  energy without entropy =      -49.01354680  energy(sigma->0) =      -49.00749098


--------------------------------------------------------------------------------------------------------




--------------------------------------- Iteration      1(  26)  ---------------------------------------


    POTLOK:  cpu time    1.1713: real time    1.1730
    SETDIJ:  cpu time    0.0176: real time    0.0176
    EDDIAG:  cpu time    1.0973: real time    1.0977
  RMM-DIIS:  cpu time    6.5833: real time    6.5855
    ORTHCH:  cpu time    0.0558: real time    0.0558
       DOS:  cpu time    0.0004: real time    0.0004
    CHARGE:  cpu time    0.6557: real time    0.6557
    MIXING:  cpu time    0.0484: real time    0.0484
    --------------------------------------------
      LOOP:  cpu time    9.6299: real time    9.6341

 eigenvalue-minimisations  :   390
 total energy-change (2. order) :-0.3192500E-04  (-0.2783769E-06)
 number of electron     153.0000009 magnetization       1.0000000
 augmentation part       92.3758752 magnetization       0.0842902

 Broyden mixing:
  rms(total) = 0.75698E-04    rms(broyden)= 0.75693E-04
  rms(prec ) = 0.11388E-03
  weight for this iteration     100.00

 eigenvalues of (default mixing * dielectric matrix)
  average eigenvalue GAMMA=   1.6317
  8.1578  5.3593  2.9910  2.5252  1.9852  1.8157  1.2931  1.2931  0.9859  0.9859
  0.8252  0.8252  0.7422  0.7422  0.6319  0.6319  0.4441  0.4704  0.5010  0.5292
  0.5292

 Free energy of the ion-electron system (eV)
  ---------------------------------------------------
  alpha Z        PSCENC =        41.16232785
  Ewald energy   TEWEN  =     16687.98269227
  -Hartree energ DENC   =    -33665.45243074
  -exchange      EXHF   =         0.00000000
  -V(xc)+E(xc)   XCENC  =       615.72933031
  PAW double counting   =     17685.92384473   -19085.11068681
  entropy T*S    EENTRO =         0.00908386
  eigenvalues    EBANDS =      -991.46790358
  atomic energy  EATOM  =     18662.21924712
  Solvation  Ediel_sol  =         0.00000000
  ---------------------------------------------------
  free energy    TOTEN  =       -49.00449500 eV

  energy without entropy =      -49.01357886  energy(sigma->0) =      -49.00752296


--------------------------------------------------------------------------------------------------------




--------------------------------------- Iteration      1(  27)  ---------------------------------------


    POTLOK:  cpu time    1.1702: real time    1.1709
    SETDIJ:  cpu time    0.0184: real time    0.0184
    EDDIAG:  cpu time    1.0955: real time    1.0958
  RMM-DIIS:  cpu time    4.9033: real time    4.9048
    ORTHCH:  cpu time    0.0562: real time    0.0562
       DOS:  cpu time    0.0005: real time    0.0004
    CHARGE:  cpu time    0.6534: real time    0.6536
    MIXING:  cpu time    0.0520: real time    0.0520
    --------------------------------------------
      LOOP:  cpu time    7.9494: real time    7.9522

 eigenvalue-minimisations  :   285
 total energy-change (2. order) :-0.1606427E-04  (-0.1381998E-06)
 number of electron     153.0000009 magnetization       1.0000000
 augmentation part       92.3757704 magnetization       0.0842867

 Broyden mixing:
  rms(total) = 0.48218E-04    rms(broyden)= 0.48211E-04
  rms(prec ) = 0.74307E-04
  weight for this iteration     100.00

 eigenvalues of (default mixing * dielectric matrix)
  average eigenvalue GAMMA=   1.6259
  8.2016  5.6098  3.1671  2.4861  1.9598  1.8803  1.2933  1.2933  1.1193  1.0093
  1.0093  0.7819  0.7819  0.7536  0.4441  0.6758  0.4704  0.5000  0.5295  0.6040
  0.5994  0.5994

 Free energy of the ion-electron system (eV)
  ---------------------------------------------------
  alpha Z        PSCENC =        41.16232785
  Ewald energy   TEWEN  =     16687.98269227
  -Hartree energ DENC   =    -33665.45781551
  -exchange      EXHF   =         0.00000000
  -V(xc)+E(xc)   XCENC  =       615.72942799
  PAW double counting   =     17685.91260488   -19085.10001031
  entropy T*S    EENTRO =         0.00908389
  eigenvalues    EBANDS =      -991.46206925
  atomic energy  EATOM  =     18662.21924712
  Solvation  Ediel_sol  =         0.00000000
  ---------------------------------------------------
  free energy    TOTEN  =       -49.00451106 eV

  energy without entropy =      -49.01359496  energy(sigma->0) =      -49.00753903


--------------------------------------------------------------------------------------------------------




--------------------------------------- Iteration      1(  28)  ---------------------------------------


    POTLOK:  cpu time    1.1686: real time    1.1717
    SETDIJ:  cpu time    0.0179: real time    0.0179
    EDDIAG:  cpu time    1.0960: real time    1.0964
  RMM-DIIS:  cpu time    4.6093: real time    4.6108
    ORTHCH:  cpu time    0.0562: real time    0.0562
       DOS:  cpu time    0.0004: real time    0.0004
    CHARGE:  cpu time    0.6509: real time    0.6512
    MIXING:  cpu time    0.0565: real time    0.0565
[...]
     66      -4.9372      1.00000
     67      -4.8985      1.00000
     68      -4.8842      1.00000
     69      -4.8531      1.00000
     70      -4.8432      1.00000
     71      -4.8095      1.00000
     72      -4.7579      1.00000
     73      -4.7348      1.00000
     74      -4.5839      1.00000
     75      -4.1763      1.00000
     76      -4.1571      1.00000
     77      -3.4462      1.00010
     78      -3.0630     -0.00010
     79      -2.9362     -0.00000
     80      -2.5007     -0.00000
     81      -2.2689     -0.00000
     82      -1.9554     -0.00000
     83      -1.8357     -0.00000
     84      -1.7564     -0.00000
     85      -1.3002     -0.00000
     86      -1.0117     -0.00000
     87      -0.9730     -0.00000
     88      -0.6835     -0.00000
     89      -0.3598      0.00000
     90      -0.2713      0.00000
     91      -0.1859      0.00000
     92       0.1215      0.00000

 spin component 2

 k-point     1 :       0.0000    0.0000    0.0000
  band No.  band energies     occupation 
      1     -28.3635      1.00000
      2     -13.7351      1.00000
      3     -11.2415      1.00000
      4     -11.0447      1.00000
      5     -10.8723      1.00000
      6     -10.1346      1.00000
      7      -8.6338      1.00000
      8      -8.2290      1.00000
      9      -7.7262      1.00000
     10      -7.6464      1.00000
     11      -7.4639      1.00000
     12      -7.3996      1.00000
     13      -7.2729      1.00000
     14      -7.1762      1.00000
     15      -7.0591      1.00000
     16      -6.9488      1.00000
     17      -6.8802      1.00000
     18      -6.8137      1.00000
     19      -6.7920      1.00000
     20      -6.7223      1.00000
     21      -6.6236      1.00000
     22      -6.5816      1.00000
     23      -6.5094      1.00000
     24      -6.4878      1.00000
     25      -6.4373      1.00000
     26      -6.3636      1.00000
     27      -6.3290      1.00000
     28      -6.2913      1.00000
     29      -6.1864      1.00000
     30      -6.1751      1.00000
     31      -6.1485      1.00000
     32      -6.0775      1.00000
     33      -6.0651      1.00000
     34      -5.9805      1.00000
     35      -5.9312      1.00000
     36      -5.7687      1.00000
     37      -5.7424      1.00000
     38      -5.6636      1.00000
     39      -5.6394      1.00000
     40      -5.6013      1.00000
     41      -5.5977      1.00000
     42      -5.5561      1.00000
     43      -5.4886      1.00000
     44      -5.4554      1.00000
     45      -5.4286      1.00000
     46      -5.3936      1.00000
     47      -5.3553      1.00000
     48      -5.3445      1.00000
     49      -5.3365      1.00000
     50      -5.3001      1.00000
     51      -5.2844      1.00000
     52      -5.2464      1.00000
     53      -5.2321      1.00000
     54      -5.2122      1.00000
     55      -5.1818      1.00000
     56      -5.1659      1.00000
     57      -5.1446      1.00000
     58      -5.1207      1.00000
     59      -5.1100      1.00000
     60      -5.0704      1.00000
     61      -5.0294      1.00000
     62      -4.9936      1.00000
     63      -4.9840      1.00000
     64      -4.9459      1.00000
     65      -4.9173      1.00000
     66      -4.9116      1.00000
     67      -4.8746      1.00000
     68      -4.8397      1.00000
     69      -4.8268      1.00000
     70      -4.8104      1.00000
     71      -4.7774      1.00000
     72      -4.7288      1.00000
     73      -4.7091      1.00000
     74      -4.5413      1.00000
     75      -4.1312      1.02684
     76      -4.1035      0.97316
     77      -3.2419     -0.00000
     78      -3.0071     -0.00000
     79      -2.8833     -0.00000
     80      -2.4347     -0.00000
     81      -2.1701     -0.00000
     82      -1.9278     -0.00000
     83      -1.7518     -0.00000
     84      -1.6802     -0.00000
     85      -1.1814      0.00000
     86      -0.9618      0.00000
     87      -0.8301      0.00000
     88      -0.5877      0.00000
     89      -0.2776      0.00000
     90      -0.2124      0.00000
     91      -0.0941      0.00000
     92       0.1751      0.00000


--------------------------------------------------------------------------------------------------------


 soft charge-density along one line, spin component           1
         0         1         2         3         4         5         6         7         8         9
 total charge-density along one line
 
 soft charge-density along one line, spin component           2
         0         1         2         3         4         5         6         7         8         9
 total charge-density along one line
 
 pseudopotential strength for first ion, spin component:           1
-10.500   0.007  -0.006  -0.004  -0.006   1.007  -0.005   0.006
  0.007 -10.497  -0.009   0.000   0.006  -0.005   1.005   0.007
 -0.006  -0.009 -10.486   0.005  -0.007   0.006   0.007   0.996
 -0.004   0.000   0.005 -10.493   0.004   0.003  -0.002  -0.004
 -0.006   0.006  -0.007   0.004 -10.489   0.005  -0.004   0.006
  1.007  -0.005   0.006   0.003   0.005   6.299   0.003  -0.006
 -0.005   1.005   0.007  -0.002  -0.004   0.003   6.299  -0.005
  0.006   0.007   0.996  -0.004   0.006  -0.006  -0.005   6.306
  0.003  -0.002  -0.004   0.999  -0.003  -0.002   0.003   0.002
  0.005  -0.004   0.006  -0.003   0.999  -0.003   0.003  -0.005
 -0.005   0.001  -0.002  -0.002  -0.003   0.004   0.000  -0.001
 -0.009   0.002  -0.004  -0.003  -0.006   0.008   0.001  -0.001
 -0.012  -0.001   0.004  -0.000   0.007   0.009   0.001  -0.003
 -0.000  -0.006  -0.001  -0.011  -0.000   0.000   0.004   0.000
 -0.005  -0.000   0.008  -0.002  -0.012   0.003   0.000  -0.006
 -0.013  -0.001   0.004  -0.000   0.008   0.009   0.001  -0.003
 -0.000  -0.006  -0.001  -0.011  -0.000   0.001   0.004   0.000
 -0.004  -0.000   0.008  -0.002  -0.013   0.002   0.001  -0.006
 pseudopotential strength for first ion, spin component:           2
-10.469   0.006  -0.001  -0.012   0.006   0.982  -0.005   0.001
  0.006 -10.488  -0.010   0.000   0.004  -0.005   0.996   0.007
 -0.001  -0.010 -10.478   0.003  -0.005   0.001   0.007   0.988
 -0.012   0.000   0.003 -10.480   0.001   0.009  -0.001  -0.003
  0.006   0.004  -0.005   0.001 -10.477  -0.004  -0.003   0.004
  0.982  -0.005   0.001   0.009  -0.004   6.315   0.003  -0.001
 -0.005   0.996   0.007  -0.001  -0.003   0.003   6.303  -0.005
  0.001   0.007   0.988  -0.003   0.004  -0.001  -0.005   6.309
  0.009  -0.001  -0.003   0.989  -0.001  -0.006   0.001   0.002
 -0.004  -0.003   0.004  -0.001   0.988   0.003   0.002  -0.003
 -0.002   0.002   0.000  -0.002  -0.002   0.001   0.000  -0.002
 -0.003   0.004   0.000  -0.003  -0.004   0.002   0.001  -0.003
 -0.013  -0.001   0.005   0.001   0.007   0.011  -0.000  -0.004
  0.001  -0.007  -0.000  -0.012   0.000  -0.000   0.006  -0.001
 -0.008   0.001   0.008  -0.000  -0.014   0.006  -0.000  -0.007
 -0.015  -0.001   0.005   0.001   0.008   0.013  -0.001  -0.005
  0.001  -0.008  -0.000  -0.014   0.000  -0.001   0.006  -0.002
 -0.009   0.001   0.009   0.000  -0.015   0.007  -0.001  -0.008
 total augmentation occupancy for first ion, spin component:           1
  1.937   0.005  -0.006  -0.000  -0.002  -0.015  -0.003   0.005   0.002   0.000  -0.007   0.012   0.035   0.003   0.030  -0.020
  0.005   1.928  -0.006   0.005  -0.003  -0.003  -0.017   0.007  -0.001   0.001   0.002  -0.001   0.002   0.040  -0.001  -0.001
 -0.006  -0.006   1.944   0.001  -0.005   0.005   0.007  -0.026  -0.003   0.004  -0.009   0.009  -0.010   0.003  -0.016   0.006
 -0.000   0.005   0.001   1.936  -0.006   0.002  -0.001  -0.003  -0.018  -0.001  -0.005   0.004   0.008   0.070  -0.007   0.000
 -0.002  -0.003  -0.005  -0.006   1.939   0.000   0.001   0.004  -0.001  -0.017  -0.004   0.007  -0.017   0.002   0.036   0.011
 -0.015  -0.003   0.005   0.002   0.000   0.013  -0.000   0.001   0.000   0.001  -0.019  -0.000   0.022  -0.000   0.008  -0.001
 -0.003  -0.017   0.007  -0.001   0.001  -0.000   0.008   0.000   0.001  -0.001   0.013  -0.001   0.001   0.013   0.001  -0.000
  0.005   0.007  -0.026  -0.003   0.004   0.001   0.000   0.007  -0.000   0.001  -0.025   0.004  -0.006  -0.001  -0.006   0.000
  0.002  -0.001  -0.003  -0.018  -0.001   0.000   0.001  -0.000   0.010  -0.002  -0.017   0.001  -0.001   0.022  -0.005  -0.000
  0.000   0.001   0.004  -0.001  -0.017   0.001  -0.001   0.001  -0.002   0.012  -0.013   0.000  -0.019  -0.005   0.021   0.001
 -0.007   0.002  -0.009  -0.005  -0.004  -0.019   0.013  -0.025  -0.017  -0.013   1.652  -0.117   0.119  -0.009   0.195  -0.016
  0.012  -0.001   0.009   0.004   0.007  -0.000  -0.001   0.004   0.001   0.000  -0.117   0.014  -0.017   0.001  -0.027   0.002
  0.035   0.002  -0.010   0.008  -0.017   0.022   0.001  -0.006  -0.001  -0.019   0.119  -0.017   0.179   0.006  -0.033  -0.011
  0.003   0.040   0.003   0.070   0.002  -0.000   0.013  -0.001   0.022  -0.005  -0.009   0.001   0.006   0.094  -0.016  -0.001
  0.030  -0.001  -0.016  -0.007   0.036   0.008   0.001  -0.006  -0.005   0.021   0.195  -0.027  -0.033  -0.016   0.137   0.001
 -0.020  -0.001   0.006   0.000   0.011  -0.001  -0.000   0.000  -0.000   0.001  -0.016   0.002  -0.011  -0.001   0.001   0.001
  0.000  -0.013  -0.001  -0.022   0.000  -0.000  -0.001   0.000  -0.001   0.000   0.000  -0.000  -0.001  -0.006   0.001   0.000
 -0.012   0.000   0.010  -0.001  -0.020  -0.000  -0.000   0.001   0.000  -0.001  -0.026   0.003   0.001   0.001  -0.010   0.000
 total augmentation occupancy for first ion, spin component:           2
  0.013  -0.001   0.001  -0.005   0.006  -0.002  -0.000  -0.001   0.001  -0.002   0.026   0.005  -0.008   0.007  -0.016  -0.001
 -0.001   0.000  -0.000   0.001  -0.001  -0.000   0.001   0.000   0.000   0.000  -0.002  -0.001   0.002  -0.002   0.001   0.000
  0.001  -0.000   0.000  -0.001   0.000  -0.001   0.000   0.001   0.000  -0.001   0.004   0.000  -0.000   0.003  -0.001   0.000
 -0.005   0.001  -0.001   0.003  -0.002   0.001   0.000   0.000   0.001   0.000  -0.009  -0.002   0.002  -0.006   0.006   0.000
  0.006  -0.001   0.000  -0.002   0.002  -0.002   0.000  -0.001   0.000   0.001   0.013   0.002  -0.002   0.003  -0.010  -0.000
 -0.002  -0.000  -0.001   0.001  -0.002   0.001  -0.000   0.000  -0.000   0.000  -0.006  -0.001   0.001  -0.002   0.004   0.000
 -0.000   0.001   0.000   0.000   0.000  -0.000  -0.000   0.000  -0.000  -0.000   0.000   0.000   0.000   0.000  -0.000  -0.000
 -0.001   0.000   0.001   0.000  -0.001   0.000   0.000  -0.000  -0.000   0.000  -0.002  -0.000   0.000  -0.000   0.001   0.000
  0.001   0.000   0.000   0.001   0.000  -0.000  -0.000  -0.000  -0.000  -0.000   0.002   0.000  -0.001   0.000  -0.001  -0.000
 -0.002   0.000  -0.001   0.000   0.001   0.000  -0.000   0.000  -0.000  -0.000  -0.002  -0.000   0.001  -0.001   0.002   0.000
  0.026  -0.002   0.004  -0.009   0.013  -0.006   0.000  -0.002   0.002  -0.002   0.057   0.003  -0.011   0.015  -0.035  -0.000
  0.005  -0.001   0.000  -0.002   0.002  -0.001   0.000  -0.000   0.000  -0.000   0.003   0.000  -0.001   0.001  -0.002  -0.000
 -0.008   0.002  -0.000   0.002  -0.002   0.001   0.000   0.000  -0.001   0.001  -0.011  -0.001   0.002  -0.002   0.004   0.000
  0.007  -0.002   0.003  -0.006   0.003  -0.002   0.000  -0.000   0.000  -0.001   0.015   0.001  -0.002   0.003  -0.007  -0.000
 -0.016   0.001  -0.001   0.006  -0.010   0.004  -0.000   0.001  -0.001   0.002  -0.035  -0.002   0.004  -0.007   0.016   0.000
 -0.001   0.000   0.000   0.000  -0.000   0.000  -0.000   0.000  -0.000   0.000  -0.000  -0.000   0.000  -0.000   0.000   0.000
  0.000  -0.000   0.000  -0.001   0.000   0.000  -0.000  -0.000   0.000   0.000  -0.000   0.000   0.000   0.000   0.000  -0.000
 -0.001   0.000   0.000   0.001  -0.001   0.000   0.000   0.000  -0.000   0.000   0.000  -0.000   0.000  -0.000   0.000   0.000


------------------------ aborting loop because EDIFF is reached ----------------------------------------


    CHARGE:  cpu time    0.6545: real time    0.6548
    FORLOC:  cpu time    0.0653: real time    0.0653
    FORNL :  cpu time    1.5337: real time    1.5340
    STRESS:  cpu time    6.2577: real time    6.2598
    FORCOR:  cpu time    1.1771: real time    1.1776
    FORHAR:  cpu time    0.1891: real time    0.1892
    MIXING:  cpu time    0.1111: real time    0.1111
    OFIELD:  cpu time    0.0001: real time    0.0001

  FORCE on cell =-STRESS in cart. coord.  units (eV):
  Direction    XX          YY          ZZ          XY          YZ          ZX
  --------------------------------------------------------------------------------------
  Alpha Z    41.16233    41.16233    41.16233
  Ewald   10191.88078  7841.52970 -1345.44399  -824.03561   282.64757   302.32706
  Hartree 15320.78399 13287.88330  5056.79838  -788.46778   243.94172   285.18301
  E(xc)    -876.52842  -877.84785  -879.73917     0.18629     0.02862     0.03697
  Local  -26911.19595-22559.64062 -5150.27522  1621.10524  -524.99914  -588.37955
  n-local  -326.66619  -320.82659  -326.23430    -3.19121     0.51891     0.59740
  augment  1222.87684  1226.34633  1232.65344    -0.01390    -0.77475     0.02554
  Kinetic  1338.23829  1362.08846  1371.11594    -5.83615    -0.70169    -0.20907
  Fock        0.00000     0.00000     0.00000     0.00000     0.00000     0.00000
  -------------------------------------------------------------------------------------
  Total       0.55167     0.69505     0.03741    -0.25313     0.66124    -0.41863
  in kB       0.26189     0.32995     0.01776    -0.12016     0.31390    -0.19873
  external pressure =        0.20 kB  Pullay stress =        0.00 kB


 VOLUME and BASIS-vectors are now :
 -----------------------------------------------------------------------------
  energy-cutoff  :      600.00
  volume of cell :     3375.00
      direct lattice vectors                 reciprocal lattice vectors
    15.000000000  0.000000000  0.000000000     0.066666667  0.000000000  0.000000000
     0.000000000 15.000000000  0.000000000     0.000000000  0.066666667  0.000000000
     0.000000000  0.000000000 15.000000000     0.000000000  0.000000000  0.066666667

  length of vectors
    15.000000000 15.000000000 15.000000000     0.066666667  0.066666667  0.066666667


 FORCES acting on ions
    electron-ion (+dipol)            ewald-force                    non-local-force                 convergence-correction
 -----------------------------------------------------------------------------------------------
   0.112E+04 0.664E+03 0.197E+02   -.112E+04 -.661E+03 -.194E+02   -.527E+01 -.306E+01 -.617E-01   -.151E-04 -.147E-04 0.835E-05
   0.471E+03 -.365E+03 0.961E+03   -.470E+03 0.362E+03 -.961E+03   -.147E+01 0.239E+01 -.356E+00   -.103E-04 -.893E-05 -.288E-04
   0.327E+03 0.123E+04 -.200E+03   -.325E+03 -.123E+04 0.198E+03   -.220E+01 -.895E+01 0.243E+01   -.128E-04 -.188E-04 0.286E-05
   -.872E+03 -.130E+03 0.933E+03   0.869E+03 0.130E+03 -.930E+03   0.298E+01 0.455E+00 -.423E+01   0.127E-04 0.674E-06 -.847E-05
   -.821E+03 0.105E+04 0.213E+03   0.816E+03 -.104E+04 -.211E+03   0.487E+01 -.671E+01 -.238E+01   0.575E-05 -.824E-05 0.160E-05
   -.560E+02 0.541E+03 -.933E+03   0.563E+02 -.538E+03 0.933E+03   -.923E+00 -.308E+01 0.847E-01   -.708E-05 -.554E-05 0.307E-04
   0.184E+03 0.655E+03 0.121E+04   -.184E+03 -.650E+03 -.120E+04   -.841E-01 -.474E+01 -.587E+01   -.476E-05 0.158E-05 -.505E-05
   0.125E+04 -.386E+03 0.131E+03   -.124E+04 0.383E+03 -.128E+03   -.903E+01 0.303E+01 -.247E+01   -.348E-04 -.708E-05 -.318E-05
   0.599E+03 -.132E+03 -.123E+04   -.595E+03 0.132E+03 0.122E+04   -.377E+01 -.289E+00 0.656E+01   0.440E-05 -.536E-05 0.784E-05
   0.408E+03 -.128E+04 -.256E+03   -.406E+03 0.127E+04 0.253E+03   -.215E+01 0.764E+01 0.199E+01   -.128E-04 0.260E-04 0.861E-05
   -.472E+03 -.106E+04 0.734E+03   0.468E+03 0.105E+04 -.727E+03   0.353E+01 0.686E+01 -.667E+01   0.328E-05 0.444E-05 -.237E-05
   -.916E+03 0.682E+02 -.566E+03   0.914E+03 -.677E+02 0.561E+03   0.230E+01 -.645E+00 0.442E+01   0.201E-04 0.103E-04 0.426E-05
   -.573E+03 -.803E+03 -.811E+03   0.570E+03 0.799E+03 0.809E+03   0.226E+01 0.394E+01 0.246E+01   0.116E-04 -.975E-05 0.223E-04
   -.155E+03 0.476E+02 -.124E+03   0.136E+03 -.535E+02 0.126E+03   0.192E+02 0.618E+01 -.135E+01   0.530E-05 -.936E-06 0.780E-06
   -.449E+03 -.875E+02 -.783E+02   0.506E+03 0.105E+03 0.767E+02   -.569E+02 -.176E+02 0.153E+01   0.693E-05 -.363E-05 -.881E-06
 -----------------------------------------------------------------------------------------------
   0.467E+02 0.146E+02 0.390E+01   0.455E-12 -.284E-13 -.199E-12   -.467E+02 -.146E+02 -.390E+01   -.275E-04 -.400E-04 0.386E-04
 
 
 POSITION                                       TOTAL-FORCE (eV/Angst)
 -----------------------------------------------------------------------------------
      4.40616      6.36987      8.21733        -0.113685     -0.137611      0.276542
      5.62117      8.29630      7.29101        -0.065430     -0.094185      0.102582
      5.90219      4.30743      8.45941         0.077074      0.474409     -0.050791
      7.99427      7.58424      7.25674        -0.028332     -0.017694     -0.487509
      8.24721      5.18185      8.00031        -0.006973     -0.216424     -0.375481
      6.79979      6.52391      9.19043        -0.595776     -0.261428     -0.052124
      6.22151      6.01085      6.72899         0.314860     -0.262227      0.177284
      3.40732      8.66580      8.23249         0.021525     -0.025297      0.000794
      5.07982      8.10575      9.82500         0.059033      0.001088     -0.076911
      5.34958     10.21210      8.69345        -0.020993      0.252187     -0.201640
      7.32600      9.97628      7.06550        -0.035358      0.086163      0.232507
      9.15576      7.14879      9.24953         0.414513     -0.123170      0.138847
      7.32199      8.85996      9.18367         0.019738      0.205353      0.161563
     10.94760      7.34141      9.58333         0.001836      0.260361      0.200611
     12.05430      7.67848      9.55152        -0.042031     -0.141526     -0.046275
 -----------------------------------------------------------------------------------
    total drift:                               -0.000423      0.001748     -0.000596


--------------------------------------------------------------------------------------------------------



  FREE ENERGIE OF THE ION-ELECTRON SYSTEM (eV)
  ---------------------------------------------------
  free  energy   TOTEN  =       -49.00452818 eV

  energy  without entropy=      -49.01361195  energy(sigma->0) =      -49.00755610
 


--------------------------------------------------------------------------------------------------------


    POTLOK:  cpu time    1.1926: real time    1.1928


--------------------------------------------------------------------------------------------------------


     LOOP+:  cpu time  353.8141: real time  354.0294
    4ORBIT:  cpu time    0.0000: real time    0.0000

 total amount of memory used by VASP MPI-rank0   158680. kBytes
=======================================================================

   base      :      30000. kBytes
   nonl-proj :      12601. kBytes
   fftplans  :      27994. kBytes
   grid      :      74150. kBytes
   one-center:         93. kBytes
   wavefun   :      13842. kBytes
 
  
  
 General timing and accounting informations for this job:
 ========================================================
  
                  Total CPU time used (sec):      357.813
                            User time (sec):      345.180
                          System time (sec):       12.633
                         Elapsed time (sec):      358.065
  
                   Maximum memory used (kb):      283004.
                   Average memory used (kb):           0.
  
                          Minor page faults:       295457
                          Major page faults:            0
                 Voluntary context switches:          752
