<?xml version="1.0" encoding="ISO-8859-1"?>
<modeling>
 <generator>
  <i name="program" type="string">vasp </i>
  <i name="version" type="string">5.4.4.18Apr17-6-g9f103f2a35  </i>
  <i name="subversion" type="string">(build May 08 2019 13:49:07) complex            parallel </i>
  <i name="platform" type="string">LinuxIFC </i>
  <i name="date" type="string">2019 11 13 </i>
  <i name="time" type="string">14:24:57 </i>
 </generator>
 <incar>
  <i type="string" name="SYSTEM"> CuCO</i>
  <i type="int" name="ISTART">     0</i>
  <i type="string" name="PREC">accurate</i>
  <i type="string" name="ALGO"> Fast</i>
  <i type="int" name="ISPIN">     2</i>
  <i type="int" name="INIWAV">     1</i>
  <i type="int" name="NELM">   300</i>
  <i type="int" name="NELMIN">     3</i>
  <i type="int" name="IBRION">    -1</i>
  <i name="EDIFF">      0.00000010</i>
  <i name="EDIFFG">     -0.00100000</i>
  <i type="int" name="NSW">     0</i>
  <i type="int" name="ISYM">     0</i>
  <i name="ENCUT">    600.00000000</i>
  <i name="NUPDOWN">      1.00000000</i>
  <i type="logical" name="LREAL"> F  </i>
  <i type="int" name="ISMEAR">     1</i>
  <i name="SIGMA">      0.10000000</i>
  <i name="KSPACING">      0.50000000</i>
  <i type="logical" name="KGAMMA"> F  </i>
  <i type="logical" name="LWAVE"> F  </i>
  <i type="logical" name="LCHARG"> F  </i>
  <v type="int" name="KPOINT_BSE">    -1     0     0     0</v>
  <i type="int" name="NELM">   300</i>
  <i type="string" name="GGA"> PE</i>
 </incar>
 <structure name="primitive_cell" >
  <crystal>
   <varray name="basis" >
    <v>      15.00000000       0.00000000       0.00000000 </v>
    <v>       0.00000000      15.00000000       0.00000000 </v>
    <v>       0.00000000       0.00000000      15.00000000 </v>
   </varray>
   <i name="volume">   3375.00000000 </i>
   <varray name="rec_basis" >
    <v>       0.06666667       0.00000000       0.00000000 </v>
    <v>       0.00000000       0.06666667       0.00000000 </v>
    <v>       0.00000000       0.00000000       0.06666667 </v>
   </varray>
  </crystal>
  <varray name="positions" >
   <v>       0.29374400       0.42465800      -0.45217800 </v>
   <v>       0.41476733       0.40072333       0.44859933 </v>
   <v>       0.37474467      -0.44691333       0.48606733 </v>
   <v>       0.33865467      -0.45961667      -0.34500000 </v>
   <v>       0.22715467      -0.42228000      -0.45116733 </v>
   <v>       0.39347933       0.28716200      -0.43603933 </v>
   <v>       0.45331933       0.43492733      -0.38730467 </v>
   <v>      -0.46704867      -0.49438400       0.48378267 </v>
   <v>       0.48813267      -0.40933600      -0.38775533 </v>
   <v>       0.35663867      -0.31919333      -0.42043667 </v>
   <v>      -0.45018600       0.34545667      -0.46664600 </v>
   <v>       0.48840000      -0.33491467       0.47103333 </v>
   <v>      -0.38961600       0.47658600      -0.38336467 </v>
   <v>      -0.27016000       0.48942733      -0.36111133 </v>
   <v>      -0.19638000      -0.48810133      -0.36323200 </v>
  </varray>
 </structure>
 <varray name="primitive_index" >
  <v type="int" >        1 </v>
  <v type="int" >        7 </v>
  <v type="int" >        2 </v>
  <v type="int" >        9 </v>
  <v type="int" >        8 </v>
  <v type="int" >        3 </v>
  <v type="int" >        6 </v>
  <v type="int" >        4 </v>
  <v type="int" >       13 </v>
  <v type="int" >       10 </v>
  <v type="int" >        5 </v>
  <v type="int" >       11 </v>
  <v type="int" >       12 </v>
  <v type="int" >       14 </v>
  <v type="int" >       15 </v>
 </varray>
 <kpoints>
  <generation param="Monkhorst-Pack">
   <v type="int" name="divisions">       1        1        1 </v>
   <v name="usershift">      0.00000000       0.00000000       0.00000000 </v>
   <v name="genvec1">      1.00000000       0.00000000       0.00000000 </v>
   <v name="genvec2">      0.00000000       1.00000000       0.00000000 </v>
   <v name="genvec3">      0.00000000       0.00000000       1.00000000 </v>
   <v name="shift">      0.00000000       0.00000000       0.00000000 </v>
  </generation>
  <varray name="kpointlist" >
   <v>       0.00000000       0.00000000       0.00000000 </v>
  </varray>
  <varray name="weights" >
   <v>       1.00000000 </v>
  </varray>
 </kpoints>
 <parameters>
  <separator name="general" >
   <i type="string" name="SYSTEM">CuCO</i>
   <i type="logical" name="LCOMPAT"> F  </i>
  </separator>
  <separator name="electronic" >
   <i type="string" name="PREC">accura</i>
   <i name="ENMAX">    600.00000000</i>
   <i name="ENAUG">    644.87300000</i>
   <i name="EDIFF">      0.00000010</i>
   <i type="int" name="IALGO">    68</i>
   <i type="int" name="IWAVPR">    10</i>
   <i type="int" name="NBANDS">    92</i>
   <i name="NELECT">    153.00000000</i>
   <i type="int" name="TURBO">     0</i>
   <i type="int" name="IRESTART">     0</i>
   <i type="int" name="NREBOOT">     0</i>
   <i type="int" name="NMIN">     0</i>
   <i name="EREF">      0.00000000</i>
   <separator name="electronic smearing" >
    <i type="int" name="ISMEAR">     1</i>
    <i name="SIGMA">      0.10000000</i>
    <i name="KSPACING">      0.50000000</i>
    <i type="logical" name="KGAMMA"> F  </i>
   </separator>
   <separator name="electronic projectors" >
    <i type="logical" name="LREAL"> F  </i>
    <v name="ROPT">      0.00000000      0.00000000      0.00000000</v>
    <i type="int" name="LMAXPAW">  -100</i>
    <i type="int" name="LMAXMIX">     2</i>
    <i type="logical" name="NLSPLINE"> F  </i>
   </separator>
   <separator name="electronic startup" >
    <i type="int" name="ISTART">     0</i>
    <i type="int" name="ICHARG">     2</i>
    <i type="int" name="INIWAV">     1</i>
   </separator>
   <separator name="electronic spin" >
    <i type="int" name="ISPIN">     2</i>
    <i type="logical" name="LNONCOLLINEAR"> F  </i>
    <v name="MAGMOM">      0.06666667      0.06666667      0.06666667      0.06666667      0.06666667      0.06666667      0.06666667      0.06666667      0.06666667      0.06666667      0.06666667      0.06666667      0.06666667      0.06666667      0.06666667</v>
    <i name="NUPDOWN">      1.00000000</i>
    <i type="logical" name="LSORBIT"> F  </i>
    <v name="SAXIS">      0.00000000      0.00000000      1.00000000</v>
    <i type="logical" name="LSPIRAL"> F  </i>
    <v name="QSPIRAL">      0.00000000      0.00000000      0.00000000</v>
    <i type="logical" name="LZEROZ"> F  </i>
   </separator>
   <separator name="electronic exchange-correlation" >
    <i type="logical" name="LASPH"> F  </i>
    <i type="logical" name="LMETAGGA"> F  </i>
   </separator>
   <separator name="electronic convergence" >
    <i type="int" name="NELM">   300</i>
    <i type="int" name="NELMDL">    -5</i>
    <i type="int" name="NELMIN">     3</i>
    <i name="ENINI">    600.00000000</i>
    <separator name="electronic convergence detail" >
     <i type="logical" name="LDIAG"> T  </i>
     <i type="logical" name="LSUBROT"> F  </i>
     <i name="WEIMIN">      0.00000000</i>
     <i name="EBREAK">      0.00000000</i>
     <i name="DEPER">      0.30000000</i>
     <i type="int" name="NRMM">     4</i>
     <i name="TIME">      0.40000000</i>
    </separator>
   </separator>
   <separator name="electronic mixer" >
    <i name="AMIX">      0.40000000</i>
    <i name="BMIX">      1.00000000</i>
    <i name="AMIN">      0.10000000</i>
    <i name="AMIX_MAG">      1.60000000</i>
    <i name="BMIX_MAG">      1.00000000</i>
    <separator name="electronic mixer details" >
     <i type="int" name="IMIX">     4</i>
     <i type="logical" name="MIXFIRST"> F  </i>
     <i type="int" name="MAXMIX">   -45</i>
     <i name="WC">    100.00000000</i>
     <i type="int" name="INIMIX">     1</i>
     <i type="int" name="MIXPRE">     1</i>
     <i type="int" name="MREMOVE">     5</i>
    </separator>
   </separator>
   <separator name="electronic dipolcorrection" >
    <i type="logical" name="LDIPOL"> F  </i>
    <i type="logical" name="LMONO"> F  </i>
    <i type="int" name="IDIPOL">     0</i>
    <i name="EPSILON">      1.00000000</i>
    <v name="DIPOL">   -100.00000000   -100.00000000   -100.00000000</v>
    <i name="EFIELD">      0.00000000</i>
   </separator>
  </separator>
  <separator name="grids" >
   <i type="int" name="NGX">   120</i>
   <i type="int" name="NGY">   120</i>
   <i type="int" name="NGZ">   120</i>
   <i type="int" name="NGXF">   240</i>
   <i type="int" name="NGYF">   240</i>
   <i type="int" name="NGZF">   240</i>
   <i type="logical" name="ADDGRID"> F  </i>
  </separator>
  <separator name="ionic" >
   <i type="int" name="NSW">     0</i>
   <i type="int" name="IBRION">    -1</i>
   <i type="int" name="MDALGO">     0</i>
   <i type="int" name="ISIF">     2</i>
   <i name="PSTRESS">      0.00000000</i>
   <i name="EDIFFG">     -0.00100000</i>
   <i type="int" name="NFREE">     0</i>
   <i name="POTIM">      0.50000000</i>
   <i name="SMASS">     -3.00000000</i>
   <i name="SCALEE">      1.00000000</i>
  </separator>
  <separator name="ionic md" >
   <i name="TEBEG">      0.00010000</i>
   <i name="TEEND">      0.00010000</i>
   <i type="int" name="NBLOCK">     1</i>
   <i type="int" name="KBLOCK">     1</i>
   <i type="int" name="NPACO">   256</i>
   <i name="APACO">     16.00000000</i>
  </separator>
  <separator name="symmetry" >
   <i type="int" name="ISYM">     0</i>
   <i name="SYMPREC">      0.00001000</i>
  </separator>
  <separator name="dos" >
   <i type="int" name="LORBIT">     0</i>
   <v name="RWIGS">     -1.00000000     -1.00000000     -1.00000000</v>
   <i type="int" name="NEDOS">   301</i>
   <i name="EMIN">     10.00000000</i>
   <i name="EMAX">    -10.00000000</i>
   <i name="EFERMI">      0.00000000</i>
  </separator>
  <separator name="writing" >
   <i type="int" name="NWRITE">     2</i>
   <i type="logical" name="LWAVE"> F  </i>
   <i type="logical" name="LDOWNSAMPLE"> F  </i>
   <i type="logical" name="LCHARG"> F  </i>
   <i type="logical" name="LPARD"> F  </i>
   <i type="logical" name="LVTOT"> F  </i>
   <i type="logical" name="LVHAR"> F  </i>
   <i type="logical" name="LELF"> F  </i>
   <i type="logical" name="LOPTICS"> F  </i>
   <v name="STM">      0.00000000      0.00000000      0.00000000      0.00000000      0.00000000      0.00000000      0.00000000</v>
  </separator>
  <separator name="performance" >
   <i type="int" name="NPAR">     4</i>
   <i type="int" name="NSIM">     4</i>
   <i type="int" name="NBLK">    -1</i>
   <i type="logical" name="LPLANE"> T  </i>
   <i type="logical" name="LSCALAPACK"> T  </i>
   <i type="logical" name="LSCAAWARE"> F  </i>
   <i type="logical" name="LSCALU"> F  </i>
   <i type="logical" name="LASYNC"> F  </i>
   <i type="logical" name="LORBITALREAL"> F  </i>
  </separator>
  <separator name="miscellaneous" >
   <i type="int" name="IDIOT">     3</i>
   <i type="int" name="ISPECIAL">     0</i>
   <i type="logical" name="LMUSIC"> F  </i>
   <v name="POMASS">     63.54600000     12.01100000     16.00000000</v>
   <v name="DARWINR">      0.00000000      0.00000000      0.00000000</v>
   <v name="DARWINV">      1.00000000      1.00000000      1.00000000</v>
   <i type="logical" name="LCORR"> T  </i>
  </separator>
  <i type="logical" name="GGA_COMPAT"> T  </i>
  <i type="logical" name="LBERRY"> F  </i>
  <i type="int" name="ICORELEVEL">     0</i>
  <i type="logical" name="LDAU"> F  </i>
  <i type="int" name="I_CONSTRAINED_M">     0</i>
  <separator name="electronic exchange-correlation" >
   <i type="string" name="GGA">PE</i>
   <i type="int" name="VOSKOWN">     0</i>
   <i type="logical" name="LHFCALC"> F  </i>
   <i type="string" name="PRECFOCK"></i>
   <i type="logical" name="LSYMGRAD"> F  </i>
   <i type="logical" name="LHFONE"> F  </i>
   <i type="logical" name="LRHFCALC"> F  </i>
   <i type="logical" name="LTHOMAS"> F  </i>
   <i type="logical" name="LMODELHF"> F  </i>
   <i name="ENCUT4O">     -1.00000000</i>
   <i type="int" name="EXXOEP">     0</i>
   <i type="int" name="FOURORBIT">     0</i>
   <i name="AEXX">      0.00000000</i>
   <i name="HFALPHA">      0.00000000</i>
   <i name="MCALPHA">      0.00000000</i>
   <i name="ALDAX">      1.00000000</i>
   <i name="AGGAX">      1.00000000</i>
   <i name="ALDAC">      1.00000000</i>
   <i name="AGGAC">      1.00000000</i>
   <i type="int" name="NKREDX">     1</i>
   <i type="int" name="NKREDY">     1</i>
   <i type="int" name="NKREDZ">     1</i>
   <i type="logical" name="SHIFTRED"> F  </i>
   <i type="logical" name="ODDONLY"> F  </i>
   <i type="logical" name="EVENONLY"> F  </i>
   <i type="int" name="LMAXFOCK">     0</i>
   <i type="int" name="NMAXFOCKAE">     0</i>
   <i type="logical" name="LFOCKAEDFT"> F  </i>
   <i name="HFSCREEN">      0.00000000</i>
   <i name="HFSCREENC">      0.00000000</i>
   <i type="int" name="NBANDSGWLOW">     0</i>
  </separator>
  <separator name="vdW DFT" >
   <i type="logical" name="LUSE_VDW"> F  </i>
   <i name="Zab_VDW">     -0.84910000</i>
   <i name="PARAM1">      0.12340000</i>
   <i name="PARAM2">      1.00000000</i>
   <i name="PARAM3">      0.00000000</i>
  </separator>
  <separator name="model GW" >
   <i type="int" name="MODEL_GW">     0</i>
   <i name="MODEL_EPS0">    135.00000000</i>
   <i name="MODEL_ALPHA">      1.00000000</i>
  </separator>
  <separator name="linear response parameters" >
   <i type="logical" name="LEPSILON"> F  </i>
   <i type="logical" name="LRPA"> F  </i>
   <i type="logical" name="LNABLA"> F  </i>
   <i type="logical" name="LVEL"> F  </i>
   <i type="int" name="KINTER">     0</i>
   <i name="CSHIFT">      0.10000000</i>
   <i name="OMEGAMAX">     -1.00000000</i>
   <i name="DEG_THRESHOLD">      0.00200000</i>
   <i name="RTIME">     -0.10000000</i>
   <i name="WPLASMAI">      0.00000000</i>
   <v name="DFIELD">      0.00000000      0.00000000      0.00000000</v>
   <v name="WPLASMA">      0.00000000      0.00000000      0.00000000      0.00000000      0.00000000      0.00000000      0.00000000      0.00000000      0.00000000</v>
  </separator>
  <separator name="orbital magnetization" >
   <i type="logical" name="NUCIND"> F  </i>
   <v name="MAGPOS">      0.00000000      0.00000000      0.00000000</v>
   <i type="logical" name="LNICSALL"> T  </i>
   <i type="logical" name="ORBITALMAG"> F  </i>
   <i type="logical" name="LMAGBLOCH"> F  </i>
   <i type="logical" name="LCHIMAG"> F  </i>
   <i type="logical" name="LGAUGE"> T  </i>
   <i type="int" name="MAGATOM">     0</i>
   <v name="MAGDIPOL">      0.00000000      0.00000000      0.00000000</v>
   <v name="AVECCONST">      0.00000000      0.00000000      0.00000000</v>
  </separator>
  <separator name="response functions" >
   <i type="logical" name="LADDER"> F  </i>
   <i type="logical" name="LRPAFORCE"> F  </i>
   <i type="logical" name="LFXC"> F  </i>
   <i type="logical" name="LHARTREE"> T  </i>
   <i type="int" name="IBSE">     0</i>
   <v type="int" name="KPOINT">    -1     0     0     0</v>
   <i type="logical" name="LTCTE"> F  </i>
   <i type="logical" name="LTETE"> F  </i>
   <i type="logical" name="LTRIPLET"> F  </i>
   <i type="logical" name="LFXCEPS"> F  </i>
   <i type="logical" name="LFXHEG"> F  </i>
   <i type="int" name="NATURALO">     2</i>
   <i type="logical" name="L2ORDER"> F  </i>
   <i type="logical" name="LMP2LT"> F  </i>
   <i type="logical" name="LUSEW"> F  </i>
   <i name="ENCUTGW">     -2.00000000</i>
   <i name="ENCUTGWSOFT">     -2.00000000</i>
   <i name="ENCUTLF">     -1.00000000</i>
   <i type="int" name="LMAXMP2">    -1</i>
   <i name="SCISSOR">      0.00000000</i>
   <i type="int" name="NOMEGA">     0</i>
   <i type="int" name="NOMEGAR">     0</i>
   <i type="int" name="NBANDSGW">    -1</i>
   <i type="int" name="NBANDSO">    -1</i>
   <i type="int" name="NBANDSV">    -1</i>
   <i type="int" name="NELM">   300</i>
   <i type="int" name="NELMHF">     1</i>
   <i type="int" name="DIM">     3</i>
   <i type="int" name="ANTIRES">     0</i>
   <i name="OMEGAMAX">    -30.00000000</i>
   <i name="OMEGAMIN">    -30.00000000</i>
   <i name="OMEGATL">   -200.00000000</i>
   <i type="int" name="OMEGAGRID">   140</i>
   <i name="CSHIFT">     -0.10000000</i>
   <i type="logical" name="SELFENERGY"> F  </i>
   <i type="logical" name="LSPECTRAL"> F  </i>
   <i type="logical" name="LSPECTRALGW"> F  </i>
   <i type="logical" name="LSINGLES"> F  </i>
   <i type="logical" name="LFERMIGW"> F  </i>
   <i type="logical" name="ODDONLYGW"> F  </i>
   <i type="logical" name="EVENONLYGW"> F  </i>
   <i type="int" name="NKREDLFX">     1</i>
   <i type="int" name="NKREDLFY">     1</i>
   <i type="int" name="NKREDLFZ">     1</i>
   <i type="int" name="MAXMEM">  2800</i>
   <i type="int" name="TELESCOPE">     0</i>
   <i type="int" name="TAUPAR">     1</i>
   <i type="int" name="OMEGAPAR">    -1</i>
   <i name="LAMBDA">      1.00000000</i>
  </separator>
  <separator name="External order field" >
   <i name="OFIELD_KAPPA">      0.00000000</i>
   <v name="OFIELD_K">      0.00000000      0.00000000      0.00000000</v>
   <i name="OFIELD_Q6_NEAR">      0.00000000</i>
   <i name="OFIELD_Q6_FAR">      0.00000000</i>
   <i name="OFIELD_A">      0.00000000</i>
  </separator>
 </parameters>
 <atominfo>
  <atoms>      15 </atoms>
  <types>       3 </types>
  <array name="atoms" >
   <dimension dim="1">ion</dimension>
   <field type="string">element</field>
   <field type="int">atomtype</field>
   <set>
    <rc><c>Cu</c><c>   1</c></rc>
    <rc><c>Cu</c><c>   1</c></rc>
    <rc><c>Cu</c><c>   1</c></rc>
    <rc><c>Cu</c><c>   1</c></rc>
    <rc><c>Cu</c><c>   1</c></rc>
    <rc><c>Cu</c><c>   1</c></rc>
    <rc><c>Cu</c><c>   1</c></rc>
    <rc><c>Cu</c><c>   1</c></rc>
    <rc><c>Cu</c><c>   1</c></rc>
    <rc><c>Cu</c><c>   1</c></rc>
    <rc><c>Cu</c><c>   1</c></rc>
    <rc><c>Cu</c><c>   1</c></rc>
    <rc><c>Cu</c><c>   1</c></rc>
    <rc><c>C </c><c>   2</c></rc>
    <rc><c>O </c><c>   3</c></rc>
   </set>
  </array>
  <array name="atomtypes" >
   <dimension dim="1">type</dimension>
   <field type="int">atomspertype</field>
   <field type="string">element</field>
   <field>mass</field>
   <field>valence</field>
   <field type="string">pseudopotential</field>
   <set>
    <rc><c>  13</c><c>Cu</c><c>     63.54600000</c><c>     11.00000000</c><c>  PAW_PBE Cu 22Jun2005                  </c></rc>
    <rc><c>   1</c><c>C </c><c>     12.01100000</c><c>      4.00000000</c><c>  PAW_PBE C 08Apr2002                   </c></rc>
    <rc><c>   1</c><c>O </c><c>     16.00000000</c><c>      6.00000000</c><c>  PAW_PBE O 08Apr2002                   </c></rc>
   </set>
  </array>
 </atominfo>
 <structure name="initialpos" >
  <crystal>
   <varray name="basis" >
    <v>      15.00000000       0.00000000       0.00000000 </v>
    <v>       0.00000000      15.00000000       0.00000000 </v>
    <v>       0.00000000       0.00000000      15.00000000 </v>
   </varray>
   <i name="volume">   3375.00000000 </i>
   <varray name="rec_basis" >
    <v>       0.06666667       0.00000000       0.00000000 </v>
    <v>       0.00000000       0.06666667       0.00000000 </v>
    <v>       0.00000000       0.00000000       0.06666667 </v>
   </varray>
  </crystal>
  <varray name="positions" >
   <v>       0.29374400       0.42465800       0.54782200 </v>
   <v>       0.37474467       0.55308667       0.48606733 </v>
   <v>       0.39347933       0.28716200       0.56396067 </v>
   <v>       0.53295133       0.50561600       0.48378267 </v>
   <v>       0.54981400       0.34545667       0.53335400 </v>
   <v>       0.45331933       0.43492733       0.61269533 </v>
   <v>       0.41476733       0.40072333       0.44859933 </v>
   <v>       0.22715467       0.57772000       0.54883267 </v>
   <v>       0.33865467       0.54038333       0.65500000 </v>
   <v>       0.35663867       0.68080667       0.57956333 </v>
   <v>       0.48840000       0.66508533       0.47103333 </v>
   <v>       0.61038400       0.47658600       0.61663533 </v>
   <v>       0.48813267       0.59066400       0.61224467 </v>
   <v>       0.72984000       0.48942733       0.63888867 </v>
   <v>       0.80362000       0.51189867       0.63676800 </v>
  </varray>
 </structure>
 <calculation>
  <scstep>
   <time name="dav">    7.60    7.60</time>
   <time name="total">    8.78    8.81</time>
   <energy>
    <i name="alphaZ">     41.16232785 </i>
    <i name="ewald">  16687.98269227 </i>
    <i name="hartreedc"> -33706.11695452 </i>
    <i name="XCdc">    623.77167938 </i>
    <i name="pawpsdc">  16421.75059358 </i>
    <i name="pawaedc"> -17800.06104309 </i>
    <i name="eentropy">     -0.00712125 </i>
    <i name="bandstr">    190.73456188 </i>
    <i name="atom">  18662.21924712 </i>
    <i name="e_fr_energy">   1121.43598322 </i>
    <i name="e_wo_entrp">   1121.44310447 </i>
    <i name="e_0_energy">   1121.43835697 </i>
   </energy>
  </scstep>
  <scstep>
   <time name="dav">    7.47    7.48</time>
   <time name="total">    7.47    7.48</time>
   <energy>
    <i name="e_fr_energy">     90.14220262 </i>
    <i name="e_wo_entrp">     90.13632351 </i>
    <i name="e_0_energy">     90.14024292 </i>
   </energy>
  </scstep>
  <scstep>
   <time name="dav">   11.84   11.85</time>
   <time name="total">   11.84   11.85</time>
   <energy>
    <i name="e_fr_energy">    -32.32488987 </i>
    <i name="e_wo_entrp">    -32.33654922 </i>
    <i name="e_0_energy">    -32.32877632 </i>
   </energy>
  </scstep>
  <scstep>
   <time name="dav">   10.22   10.23</time>
   <time name="total">   10.22   10.23</time>
   <energy>
    <i name="e_fr_energy">    -55.83955373 </i>
    <i name="e_wo_entrp">    -55.85479330 </i>
    <i name="e_0_energy">    -55.84463359 </i>
   </energy>
  </scstep>
  <scstep>
   <time name="dav">   12.13   12.13</time>
   <time name="total">   12.81   12.81</time>
   <energy>
    <i name="e_fr_energy">    -57.60364188 </i>
    <i name="e_wo_entrp">    -57.61684290 </i>
    <i name="e_0_energy">    -57.60804222 </i>
   </energy>
  </scstep>
  <scstep>
   <time name="diag">    1.10    1.10</time>
   <time name="diis">    7.19    7.19</time>
   <time name="orth">    0.06    0.06</time>
   <time name="total">   10.20   10.21</time>
   <energy>
    <i name="e_fr_energy">    -56.35992346 </i>
    <i name="e_wo_entrp">    -56.36906653 </i>
    <i name="e_0_energy">    -56.36297115 </i>
   </energy>
  </scstep>
  <scstep>
   <time name="diag">    1.10    1.10</time>
   <time name="diis">    7.32    7.33</time>
   <time name="orth">    0.06    0.06</time>
   <time name="total">   10.33   10.34</time>
   <energy>
    <i name="e_fr_energy">    -49.35964733 </i>
    <i name="e_wo_entrp">    -49.36846833 </i>
    <i name="e_0_energy">    -49.36258767 </i>
   </energy>
  </scstep>
  <scstep>
   <time name="diag">    1.10    1.10</time>
   <time name="diis">    7.21    7.21</time>
   <time name="orth">    0.06    0.06</time>
   <time name="total">   10.22   10.22</time>
   <energy>
    <i name="e_fr_energy">    -49.08491749 </i>
    <i name="e_wo_entrp">    -49.09380840 </i>
    <i name="e_0_energy">    -49.08788113 </i>
   </energy>
  </scstep>
  <scstep>
   <time name="diag">    1.10    1.10</time>
   <time name="diis">    7.05    7.05</time>
   <time name="orth">    0.06    0.06</time>
   <time name="total">   10.07   10.08</time>
   <energy>
    <i name="e_fr_energy">    -49.05476658 </i>
    <i name="e_wo_entrp">    -49.06385328 </i>
    <i name="e_0_energy">    -49.05779548 </i>
   </energy>
  </scstep>
  <scstep>
   <time name="diag">    1.10    1.10</time>
   <time name="diis">    7.12    7.12</time>
   <time name="orth">    0.06    0.06</time>
   <time name="total">   10.14   10.15</time>
   <energy>
    <i name="e_fr_energy">    -49.00689007 </i>
    <i name="e_wo_entrp">    -49.01590612 </i>
    <i name="e_0_energy">    -49.00989542 </i>
   </energy>
  </scstep>
  <scstep>
   <time name="diag">    1.10    1.10</time>
   <time name="diis">    7.41    7.41</time>
   <time name="orth">    0.06    0.06</time>
   <time name="total">   10.43   10.43</time>
   <energy>
    <i name="e_fr_energy">    -48.99890518 </i>
    <i name="e_wo_entrp">    -49.00799426 </i>
    <i name="e_0_energy">    -49.00193487 </i>
   </energy>
  </scstep>
  <scstep>
   <time name="diag">    1.10    1.10</time>
   <time name="diis">    7.26    7.26</time>
   <time name="orth">    0.06    0.06</time>
   <time name="total">   10.28   10.28</time>
   <energy>
    <i name="e_fr_energy">    -48.99647630 </i>
    <i name="e_wo_entrp">    -49.00552330 </i>
    <i name="e_0_energy">    -48.99949197 </i>
   </energy>
  </scstep>
  <scstep>
   <time name="diag">    1.10    1.10</time>
   <time name="diis">    7.48    7.48</time>
   <time name="orth">    0.06    0.06</time>
   <time name="total">   10.50   10.50</time>
   <energy>
    <i name="e_fr_energy">    -48.99580059 </i>
    <i name="e_wo_entrp">    -49.00487571 </i>
    <i name="e_0_energy">    -48.99882563 </i>
   </energy>
  </scstep>
  <scstep>
   <time name="diag">    1.10    1.10</time>
   <time name="diis">    7.86    7.87</time>
   <time name="orth">    0.06    0.06</time>
   <time name="total">   10.89   10.89</time>
   <energy>
    <i name="e_fr_energy">    -48.99693822 </i>
    <i name="e_wo_entrp">    -49.00601870 </i>
    <i name="e_0_energy">    -48.99996504 </i>
   </energy>
  </scstep>
  <scstep>
   <time name="diag">    1.10    1.10</time>
   <time name="diis">    6.96    6.96</time>
   <time name="orth">    0.05    0.05</time>
   <time name="total">    9.98    9.99</time>
   <energy>
    <i name="e_fr_energy">    -48.99825551 </i>
    <i name="e_wo_entrp">    -49.00733180 </i>
    <i name="e_0_energy">    -49.00128094 </i>
   </energy>
  </scstep>
  <scstep>
   <time name="diag">    1.10    1.10</time>
   <time name="diis">    6.47    6.47</time>
   <time name="orth">    0.06    0.06</time>
   <time name="total">    9.49    9.50</time>
   <energy>
    <i name="e_fr_energy">    -48.99947504 </i>
    <i name="e_wo_entrp">    -49.00855724 </i>
    <i name="e_0_energy">    -49.00250244 </i>
   </energy>
  </scstep>
  <scstep>
   <time name="diag">    1.10    1.10</time>
   <time name="diis">    6.48    6.48</time>
   <time name="orth">    0.06    0.06</time>
   <time name="total">    9.50    9.50</time>
   <energy>
    <i name="e_fr_energy">    -49.00131934 </i>
    <i name="e_wo_entrp">    -49.01040314 </i>
    <i name="e_0_energy">    -49.00434728 </i>
   </energy>
  </scstep>
  <scstep>
   <time name="diag">    1.10    1.10</time>
   <time name="diis">    6.95    6.95</time>
   <time name="orth">    0.06    0.06</time>
   <time name="total">    9.98    9.98</time>
   <energy>
    <i name="e_fr_energy">    -49.00215625 </i>
    <i name="e_wo_entrp">    -49.01124149 </i>
    <i name="e_0_energy">    -49.00518466 </i>
   </energy>
  </scstep>
  <scstep>
   <time name="diag">    1.10    1.10</time>
   <time name="diis">    7.47    7.47</time>
   <time name="orth">    0.06    0.06</time>
   <time name="total">   10.50   10.50</time>
   <energy>
    <i name="e_fr_energy">    -49.00280846 </i>
    <i name="e_wo_entrp">    -49.01189386 </i>
    <i name="e_0_energy">    -49.00583693 </i>
   </energy>
  </scstep>
  <scstep>
   <time name="diag">    1.10    1.10</time>
   <time name="diis">    6.92    6.92</time>
   <time name="orth">    0.06    0.06</time>
   <time name="total">    9.95    9.95</time>
   <energy>
    <i name="e_fr_energy">    -49.00342363 </i>
    <i name="e_wo_entrp">    -49.01250725 </i>
    <i name="e_0_energy">    -49.00645150 </i>
   </energy>
  </scstep>
  <scstep>
   <time name="diag">    1.10    1.10</time>
   <time name="diis">    6.54    6.54</time>
   <time name="orth">    0.06    0.06</time>
   <time name="total">    9.57    9.58</time>
   <energy>
    <i name="e_fr_energy">    -49.00385661 </i>
    <i name="e_wo_entrp">    -49.01293958 </i>
    <i name="e_0_energy">    -49.00688427 </i>
   </energy>
  </scstep>
  <scstep>
   <time name="diag">    1.09    1.10</time>
   <time name="diis">    7.06    7.06</time>
   <time name="orth">    0.06    0.06</time>
   <time name="total">   10.09   10.09</time>
   <energy>
    <i name="e_fr_energy">    -49.00417154 </i>
    <i name="e_wo_entrp">    -49.01325552 </i>
    <i name="e_0_energy">    -49.00719953 </i>
   </energy>
  </scstep>
  <scstep>
   <time name="diag">    1.10    1.10</time>
   <time name="diis">    6.64    6.65</time>
   <time name="orth">    0.06    0.06</time>
   <time name="total">    9.68    9.68</time>
   <energy>
    <i name="e_fr_energy">    -49.00429944 </i>
    <i name="e_wo_entrp">    -49.01338316 </i>
    <i name="e_0_energy">    -49.00732735 </i>
   </energy>
  </scstep>
  <scstep>
   <time name="diag">    1.09    1.10</time>
   <time name="diis">    6.71    6.72</time>
   <time name="orth">    0.06    0.06</time>
   <time name="total">    9.75    9.75</time>
   <energy>
    <i name="e_fr_energy">    -49.00439290 </i>
    <i name="e_wo_entrp">    -49.01347668 </i>
    <i name="e_0_energy">    -49.00742083 </i>
   </energy>
  </scstep>
  <scstep>
   <time name="diag">    1.10    1.10</time>
   <time name="diis">    6.73    6.73</time>
   <time name="orth">    0.06    0.06</time>
   <time name="total">    9.77    9.77</time>
   <energy>
    <i name="e_fr_energy">    -49.00446308 </i>
    <i name="e_wo_entrp">    -49.01354680 </i>
    <i name="e_0_energy">    -49.00749098 </i>
   </energy>
  </scstep>
  <scstep>
   <time name="diag">    1.10    1.10</time>
   <time name="diis">    6.58    6.59</time>
   <time name="orth">    0.06    0.06</time>
   <time name="total">    9.63    9.63</time>
   <energy>
    <i name="e_fr_energy">    -49.00449500 </i>
    <i name="e_wo_entrp">    -49.01357886 </i>
    <i name="e_0_energy">    -49.00752296 </i>
   </energy>
  </scstep>
  <scstep>
   <time name="diag">    1.10    1.10</time>
   <time name="diis">    4.90    4.90</time>
   <time name="orth">    0.06    0.06</time>
   <time name="total">    7.95    7.95</time>
   <energy>
    <i name="e_fr_energy">    -49.00451106 </i>
    <i name="e_wo_entrp">    -49.01359496 </i>
    <i name="e_0_energy">    -49.00753903 </i>
   </energy>
  </scstep>
  <scstep>
   <time name="diag">    1.10    1.10</time>
   <time name="diis">    4.61    4.61</time>
   <time name="orth">    0.06    0.06</time>
   <time name="total">    7.66    7.66</time>
   <energy>
    <i name="e_fr_energy">    -49.00451917 </i>
    <i name="e_wo_entrp">    -49.01360299 </i>
    <i name="e_0_energy">    -49.00754711 </i>
   </energy>
  </scstep>
  <scstep>
   <time name="diag">    1.10    1.10</time>
   <time name="diis">    4.72    4.72</time>
   <time name="orth">    0.06    0.06</time>
   <time name="total">    7.78    7.78</time>
   <energy>
    <i name="e_fr_energy">    -49.00452285 </i>
    <i name="e_wo_entrp">    -49.01360665 </i>
    <i name="e_0_energy">    -49.00755078 </i>
   </energy>
  </scstep>
  <scstep>
   <time name="diag">    1.10    1.10</time>
   <time name="diis">    4.50    4.50</time>
   <time name="orth">    0.06    0.06</time>
   <time name="total">    7.57    7.57</time>
   <energy>
    <i name="e_fr_energy">    -49.00452496 </i>
    <i name="e_wo_entrp">    -49.01360873 </i>
    <i name="e_0_energy">    -49.00755288 </i>
   </energy>
  </scstep>
  <scstep>
   <time name="diag">    1.08    1.10</time>
   <time name="diis">    4.50    4.52</time>
   <time name="orth">    0.05    0.05</time>
   <time name="total">    7.56    7.59</time>
   <energy>
    <i name="e_fr_energy">    -49.00452604 </i>
    <i name="e_wo_entrp">    -49.01360981 </i>
    <i name="e_0_energy">    -49.00755396 </i>
   </energy>
  </scstep>
  <scstep>
   <time name="diag">    1.10    1.10</time>
   <time name="diis">    4.47    4.47</time>
   <time name="orth">    0.05    0.05</time>
   <time name="total">    7.54    7.55</time>
   <energy>
    <i name="e_fr_energy">    -49.00452670 </i>
    <i name="e_wo_entrp">    -49.01361046 </i>
    <i name="e_0_energy">    -49.00755462 </i>
   </energy>
  </scstep>
  <scstep>
   <time name="diag">    1.10    1.10</time>
   <time name="diis">    4.23    4.23</time>
   <time name="orth">    0.06    0.06</time>
   <time name="total">    7.32    7.32</time>
   <energy>
    <i name="e_fr_energy">    -49.00452718 </i>
    <i name="e_wo_entrp">    -49.01361095 </i>
    <i name="e_0_energy">    -49.00755510 </i>
   </energy>
  </scstep>
  <scstep>
   <time name="diag">    1.10    1.10</time>
   <time name="diis">    4.21    4.21</time>
   <time name="orth">    0.06    0.06</time>
   <time name="total">    7.30    7.31</time>
   <energy>
    <i name="e_fr_energy">    -49.00452760 </i>
    <i name="e_wo_entrp">    -49.01361136 </i>
    <i name="e_0_energy">    -49.00755552 </i>
   </energy>
  </scstep>
  <scstep>
   <time name="diag">    1.10    1.10</time>
   <time name="diis">    4.02    4.02</time>
   <time name="orth">    0.05    0.05</time>
   <time name="total">    7.12    7.13</time>
   <energy>
    <i name="e_fr_energy">    -49.00452795 </i>
    <i name="e_wo_entrp">    -49.01361172 </i>
    <i name="e_0_energy">    -49.00755587 </i>
   </energy>
  </scstep>
  <scstep>
   <time name="diag">    1.10    1.10</time>
   <time name="diis">    3.80    3.80</time>
   <time name="orth">    0.05    0.05</time>
   <time name="total">    6.91    6.91</time>
   <energy>
    <i name="e_fr_energy">    -49.00452809 </i>
    <i name="e_wo_entrp">    -49.01361186 </i>
    <i name="e_0_energy">    -49.00755602 </i>
   </energy>
  </scstep>
  <scstep>
   <time name="diag">    1.10    1.10</time>
   <time name="diis">    3.48    3.48</time>
   <time name="orth">    0.05    0.05</time>
   <time name="total">    5.83    5.84</time>
   <energy>
    <i name="alphaZ">     41.16232785 </i>
    <i name="ewald">  16687.98269227 </i>
    <i name="hartreedc"> -33665.46511209 </i>
    <i name="XCdc">    615.72940481 </i>
    <i name="pawpsdc">  17685.92556132 </i>
    <i name="pawaedc"> -19085.11415972 </i>
    <i name="eentropy">      0.00908377 </i>
    <i name="bandstr">   -991.45357352 </i>
    <i name="atom">  18662.21924712 </i>
    <i name="e_fr_energy">    -49.00452818 </i>
    <i name="e_wo_entrp">    -49.01361195 </i>
    <i name="e_0_energy">    -49.00755610 </i>
   </energy>
  </scstep>
  <structure>
   <crystal>
    <varray name="basis" >
     <v>      15.00000000       0.00000000       0.00000000 </v>
     <v>       0.00000000      15.00000000       0.00000000 </v>
     <v>       0.00000000       0.00000000      15.00000000 </v>
    </varray>
    <i name="volume">   3375.00000000 </i>
    <varray name="rec_basis" >
     <v>       0.06666667       0.00000000       0.00000000 </v>
     <v>       0.00000000       0.06666667       0.00000000 </v>
     <v>       0.00000000       0.00000000       0.06666667 </v>
    </varray>
   </crystal>
   <varray name="positions" >
    <v>       0.29374400       0.42465800       0.54782200 </v>
    <v>       0.37474467       0.55308667       0.48606733 </v>
    <v>       0.39347933       0.28716200       0.56396067 </v>
    <v>       0.53295133       0.50561600       0.48378267 </v>
    <v>       0.54981400       0.34545667       0.53335400 </v>
    <v>       0.45331933       0.43492733       0.61269533 </v>
    <v>       0.41476733       0.40072333       0.44859933 </v>
    <v>       0.22715467       0.57772000       0.54883267 </v>
    <v>       0.33865467       0.54038333       0.65500000 </v>
    <v>       0.35663867       0.68080667       0.57956333 </v>
    <v>       0.48840000       0.66508533       0.47103333 </v>
    <v>       0.61038400       0.47658600       0.61663533 </v>
    <v>       0.48813267       0.59066400       0.61224467 </v>
    <v>       0.72984000       0.48942733       0.63888867 </v>
    <v>       0.80362000       0.51189867       0.63676800 </v>
   </varray>
  </structure>
  <varray name="forces" >
   <v>      -0.11368535      -0.13761059       0.27654172 </v>
   <v>      -0.06543007      -0.09418500       0.10258230 </v>
   <v>       0.07707433       0.47440895      -0.05079066 </v>
   <v>      -0.02833181      -0.01769370      -0.48750859 </v>
   <v>      -0.00697323      -0.21642364      -0.37548086 </v>
   <v>      -0.59577596      -0.26142789      -0.05212374 </v>
   <v>       0.31486033      -0.26222695       0.17728350 </v>
   <v>       0.02152504      -0.02529669       0.00079407 </v>
   <v>       0.05903259       0.00108757      -0.07691082 </v>
   <v>      -0.02099328       0.25218722      -0.20163966 </v>
   <v>      -0.03535837       0.08616284       0.23250672 </v>
   <v>       0.41451316      -0.12316959       0.13884723 </v>
   <v>       0.01973754       0.20535291       0.16156326 </v>
   <v>       0.00183628       0.26036064       0.20061069 </v>
   <v>      -0.04203120      -0.14152607      -0.04627516 </v>
  </varray>
  <varray name="stress" >
   <v>       0.26188892      -0.12016390      -0.19873318 </v>
   <v>      -0.12016388       0.32995481       0.31390449 </v>
   <v>      -0.19873318       0.31390449       0.01775762 </v>
  </varray>
  <energy>
   <i name="e_fr_energy">    -49.00452818 </i>
   <i name="e_wo_entrp">    -49.00755610 </i>
   <i name="e_0_energy">      0.00908377 </i>
  </energy>
  <time name="totalsc">  353.81  354.03</time>
  <eigenvalues>
   <array>
    <dimension dim="1">band</dimension>
    <dimension dim="2">kpoint</dimension>
    <dimension dim="3">spin</dimension>
    <field>eigene</field>
    <field>occ</field>
    <set>
     <set comment="spin 1">
      <set comment="kpoint 1">
       <r>  -28.3886    1.0000 </r>
       <r>  -13.7802    1.0000 </r>
       <r>  -11.2785    1.0000 </r>
       <r>  -11.0587    1.0000 </r>
       <r>  -10.9514    1.0000 </r>
       <r>  -10.1784    1.0000 </r>
       <r>   -8.6563    1.0000 </r>
       <r>   -8.2770    1.0000 </r>
       <r>   -7.7698    1.0000 </r>
       <r>   -7.6628    1.0000 </r>
       <r>   -7.4910    1.0000 </r>
       <r>   -7.4300    1.0000 </r>
       <r>   -7.3174    1.0000 </r>
       <r>   -7.2096    1.0000 </r>
       <r>   -7.0901    1.0000 </r>
       <r>   -6.9885    1.0000 </r>
       <r>   -6.9136    1.0000 </r>
       <r>   -6.8396    1.0000 </r>
       <r>   -6.8111    1.0000 </r>
       <r>   -6.7418    1.0000 </r>
       <r>   -6.6501    1.0000 </r>
       <r>   -6.6020    1.0000 </r>
       <r>   -6.5348    1.0000 </r>
       <r>   -6.5170    1.0000 </r>
       <r>   -6.4718    1.0000 </r>
       <r>   -6.3919    1.0000 </r>
       <r>   -6.3540    1.0000 </r>
       <r>   -6.3138    1.0000 </r>
       <r>   -6.2122    1.0000 </r>
       <r>   -6.2004    1.0000 </r>
       <r>   -6.1745    1.0000 </r>
       <r>   -6.1016    1.0000 </r>
       <r>   -6.0880    1.0000 </r>
       <r>   -6.0058    1.0000 </r>
       <r>   -5.9534    1.0000 </r>
       <r>   -5.7948    1.0000 </r>
       <r>   -5.7664    1.0000 </r>
       <r>   -5.6848    1.0000 </r>
       <r>   -5.6693    1.0000 </r>
       <r>   -5.6278    1.0000 </r>
       <r>   -5.6222    1.0000 </r>
       <r>   -5.5786    1.0000 </r>
       <r>   -5.5192    1.0000 </r>
       <r>   -5.4811    1.0000 </r>
       <r>   -5.4499    1.0000 </r>
       <r>   -5.4266    1.0000 </r>
       <r>   -5.3795    1.0000 </r>
       <r>   -5.3688    1.0000 </r>
       <r>   -5.3657    1.0000 </r>
       <r>   -5.3274    1.0000 </r>
       <r>   -5.3128    1.0000 </r>
       <r>   -5.2711    1.0000 </r>
       <r>   -5.2578    1.0000 </r>
       <r>   -5.2297    1.0000 </r>
       <r>   -5.2084    1.0000 </r>
       <r>   -5.1867    1.0000 </r>
       <r>   -5.1652    1.0000 </r>
       <r>   -5.1430    1.0000 </r>
       <r>   -5.1356    1.0000 </r>
       <r>   -5.0970    1.0000 </r>
       <r>   -5.0529    1.0000 </r>
       <r>   -5.0146    1.0000 </r>
       <r>   -5.0030    1.0000 </r>
       <r>   -4.9771    1.0000 </r>
       <r>   -4.9403    1.0000 </r>
       <r>   -4.9372    1.0000 </r>
       <r>   -4.8985    1.0000 </r>
       <r>   -4.8842    1.0000 </r>
       <r>   -4.8531    1.0000 </r>
       <r>   -4.8432    1.0000 </r>
       <r>   -4.8095    1.0000 </r>
       <r>   -4.7579    1.0000 </r>
       <r>   -4.7348    1.0000 </r>
       <r>   -4.5839    1.0000 </r>
       <r>   -4.1763    1.0000 </r>
       <r>   -4.1571    1.0000 </r>
       <r>   -3.4462    1.0001 </r>
       <r>   -3.0630   -0.0001 </r>
       <r>   -2.9362   -0.0000 </r>
       <r>   -2.5007   -0.0000 </r>
       <r>   -2.2689   -0.0000 </r>
       <r>   -1.9554   -0.0000 </r>
       <r>   -1.8357   -0.0000 </r>
       <r>   -1.7564   -0.0000 </r>
       <r>   -1.3002   -0.0000 </r>
       <r>   -1.0117   -0.0000 </r>
       <r>   -0.9730   -0.0000 </r>
       <r>   -0.6835   -0.0000 </r>
       <r>   -0.3598    0.0000 </r>
       <r>   -0.2713    0.0000 </r>
       <r>   -0.1859    0.0000 </r>
       <r>    0.1215    0.0000 </r>
      </set>
     </set>
     <set comment="spin 2">
      <set comment="kpoint 1">
       <r>  -28.3635    1.0000 </r>
       <r>  -13.7351    1.0000 </r>
       <r>  -11.2415    1.0000 </r>
       <r>  -11.0447    1.0000 </r>
       <r>  -10.8723    1.0000 </r>
       <r>  -10.1346    1.0000 </r>
       <r>   -8.6338    1.0000 </r>
       <r>   -8.2290    1.0000 </r>
       <r>   -7.7262    1.0000 </r>
       <r>   -7.6464    1.0000 </r>
       <r>   -7.4639    1.0000 </r>
       <r>   -7.3996    1.0000 </r>
       <r>   -7.2729    1.0000 </r>
       <r>   -7.1762    1.0000 </r>
       <r>   -7.0591    1.0000 </r>
       <r>   -6.9488    1.0000 </r>
       <r>   -6.8802    1.0000 </r>
       <r>   -6.8137    1.0000 </r>
       <r>   -6.7920    1.0000 </r>
       <r>   -6.7223    1.0000 </r>
       <r>   -6.6236    1.0000 </r>
       <r>   -6.5816    1.0000 </r>
       <r>   -6.5094    1.0000 </r>
       <r>   -6.4878    1.0000 </r>
       <r>   -6.4373    1.0000 </r>
       <r>   -6.3636    1.0000 </r>
       <r>   -6.3290    1.0000 </r>
       <r>   -6.2913    1.0000 </r>
       <r>   -6.1864    1.0000 </r>
       <r>   -6.1751    1.0000 </r>
       <r>   -6.1485    1.0000 </r>
       <r>   -6.0775    1.0000 </r>
       <r>   -6.0651    1.0000 </r>
       <r>   -5.9805    1.0000 </r>
       <r>   -5.9312    1.0000 </r>
       <r>   -5.7687    1.0000 </r>
       <r>   -5.7424    1.0000 </r>
       <r>   -5.6636    1.0000 </r>
       <r>   -5.6394    1.0000 </r>
       <r>   -5.6013    1.0000 </r>
       <r>   -5.5977    1.0000 </r>
       <r>   -5.5561    1.0000 </r>
       <r>   -5.4886    1.0000 </r>
       <r>   -5.4554    1.0000 </r>
       <r>   -5.4286    1.0000 </r>
       <r>   -5.3936    1.0000 </r>
       <r>   -5.3553    1.0000 </r>
       <r>   -5.3445    1.0000 </r>
       <r>   -5.3365    1.0000 </r>
       <r>   -5.3001    1.0000 </r>
       <r>   -5.2844    1.0000 </r>
       <r>   -5.2464    1.0000 </r>
       <r>   -5.2321    1.0000 </r>
       <r>   -5.2122    1.0000 </r>
       <r>   -5.1818    1.0000 </r>
       <r>   -5.1659    1.0000 </r>
       <r>   -5.1446    1.0000 </r>
       <r>   -5.1207    1.0000 </r>
       <r>   -5.1100    1.0000 </r>
       <r>   -5.0704    1.0000 </r>
       <r>   -5.0294    1.0000 </r>
       <r>   -4.9936    1.0000 </r>
       <r>   -4.9840    1.0000 </r>
       <r>   -4.9459    1.0000 </r>
       <r>   -4.9173    1.0000 </r>
       <r>   -4.9116    1.0000 </r>
       <r>   -4.8746    1.0000 </r>
       <r>   -4.8397    1.0000 </r>
       <r>   -4.8268    1.0000 </r>
       <r>   -4.8104    1.0000 </r>
       <r>   -4.7774    1.0000 </r>
       <r>   -4.7288    1.0000 </r>
       <r>   -4.7091    1.0000 </r>
       <r>   -4.5413    1.0000 </r>
       <r>   -4.1312    1.0268 </r>
       <r>   -4.1035    0.9732 </r>
       <r>   -3.2419   -0.0000 </r>
       <r>   -3.0071   -0.0000 </r>
       <r>   -2.8833   -0.0000 </r>
       <r>   -2.4347   -0.0000 </r>
       <r>   -2.1701   -0.0000 </r>
       <r>   -1.9278   -0.0000 </r>
       <r>   -1.7518   -0.0000 </r>
       <r>   -1.6802   -0.0000 </r>
       <r>   -1.1814    0.0000 </r>
       <r>   -0.9618    0.0000 </r>
       <r>   -0.8301    0.0000 </r>
       <r>   -0.5877    0.0000 </r>
       <r>   -0.2776    0.0000 </r>
       <r>   -0.2124    0.0000 </r>
       <r>   -0.0941    0.0000 </r>
       <r>    0.1751    0.0000 </r>
      </set>
     </set>
    </set>
   </array>
  </eigenvalues>
  <separator name="orbital magnetization" >
   <v name="MAGDIPOLOUT">      0.00000000      0.00000000      0.00000000</v>
  </separator>
  <dos>
   <i name="efermi">     -4.02946351 </i>
   <total>
    <array>
     <dimension dim="1">gridpoints</dimension>
     <dimension dim="2">spin</dimension>
     <field>energy</field>
     <field>total</field>
     <field>integrated</field>
     <set>
      <set comment="spin 1">
       <r>   -29.8168     0.0000     0.0000 </r>
       <r>   -29.7121     0.0000     0.0000 </r>
       <r>   -29.6073     0.0000     0.0000 </r>
       <r>   -29.5026     0.0000     0.0000 </r>
       <r>   -29.3979     0.0000     0.0000 </r>
       <r>   -29.2931    -0.0000    -0.0000 </r>
       <r>   -29.1884    -0.0000    -0.0000 </r>
       <r>   -29.0837    -0.0000    -0.0000 </r>
       <r>   -28.9789    -0.0000    -0.0000 </r>
       <r>   -28.8742    -0.0000    -0.0000 </r>
       <r>   -28.7695    -0.0000    -0.0000 </r>
       <r>   -28.6647    -0.0064    -0.0007 </r>
       <r>   -28.5600    -0.3364    -0.0359 </r>
       <r>   -28.4553     1.3429     0.1048 </r>
       <r>   -28.3505    14.2356     1.5957 </r>
       <r>   -28.2458     4.4465     2.0614 </r>
       <r>   -28.1411    -0.5615     2.0026 </r>
       <r>   -28.0363    -0.0246     2.0000 </r>
       <r>   -27.9316    -0.0001     2.0000 </r>
       <r>   -27.8269    -0.0000     2.0000 </r>
       <r>   -27.7221    -0.0000     2.0000 </r>
       <r>   -27.6174     0.0000     2.0000 </r>
       <r>   -27.5127     0.0000     2.0000 </r>
       <r>   -27.4079     0.0000     2.0000 </r>
       <r>   -27.3032     0.0000     2.0000 </r>
       <r>   -27.1985     0.0000     2.0000 </r>
       <r>   -27.0937     0.0000     2.0000 </r>
       <r>   -26.9890     0.0000     2.0000 </r>
       <r>   -26.8843     0.0000     2.0000 </r>
       <r>   -26.7795     0.0000     2.0000 </r>
       <r>   -26.6748     0.0000     2.0000 </r>
       <r>   -26.5701     0.0000     2.0000 </r>
       <r>   -26.4653     0.0000     2.0000 </r>
       <r>   -26.3606     0.0000     2.0000 </r>
       <r>   -26.2559     0.0000     2.0000 </r>
       <r>   -26.1511     0.0000     2.0000 </r>
       <r>   -26.0464     0.0000     2.0000 </r>
       <r>   -25.9417     0.0000     2.0000 </r>
       <r>   -25.8369     0.0000     2.0000 </r>
       <r>   -25.7322     0.0000     2.0000 </r>
       <r>   -25.6275     0.0000     2.0000 </r>
       <r>   -25.5227     0.0000     2.0000 </r>
       <r>   -25.4180     0.0000     2.0000 </r>
       <r>   -25.3133     0.0000     2.0000 </r>
       <r>   -25.2085     0.0000     2.0000 </r>
       <r>   -25.1038     0.0000     2.0000 </r>
       <r>   -24.9991     0.0000     2.0000 </r>
       <r>   -24.8943     0.0000     2.0000 </r>
       <r>   -24.7896     0.0000     2.0000 </r>
       <r>   -24.6848     0.0000     2.0000 </r>
       <r>   -24.5801     0.0000     2.0000 </r>
       <r>   -24.4754     0.0000     2.0000 </r>
       <r>   -24.3706     0.0000     2.0000 </r>
       <r>   -24.2659     0.0000     2.0000 </r>
       <r>   -24.1612     0.0000     2.0000 </r>
       <r>   -24.0564     0.0000     2.0000 </r>
       <r>   -23.9517     0.0000     2.0000 </r>
       <r>   -23.8470     0.0000     2.0000 </r>
       <r>   -23.7422     0.0000     2.0000 </r>
       <r>   -23.6375     0.0000     2.0000 </r>
       <r>   -23.5328     0.0000     2.0000 </r>
       <r>   -23.4280     0.0000     2.0000 </r>
       <r>   -23.3233     0.0000     2.0000 </r>
       <r>   -23.2186     0.0000     2.0000 </r>
       <r>   -23.1138     0.0000     2.0000 </r>
       <r>   -23.0091     0.0000     2.0000 </r>
       <r>   -22.9044     0.0000     2.0000 </r>
       <r>   -22.7996     0.0000     2.0000 </r>
       <r>   -22.6949     0.0000     2.0000 </r>
       <r>   -22.5902     0.0000     2.0000 </r>
       <r>   -22.4854     0.0000     2.0000 </r>
       <r>   -22.3807     0.0000     2.0000 </r>
       <r>   -22.2760     0.0000     2.0000 </r>
       <r>   -22.1712     0.0000     2.0000 </r>
       <r>   -22.0665     0.0000     2.0000 </r>
       <r>   -21.9618     0.0000     2.0000 </r>
       <r>   -21.8570     0.0000     2.0000 </r>
       <r>   -21.7523     0.0000     2.0000 </r>
       <r>   -21.6476     0.0000     2.0000 </r>
       <r>   -21.5428     0.0000     2.0000 </r>
       <r>   -21.4381     0.0000     2.0000 </r>
       <r>   -21.3334     0.0000     2.0000 </r>
       <r>   -21.2286     0.0000     2.0000 </r>
       <r>   -21.1239     0.0000     2.0000 </r>
       <r>   -21.0192     0.0000     2.0000 </r>
       <r>   -20.9144     0.0000     2.0000 </r>
       <r>   -20.8097     0.0000     2.0000 </r>
       <r>   -20.7050     0.0000     2.0000 </r>
       <r>   -20.6002     0.0000     2.0000 </r>
       <r>   -20.4955     0.0000     2.0000 </r>
       <r>   -20.3908     0.0000     2.0000 </r>
       <r>   -20.2860     0.0000     2.0000 </r>
       <r>   -20.1813     0.0000     2.0000 </r>
       <r>   -20.0766     0.0000     2.0000 </r>
       <r>   -19.9718     0.0000     2.0000 </r>
       <r>   -19.8671     0.0000     2.0000 </r>
       <r>   -19.7624     0.0000     2.0000 </r>
       <r>   -19.6576     0.0000     2.0000 </r>
       <r>   -19.5529     0.0000     2.0000 </r>
       <r>   -19.4482     0.0000     2.0000 </r>
       <r>   -19.3434     0.0000     2.0000 </r>
       <r>   -19.2387     0.0000     2.0000 </r>
       <r>   -19.1340     0.0000     2.0000 </r>
       <r>   -19.0292     0.0000     2.0000 </r>
       <r>   -18.9245     0.0000     2.0000 </r>
       <r>   -18.8198     0.0000     2.0000 </r>
       <r>   -18.7150     0.0000     2.0000 </r>
       <r>   -18.6103     0.0000     2.0000 </r>
       <r>   -18.5056     0.0000     2.0000 </r>
       <r>   -18.4008     0.0000     2.0000 </r>
       <r>   -18.2961     0.0000     2.0000 </r>
       <r>   -18.1914     0.0000     2.0000 </r>
       <r>   -18.0866     0.0000     2.0000 </r>
       <r>   -17.9819     0.0000     2.0000 </r>
       <r>   -17.8772     0.0000     2.0000 </r>
       <r>   -17.7724     0.0000     2.0000 </r>
       <r>   -17.6677     0.0000     2.0000 </r>
       <r>   -17.5630     0.0000     2.0000 </r>
       <r>   -17.4582     0.0000     2.0000 </r>
       <r>   -17.3535     0.0000     2.0000 </r>
       <r>   -17.2488     0.0000     2.0000 </r>
       <r>   -17.1440     0.0000     2.0000 </r>
       <r>   -17.0393     0.0000     2.0000 </r>
       <r>   -16.9346     0.0000     2.0000 </r>
       <r>   -16.8298     0.0000     2.0000 </r>
       <r>   -16.7251     0.0000     2.0000 </r>
       <r>   -16.6203     0.0000     2.0000 </r>
       <r>   -16.5156     0.0000     2.0000 </r>
       <r>   -16.4109     0.0000     2.0000 </r>
       <r>   -16.3061     0.0000     2.0000 </r>
       <r>   -16.2014     0.0000     2.0000 </r>
       <r>   -16.0967     0.0000     2.0000 </r>
       <r>   -15.9919     0.0000     2.0000 </r>
       <r>   -15.8872     0.0000     2.0000 </r>
       <r>   -15.7825     0.0000     2.0000 </r>
       <r>   -15.6777     0.0000     2.0000 </r>
       <r>   -15.5730     0.0000     2.0000 </r>
       <r>   -15.4683     0.0000     2.0000 </r>
       <r>   -15.3635     0.0000     2.0000 </r>
       <r>   -15.2588     0.0000     2.0000 </r>
       <r>   -15.1541     0.0000     2.0000 </r>
       <r>   -15.0493     0.0000     2.0000 </r>
       <r>   -14.9446     0.0000     2.0000 </r>
       <r>   -14.8399     0.0000     2.0000 </r>
       <r>   -14.7351     0.0000     2.0000 </r>
       <r>   -14.6304    -0.0000     2.0000 </r>
       <r>   -14.5257    -0.0000     2.0000 </r>
       <r>   -14.4209    -0.0000     2.0000 </r>
       <r>   -14.3162    -0.0000     2.0000 </r>
       <r>   -14.2115    -0.0000     2.0000 </r>
       <r>   -14.1067    -0.0004     2.0000 </r>
       <r>   -14.0020    -0.0705     1.9926 </r>
       <r>   -13.8973    -0.5971     1.9300 </r>
       <r>   -13.7925     8.2348     2.7925 </r>
       <r>   -13.6878    11.8212     4.0306 </r>
       <r>   -13.5831    -0.1245     4.0175 </r>
       <r>   -13.4783    -0.1658     4.0002 </r>
       <r>   -13.3736    -0.0016     4.0000 </r>
       <r>   -13.2689    -0.0000     4.0000 </r>
       <r>   -13.1641    -0.0000     4.0000 </r>
       <r>   -13.0594     0.0000     4.0000 </r>
       <r>   -12.9547     0.0000     4.0000 </r>
       <r>   -12.8499     0.0000     4.0000 </r>
       <r>   -12.7452     0.0000     4.0000 </r>
       <r>   -12.6405     0.0000     4.0000 </r>
       <r>   -12.5357     0.0000     4.0000 </r>
       <r>   -12.4310     0.0000     4.0000 </r>
       <r>   -12.3263     0.0000     4.0000 </r>
       <r>   -12.2215     0.0000     4.0000 </r>
       <r>   -12.1168    -0.0000     4.0000 </r>
       <r>   -12.0121    -0.0000     4.0000 </r>
       <r>   -11.9073    -0.0000     4.0000 </r>
       <r>   -11.8026    -0.0000     4.0000 </r>
       <r>   -11.6979    -0.0000     4.0000 </r>
       <r>   -11.5931    -0.0008     3.9999 </r>
       <r>   -11.4884    -0.1088     3.9885 </r>
       <r>   -11.3837    -0.4573     3.9406 </r>
       <r>   -11.2789     9.9754     4.9854 </r>
       <r>   -11.1742     9.5126     5.9817 </r>
       <r>   -11.0695     7.4313     6.7600 </r>
       <r>   -10.9647    19.5960     8.8123 </r>
       <r>   -10.8600    11.7624    10.0443 </r>
       <r>   -10.7553    -0.2487    10.0182 </r>
       <r>   -10.6505    -0.1723    10.0002 </r>
       <r>   -10.5458    -0.0017    10.0000 </r>
       <r>   -10.4411    -0.0123     9.9987 </r>
       <r>   -10.3363    -0.4468     9.9519 </r>
       <r>   -10.2316     2.6190    10.2262 </r>
       <r>   -10.1269    14.6195    11.7574 </r>
       <r>   -10.0221     2.7897    12.0495 </r>
       <r>    -9.9174    -0.4597    12.0014 </r>
       <r>    -9.8127    -0.0133    12.0000 </r>
       <r>    -9.7079    -0.0000    12.0000 </r>
       <r>    -9.6032    -0.0000    12.0000 </r>
       <r>    -9.4985    -0.0000    12.0000 </r>
       <r>    -9.3937    -0.0000    12.0000 </r>
       <r>    -9.2890    -0.0000    12.0000 </r>
       <r>    -9.1843    -0.0000    12.0000 </r>
       <r>    -9.0795    -0.0000    12.0000 </r>
       <r>    -8.9748    -0.0006    11.9999 </r>
       <r>    -8.8701    -0.0949    11.9900 </r>
       <r>    -8.7653    -0.5180    11.9357 </r>
       <r>    -8.6606     9.4712    12.9277 </r>
       <r>    -8.5559    10.7216    14.0506 </r>
       <r>    -8.4511    -0.6750    13.9799 </r>
       <r>    -8.3464     0.9984    14.0845 </r>
       <r>    -8.2416    14.0737    15.5585 </r>
       <r>    -8.1369     4.8220    16.0635 </r>
       <r>    -8.0322    -0.5910    16.0016 </r>
       <r>    -7.9274    -0.4874    15.9506 </r>
       <r>    -7.8227     2.2097    16.1820 </r>
       <r>    -7.7180    16.9643    17.9587 </r>
       <r>    -7.6132    16.5037    19.6872 </r>
       <r>    -7.5085    10.3087    20.7669 </r>
       <r>    -7.4038    25.2559    23.4120 </r>
       <r>    -7.2990    18.6100    25.3611 </r>
       <r>    -7.1943    18.1192    27.2588 </r>
       <r>    -7.0896    16.6076    28.9982 </r>
       <r>    -6.9848    20.0910    31.1024 </r>
       <r>    -6.8801    27.6370    33.9969 </r>
       <r>    -6.7754    36.9803    37.8700 </r>
       <r>    -6.6706    26.5093    40.6464 </r>
       <r>    -6.5659    34.8352    44.2948 </r>
       <r>    -6.4612    44.6471    48.9709 </r>
       <r>    -6.3564    37.2610    52.8734 </r>
       <r>    -6.2517    35.1075    56.5503 </r>
       <r>    -6.1470    47.8519    61.5620 </r>
       <r>    -6.0422    43.1726    66.0837 </r>
       <r>    -5.9375    29.5086    69.1742 </r>
       <r>    -5.8328    12.6039    70.4943 </r>
       <r>    -5.7280    31.8504    73.8301 </r>
       <r>    -5.6233    57.4107    79.8429 </r>
       <r>    -5.5186    52.4120    85.3322 </r>
       <r>    -5.4138    60.2246    91.6398 </r>
       <r>    -5.3091    84.7845   100.5196 </r>
       <r>    -5.2044    86.6155   109.5911 </r>
       <r>    -5.0996    83.9107   118.3794 </r>
       <r>    -4.9949    66.7953   125.3752 </r>
       <r>    -4.8902    85.3115   134.3101 </r>
       <r>    -4.7854    74.9833   142.1634 </r>
       <r>    -4.6807    35.4903   145.8805 </r>
       <r>    -4.5760    12.7409   147.2149 </r>
       <r>    -4.4712     8.1540   148.0689 </r>
       <r>    -4.3665    -0.8919   147.9754 </r>
       <r>    -4.2618    -0.3773   147.9359 </r>
       <r>    -4.1570    22.7738   150.3211 </r>
       <r>    -4.0523    17.2691   152.1298 </r>
       <r>    -3.9476    -1.0740   152.0173 </r>
       <r>    -3.8428    -0.1639   152.0001 </r>
       <r>    -3.7381    -0.0038   151.9997 </r>
       <r>    -3.6334    -0.2230   151.9764 </r>
       <r>    -3.5286     0.3005   152.0078 </r>
       <r>    -3.4239    12.9750   153.3668 </r>
       <r>    -3.3192     6.7010   154.0686 </r>
       <r>    -3.2144    -1.1280   153.9504 </r>
       <r>    -3.1097     2.9831   154.2629 </r>
       <r>    -3.0050    15.7392   155.9113 </r>
       <r>    -2.9002    16.2349   157.6116 </r>
       <r>    -2.7955     4.3169   158.0638 </r>
       <r>    -2.6908    -0.7897   157.9811 </r>
       <r>    -2.5860     0.1352   157.9952 </r>
       <r>    -2.4813    12.5713   159.3118 </r>
       <r>    -2.3766     6.6479   160.0081 </r>
       <r>    -2.2718     9.0514   160.9561 </r>
       <r>    -2.1671    10.3782   162.0430 </r>
       <r>    -2.0624    -0.9389   161.9447 </r>
       <r>    -1.9576     8.8932   162.8761 </r>
       <r>    -1.8529    17.6717   164.7270 </r>
       <r>    -1.7482    23.2756   167.1647 </r>
       <r>    -1.6434     8.8172   168.0881 </r>
       <r>    -1.5387    -0.7931   168.0051 </r>
       <r>    -1.4340    -0.6931   167.9325 </r>
       <r>    -1.3292     5.7101   168.5305 </r>
       <r>    -1.2245    13.4943   169.9438 </r>
       <r>    -1.1198    -0.3499   169.9072 </r>
       <r>    -1.0150    13.2747   171.2975 </r>
       <r>    -0.9103    24.9491   173.9105 </r>
       <r>    -0.8056     0.6777   173.9815 </r>
       <r>    -0.7008     6.9774   174.7123 </r>
       <r>    -0.5961    12.3815   176.0090 </r>
       <r>    -0.4914    -0.6237   175.9437 </r>
       <r>    -0.3866     5.1134   176.4793 </r>
       <r>    -0.2819    21.6780   178.7497 </r>
       <r>    -0.1771    23.4907   181.2099 </r>
       <r>    -0.0724     8.1706   182.0657 </r>
       <r>     0.0323    -0.7332   181.9889 </r>
       <r>     0.1371    12.1410   183.2605 </r>
       <r>     0.2418     7.7368   184.0708 </r>
       <r>     0.3465    -0.6131   184.0066 </r>
       <r>     0.4513    -0.0623   184.0000 </r>
       <r>     0.5560    -0.0003   184.0000 </r>
       <r>     0.6607    -0.0000   184.0000 </r>
       <r>     0.7655    -0.0000   184.0000 </r>
       <r>     0.8702     0.0000   184.0000 </r>
       <r>     0.9749     0.0000   184.0000 </r>
       <r>     1.0797     0.0000   184.0000 </r>
       <r>     1.1844     0.0000   184.0000 </r>
       <r>     1.2891     0.0000   184.0000 </r>
       <r>     1.3939     0.0000   184.0000 </r>
       <r>     1.4986     0.0000   184.0000 </r>
       <r>     1.6033     0.0000   184.0000 </r>
      </set>
      <set comment="spin 2">
       <r>   -29.8168     0.0000     0.0000 </r>
       <r>   -29.7121     0.0000     0.0000 </r>
       <r>   -29.6073     0.0000     0.0000 </r>
       <r>   -29.5026     0.0000     0.0000 </r>
       <r>   -29.3979     0.0000     0.0000 </r>
       <r>   -29.2931     0.0000     0.0000 </r>
       <r>   -29.1884    -0.0000    -0.0000 </r>
       <r>   -29.0837    -0.0000    -0.0000 </r>
       <r>   -28.9789    -0.0000    -0.0000 </r>
       <r>   -28.8742    -0.0000    -0.0000 </r>
       <r>   -28.7695    -0.0000    -0.0000 </r>
       <r>   -28.6647    -0.0017    -0.0002 </r>
       <r>   -28.5600    -0.1692    -0.0179 </r>
       <r>   -28.4553    -0.1015    -0.0285 </r>
       <r>   -28.3505    11.9037     1.2182 </r>
       <r>   -28.2458     8.1348     2.0702 </r>
       <r>   -28.1411    -0.6010     2.0072 </r>
       <r>   -28.0363    -0.0688     2.0000 </r>
       <r>   -27.9316    -0.0004     2.0000 </r>
       <r>   -27.8269    -0.0000     2.0000 </r>
       <r>   -27.7221    -0.0000     2.0000 </r>
       <r>   -27.6174     0.0000     2.0000 </r>
       <r>   -27.5127     0.0000     2.0000 </r>
       <r>   -27.4079     0.0000     2.0000 </r>
       <r>   -27.3032     0.0000     2.0000 </r>
       <r>   -27.1985     0.0000     2.0000 </r>
       <r>   -27.0937     0.0000     2.0000 </r>
       <r>   -26.9890     0.0000     2.0000 </r>
       <r>   -26.8843     0.0000     2.0000 </r>
       <r>   -26.7795     0.0000     2.0000 </r>
       <r>   -26.6748     0.0000     2.0000 </r>
       <r>   -26.5701     0.0000     2.0000 </r>
       <r>   -26.4653     0.0000     2.0000 </r>
       <r>   -26.3606     0.0000     2.0000 </r>
       <r>   -26.2559     0.0000     2.0000 </r>
       <r>   -26.1511     0.0000     2.0000 </r>
       <r>   -26.0464     0.0000     2.0000 </r>
       <r>   -25.9417     0.0000     2.0000 </r>
       <r>   -25.8369     0.0000     2.0000 </r>
       <r>   -25.7322     0.0000     2.0000 </r>
       <r>   -25.6275     0.0000     2.0000 </r>
       <r>   -25.5227     0.0000     2.0000 </r>
       <r>   -25.4180     0.0000     2.0000 </r>
       <r>   -25.3133     0.0000     2.0000 </r>
       <r>   -25.2085     0.0000     2.0000 </r>
       <r>   -25.1038     0.0000     2.0000 </r>
       <r>   -24.9991     0.0000     2.0000 </r>
       <r>   -24.8943     0.0000     2.0000 </r>
       <r>   -24.7896     0.0000     2.0000 </r>
       <r>   -24.6848     0.0000     2.0000 </r>
       <r>   -24.5801     0.0000     2.0000 </r>
       <r>   -24.4754     0.0000     2.0000 </r>
       <r>   -24.3706     0.0000     2.0000 </r>
       <r>   -24.2659     0.0000     2.0000 </r>
       <r>   -24.1612     0.0000     2.0000 </r>
       <r>   -24.0564     0.0000     2.0000 </r>
       <r>   -23.9517     0.0000     2.0000 </r>
       <r>   -23.8470     0.0000     2.0000 </r>
       <r>   -23.7422     0.0000     2.0000 </r>
       <r>   -23.6375     0.0000     2.0000 </r>
       <r>   -23.5328     0.0000     2.0000 </r>
       <r>   -23.4280     0.0000     2.0000 </r>
       <r>   -23.3233     0.0000     2.0000 </r>
       <r>   -23.2186     0.0000     2.0000 </r>
       <r>   -23.1138     0.0000     2.0000 </r>
       <r>   -23.0091     0.0000     2.0000 </r>
       <r>   -22.9044     0.0000     2.0000 </r>
       <r>   -22.7996     0.0000     2.0000 </r>
       <r>   -22.6949     0.0000     2.0000 </r>
       <r>   -22.5902     0.0000     2.0000 </r>
       <r>   -22.4854     0.0000     2.0000 </r>
       <r>   -22.3807     0.0000     2.0000 </r>
       <r>   -22.2760     0.0000     2.0000 </r>
       <r>   -22.1712     0.0000     2.0000 </r>
       <r>   -22.0665     0.0000     2.0000 </r>
       <r>   -21.9618     0.0000     2.0000 </r>
       <r>   -21.8570     0.0000     2.0000 </r>
       <r>   -21.7523     0.0000     2.0000 </r>
       <r>   -21.6476     0.0000     2.0000 </r>
       <r>   -21.5428     0.0000     2.0000 </r>
       <r>   -21.4381     0.0000     2.0000 </r>
       <r>   -21.3334     0.0000     2.0000 </r>
       <r>   -21.2286     0.0000     2.0000 </r>
       <r>   -21.1239     0.0000     2.0000 </r>
       <r>   -21.0192     0.0000     2.0000 </r>
       <r>   -20.9144     0.0000     2.0000 </r>
       <r>   -20.8097     0.0000     2.0000 </r>
       <r>   -20.7050     0.0000     2.0000 </r>
       <r>   -20.6002     0.0000     2.0000 </r>
       <r>   -20.4955     0.0000     2.0000 </r>
       <r>   -20.3908     0.0000     2.0000 </r>
       <r>   -20.2860     0.0000     2.0000 </r>
       <r>   -20.1813     0.0000     2.0000 </r>
       <r>   -20.0766     0.0000     2.0000 </r>
       <r>   -19.9718     0.0000     2.0000 </r>
       <r>   -19.8671     0.0000     2.0000 </r>
       <r>   -19.7624     0.0000     2.0000 </r>
       <r>   -19.6576     0.0000     2.0000 </r>
       <r>   -19.5529     0.0000     2.0000 </r>
       <r>   -19.4482     0.0000     2.0000 </r>
       <r>   -19.3434     0.0000     2.0000 </r>
       <r>   -19.2387     0.0000     2.0000 </r>
       <r>   -19.1340     0.0000     2.0000 </r>
       <r>   -19.0292     0.0000     2.0000 </r>
       <r>   -18.9245     0.0000     2.0000 </r>
       <r>   -18.8198     0.0000     2.0000 </r>
       <r>   -18.7150     0.0000     2.0000 </r>
       <r>   -18.6103     0.0000     2.0000 </r>
       <r>   -18.5056     0.0000     2.0000 </r>
       <r>   -18.4008     0.0000     2.0000 </r>
       <r>   -18.2961     0.0000     2.0000 </r>
       <r>   -18.1914     0.0000     2.0000 </r>
       <r>   -18.0866     0.0000     2.0000 </r>
       <r>   -17.9819     0.0000     2.0000 </r>
       <r>   -17.8772     0.0000     2.0000 </r>
       <r>   -17.7724     0.0000     2.0000 </r>
       <r>   -17.6677     0.0000     2.0000 </r>
       <r>   -17.5630     0.0000     2.0000 </r>
       <r>   -17.4582     0.0000     2.0000 </r>
       <r>   -17.3535     0.0000     2.0000 </r>
       <r>   -17.2488     0.0000     2.0000 </r>
       <r>   -17.1440     0.0000     2.0000 </r>
       <r>   -17.0393     0.0000     2.0000 </r>
       <r>   -16.9346     0.0000     2.0000 </r>
       <r>   -16.8298     0.0000     2.0000 </r>
       <r>   -16.7251     0.0000     2.0000 </r>
       <r>   -16.6203     0.0000     2.0000 </r>
       <r>   -16.5156     0.0000     2.0000 </r>
       <r>   -16.4109     0.0000     2.0000 </r>
       <r>   -16.3061     0.0000     2.0000 </r>
       <r>   -16.2014     0.0000     2.0000 </r>
       <r>   -16.0967     0.0000     2.0000 </r>
       <r>   -15.9919     0.0000     2.0000 </r>
       <r>   -15.8872     0.0000     2.0000 </r>
       <r>   -15.7825     0.0000     2.0000 </r>
       <r>   -15.6777     0.0000     2.0000 </r>
       <r>   -15.5730     0.0000     2.0000 </r>
       <r>   -15.4683     0.0000     2.0000 </r>
       <r>   -15.3635     0.0000     2.0000 </r>
       <r>   -15.2588     0.0000     2.0000 </r>
       <r>   -15.1541     0.0000     2.0000 </r>
       <r>   -15.0493     0.0000     2.0000 </r>
       <r>   -14.9446     0.0000     2.0000 </r>
       <r>   -14.8399     0.0000     2.0000 </r>
       <r>   -14.7351     0.0000     2.0000 </r>
       <r>   -14.6304    -0.0000     2.0000 </r>
       <r>   -14.5257    -0.0000     2.0000 </r>
       <r>   -14.4209    -0.0000     2.0000 </r>
       <r>   -14.3162    -0.0000     2.0000 </r>
       <r>   -14.2115    -0.0000     2.0000 </r>
       <r>   -14.1067    -0.0000     2.0000 </r>
       <r>   -14.0020    -0.0101     1.9989 </r>
       <r>   -13.8973    -0.4115     1.9558 </r>
       <r>   -13.7925     2.1777     2.1839 </r>
       <r>   -13.6878    14.5722     3.7101 </r>
       <r>   -13.5831     3.2780     4.0534 </r>
       <r>   -13.4783    -0.4941     4.0017 </r>
       <r>   -13.3736    -0.0162     4.0000 </r>
       <r>   -13.2689    -0.0000     4.0000 </r>
       <r>   -13.1641    -0.0000     4.0000 </r>
       <r>   -13.0594    -0.0000     4.0000 </r>
       <r>   -12.9547     0.0000     4.0000 </r>
       <r>   -12.8499     0.0000     4.0000 </r>
       <r>   -12.7452     0.0000     4.0000 </r>
       <r>   -12.6405     0.0000     4.0000 </r>
       <r>   -12.5357     0.0000     4.0000 </r>
       <r>   -12.4310     0.0000     4.0000 </r>
       <r>   -12.3263     0.0000     4.0000 </r>
       <r>   -12.2215     0.0000     4.0000 </r>
       <r>   -12.1168    -0.0000     4.0000 </r>
       <r>   -12.0121    -0.0000     4.0000 </r>
       <r>   -11.9073    -0.0000     4.0000 </r>
       <r>   -11.8026    -0.0000     4.0000 </r>
       <r>   -11.6979    -0.0000     4.0000 </r>
       <r>   -11.5931    -0.0001     4.0000 </r>
       <r>   -11.4884    -0.0253     3.9973 </r>
       <r>   -11.3837    -0.5657     3.9381 </r>
       <r>   -11.2789     4.4866     4.4080 </r>
       <r>   -11.1742    13.5798     5.8303 </r>
       <r>   -11.0695     7.4663     6.6122 </r>
       <r>   -10.9647    12.7698     7.9497 </r>
       <r>   -10.8600    12.2416     9.2318 </r>
       <r>   -10.7553     8.0059    10.0703 </r>
       <r>   -10.6505    -0.5999    10.0074 </r>
       <r>   -10.5458    -0.0707    10.0000 </r>
       <r>   -10.4411    -0.0016     9.9999 </r>
       <r>   -10.3363    -0.1433     9.9849 </r>
       <r>   -10.2316    -0.2691     9.9567 </r>
       <r>   -10.1269    11.2158    11.1313 </r>
       <r>   -10.0221     8.9378    12.0674 </r>
       <r>    -9.9174    -0.5598    12.0088 </r>
       <r>    -9.8127    -0.0836    12.0001 </r>
       <r>    -9.7079    -0.0005    12.0000 </r>
       <r>    -9.6032    -0.0000    12.0000 </r>
       <r>    -9.4985    -0.0000    12.0000 </r>
       <r>    -9.3937    -0.0000    12.0000 </r>
       <r>    -9.2890    -0.0000    12.0000 </r>
       <r>    -9.1843    -0.0000    12.0000 </r>
       <r>    -9.0795    -0.0000    12.0000 </r>
       <r>    -8.9748    -0.0001    12.0000 </r>
       <r>    -8.8701    -0.0398    11.9958 </r>
       <r>    -8.7653    -0.6158    11.9313 </r>
       <r>    -8.6606     6.0382    12.5637 </r>
       <r>    -8.5559    13.4178    13.9690 </r>
       <r>    -8.4511     0.4822    14.0195 </r>
       <r>    -8.3464    -0.8517    13.9303 </r>
       <r>    -8.2416     8.1892    14.7880 </r>
       <r>    -8.1369    11.8560    16.0297 </r>
       <r>    -8.0322    -0.1162    16.0176 </r>
       <r>    -7.9274    -0.3174    15.9843 </r>
       <r>    -7.8227    -0.5575    15.9259 </r>
       <r>    -7.7180    12.2158    17.2053 </r>
       <r>    -7.6132    22.1936    19.5298 </r>
       <r>    -7.5085     7.6103    20.3268 </r>
       <r>    -7.4038    22.6509    22.6991 </r>
       <r>    -7.2990    18.0740    24.5921 </r>
       <r>    -7.1943    19.3240    26.6159 </r>
       <r>    -7.0896    17.7106    28.4708 </r>
       <r>    -6.9848    17.3230    30.2851 </r>
       <r>    -6.8801    25.7470    32.9817 </r>
       <r>    -6.7754    39.5317    37.1220 </r>
       <r>    -6.6706    28.4341    40.1000 </r>
       <r>    -6.5659    30.2925    43.2727 </r>
       <r>    -6.4612    42.5307    47.7271 </r>
       <r>    -6.3564    39.1446    51.8268 </r>
       <r>    -6.2517    37.1511    55.7178 </r>
       <r>    -6.1470    43.1437    60.2364 </r>
       <r>    -6.0422    47.4221    65.2031 </r>
       <r>    -5.9375    32.8676    68.6455 </r>
       <r>    -5.8328    14.3206    70.1453 </r>
       <r>    -5.7280    25.4419    72.8099 </r>
       <r>    -5.6233    51.5502    78.2090 </r>
       <r>    -5.5186    56.5730    84.1341 </r>
       <r>    -5.4138    53.0289    89.6880 </r>
       <r>    -5.3091    81.4632    98.2200 </r>
       <r>    -5.2044    88.6029   107.4997 </r>
       <r>    -5.0996    87.8219   116.6976 </r>
       <r>    -4.9949    66.6652   123.6797 </r>
       <r>    -4.8902    77.5335   131.8001 </r>
       <r>    -4.7854    79.8253   140.1605 </r>
       <r>    -4.6807    49.6684   145.3624 </r>
       <r>    -4.5760    11.7638   146.5945 </r>
       <r>    -4.4712    12.7116   147.9258 </r>
       <r>    -4.3665     0.9699   148.0274 </r>
       <r>    -4.2618    -1.3721   147.8837 </r>
       <r>    -4.1570     8.7566   148.8008 </r>
       <r>    -4.0523    27.9447   151.7276 </r>
       <r>    -3.9476     3.3272   152.0760 </r>
       <r>    -3.8428    -0.7091   152.0018 </r>
       <r>    -3.7381    -0.0169   152.0000 </r>
       <r>    -3.6334    -0.0000   152.0000 </r>
       <r>    -3.5286    -0.0037   151.9996 </r>
       <r>    -3.4239    -0.2578   151.9726 </r>
       <r>    -3.3192     0.5929   152.0347 </r>
       <r>    -3.2144    13.3613   153.4341 </r>
       <r>    -3.1097     5.4697   154.0070 </r>
       <r>    -3.0050     9.1956   154.9700 </r>
       <r>    -2.9002    17.2822   156.7801 </r>
       <r>    -2.7955    11.8929   158.0257 </r>
       <r>    -2.6908    -0.0684   158.0185 </r>
       <r>    -2.5860    -0.6913   157.9461 </r>
       <r>    -2.4813     3.3644   158.2985 </r>
       <r>    -2.3766    14.4347   159.8103 </r>
       <r>    -2.2718     1.7135   159.9897 </r>
       <r>    -2.1671    10.0991   161.0474 </r>
       <r>    -2.0624     9.0523   161.9955 </r>
       <r>    -1.9576     4.9738   162.5164 </r>
       <r>    -1.8529    12.8744   163.8648 </r>
       <r>    -1.7482    12.6142   165.1860 </r>
       <r>    -1.6434    23.4513   167.6421 </r>
       <r>    -1.5387     4.1108   168.0726 </r>
       <r>    -1.4340    -0.6866   168.0007 </r>
       <r>    -1.3292    -0.5535   167.9428 </r>
       <r>    -1.2245     3.7857   168.3393 </r>
       <r>    -1.1198    14.0075   169.8063 </r>
       <r>    -1.0150     4.1427   170.2402 </r>
       <r>    -0.9103    14.6641   171.7760 </r>
       <r>    -0.8056    15.9159   173.4430 </r>
       <r>    -0.7008     5.3490   174.0032 </r>
       <r>    -0.5961     8.2172   174.8638 </r>
       <r>    -0.4914    11.1479   176.0314 </r>
       <r>    -0.3866    -1.0881   175.9174 </r>
       <r>    -0.2819    10.2250   176.9883 </r>
       <r>    -0.1771    25.0649   179.6134 </r>
       <r>    -0.0724    17.3613   181.4318 </r>
       <r>     0.0323     5.5412   182.0121 </r>
       <r>     0.1371     3.7941   182.4095 </r>
       <r>     0.2418    14.1865   183.8953 </r>
       <r>     0.3465     1.3427   184.0359 </r>
       <r>     0.4513    -0.3364   184.0007 </r>
       <r>     0.5560    -0.0064   184.0000 </r>
       <r>     0.6607    -0.0000   184.0000 </r>
       <r>     0.7655    -0.0000   184.0000 </r>
       <r>     0.8702    -0.0000   184.0000 </r>
       <r>     0.9749     0.0000   184.0000 </r>
       <r>     1.0797     0.0000   184.0000 </r>
       <r>     1.1844     0.0000   184.0000 </r>
       <r>     1.2891     0.0000   184.0000 </r>
       <r>     1.3939     0.0000   184.0000 </r>
       <r>     1.4986     0.0000   184.0000 </r>
       <r>     1.6033     0.0000   184.0000 </r>
      </set>
     </set>
    </array>
   </total>
  </dos>
 </calculation>
 <structure name="finalpos" >
  <crystal>
   <varray name="basis" >
    <v>      15.00000000       0.00000000       0.00000000 </v>
    <v>       0.00000000      15.00000000       0.00000000 </v>
    <v>       0.00000000       0.00000000      15.00000000 </v>
   </varray>
   <i name="volume">   3375.00000000 </i>
   <varray name="rec_basis" >
    <v>       0.06666667       0.00000000       0.00000000 </v>
    <v>       0.00000000       0.06666667       0.00000000 </v>
    <v>       0.00000000       0.00000000       0.06666667 </v>
   </varray>
  </crystal>
  <varray name="positions" >
   <v>       0.29374400       0.42465800       0.54782200 </v>
   <v>       0.37474467       0.55308667       0.48606733 </v>
   <v>       0.39347933       0.28716200       0.56396067 </v>
   <v>       0.53295133       0.50561600       0.48378267 </v>
   <v>       0.54981400       0.34545667       0.53335400 </v>
   <v>       0.45331933       0.43492733       0.61269533 </v>
   <v>       0.41476733       0.40072333       0.44859933 </v>
   <v>       0.22715467       0.57772000       0.54883267 </v>
   <v>       0.33865467       0.54038333       0.65500000 </v>
   <v>       0.35663867       0.68080667       0.57956333 </v>
   <v>       0.48840000       0.66508533       0.47103333 </v>
   <v>       0.61038400       0.47658600       0.61663533 </v>
   <v>       0.48813267       0.59066400       0.61224467 </v>
   <v>       0.72984000       0.48942733       0.63888867 </v>
   <v>       0.80362000       0.51189867       0.63676800 </v>
  </varray>
 </structure>
</modeling>
