 vasp.5.4.4.18Apr17-6-g9f103f2a35 (build May 08 2019 13:49:07) complex          
  
 executed on             LinuxIFC date 2019.11.13  12:02:10
 running on   24 total cores
 distrk:  each k-point on   24 cores,    1 groups
 distr:  one band on NCORES_PER_BAND=   6 cores,    4 groups


--------------------------------------------------------------------------------------------------------


 INCAR:
 POTCAR:    PAW_PBE Cu 22Jun2005                  
 POTCAR:    PAW_PBE C 08Apr2002                   
 POTCAR:    PAW_PBE O 08Apr2002                   
 POTCAR:    PAW_PBE Cu 22Jun2005                  
   VRHFIN =Cu: d10 p1                                                           
   LEXCH  = PE                                                                  
   EATOM  =  1390.9808 eV,  102.2342 Ry                                         
                                                                                
   TITEL  = PAW_PBE Cu 22Jun2005                                                
   LULTRA =        F    use ultrasoft PP ?                                      
   IUNSCR =        1    unscreen: 0-lin 1-nonlin 2-no                           
   RPACOR =    2.000    partial core radius                                     
   POMASS =   63.546; ZVAL   =   11.000    mass and valenz                      
   RCORE  =    2.300    outmost cutoff radius                                   
   RWIGS  =    2.200; RWIGS  =    1.164    wigner-seitz radius (au A)           
   ENMAX  =  295.446; ENMIN  =  221.585 eV                                      
   ICORE  =        3    local potential                                         
   LCOR   =        T    correct aug charges                                     
   LPAW   =        T    paw PP                                                  
   EAUG   =  586.980                                                            
   DEXC   =    0.000                                                            
   RMAX   =    2.344    core radius for proj-oper                               
   RAUG   =    1.300    factor for augmentation sphere                          
   RDEP   =    2.302    radius for radial grids                                 
   RDEPT  =    1.771    core radius for aug-charge                              
                                                                                
   Atomic configuration                                                         
    9 entries                                                                   
     n  l   j            E        occ.                                          
     1  0  0.50     -8850.2468   2.0000                                         
     2  0  0.50     -1062.3498   2.0000                                         
     2  1  1.50      -916.8226   6.0000                                         
     3  0  0.50      -114.6929   2.0000                                         
     3  1  1.50       -72.1325   6.0000                                         
     3  2  2.50        -5.0394  10.0000                                         
     4  0  0.50        -4.6097   1.0000                                         
     4  1  0.50        -4.0817   0.0000                                         
     4  3  2.50        -1.3606   0.0000                                         
   Description                                                                  
     l       E           TYP  RCUT    TYP  RCUT                                 
     2     -5.0393973     23  2.200                                             
     2     10.8846608     23  2.200                                             
     0     -4.6097109     23  2.200                                             
     0      8.2520465     23  2.200                                             
     1     -2.7211652     23  2.200                                             
     1     21.7055443     23  2.200                                             
     3      2.7211652     23  2.300                                             
  local pseudopotential read in
  partial core-charges read in
  partial kinetic energy density read in
  atomic valenz-charges read in
  non local Contribution for L=           2  read in
    real space projection operators read in
  non local Contribution for L=           2  read in
    real space projection operators read in
  non local Contribution for L=           0  read in
    real space projection operators read in
  non local Contribution for L=           0  read in
    real space projection operators read in
  non local Contribution for L=           1  read in
    real space projection operators read in
  non local Contribution for L=           1  read in
    real space projection operators read in
    PAW grid and wavefunctions read in
 
   number of l-projection  operators is LMAX  =           6
   number of lm-projection operators is LMMAX =          18
 
 POTCAR:    PAW_PBE C 08Apr2002                   
   VRHFIN =C: s2p2                                                              
   LEXCH  = PE                                                                  
   EATOM  =   147.1560 eV,   10.8157 Ry                                         
                                                                                
   TITEL  = PAW_PBE C 08Apr2002                                                 
   LULTRA =        F    use ultrasoft PP ?                                      
   IUNSCR =        1    unscreen: 0-lin 1-nonlin 2-no                           
   RPACOR =    1.200    partial core radius                                     
   POMASS =   12.011; ZVAL   =    4.000    mass and valenz                      
   RCORE  =    1.500    outmost cutoff radius                                   
   RWIGS  =    1.630; RWIGS  =    0.863    wigner-seitz radius (au A)           
   ENMAX  =  400.000; ENMIN  =  300.000 eV                                      
   ICORE  =        2    local potential                                         
   LCOR   =        T    correct aug charges                                     
   LPAW   =        T    paw PP                                                  
   EAUG   =  644.873                                                            
   DEXC   =    0.000                                                            
   RMAX   =    1.529    core radius for proj-oper                               
   RAUG   =    1.300    factor for augmentation sphere                          
   RDEP   =    1.501    radius for radial grids                                 
   RDEPT  =    1.300    core radius for aug-charge                              
                                                                                
   Atomic configuration                                                         
    4 entries                                                                   
     n  l   j            E        occ.                                          
     1  0  0.50      -273.3789   2.0000                                         
     2  0  0.50       -13.7508   2.0000                                         
     2  1  0.50        -5.2854   2.0000                                         
     3  2  1.50        -5.4423   0.0000                                         
   Description                                                                  
     l       E           TYP  RCUT    TYP  RCUT                                 
     0    -13.7508458     23  1.200                                             
     0     -8.2022199     23  1.200                                             
     1     -5.2854383     23  1.500                                             
     1     34.0145650     23  1.500                                             
     2     -5.4423304      7  1.500                                             
  local pseudopotential read in
  partial core-charges read in
  partial kinetic energy density read in
  atomic valenz-charges read in
  non local Contribution for L=           0  read in
    real space projection operators read in
  non local Contribution for L=           0  read in
    real space projection operators read in
  non local Contribution for L=           1  read in
    real space projection operators read in
  non local Contribution for L=           1  read in
    real space projection operators read in
    PAW grid and wavefunctions read in
 
   number of l-projection  operators is LMAX  =           4
   number of lm-projection operators is LMMAX =           8
 
 POTCAR:    PAW_PBE O 08Apr2002                   
   VRHFIN =O: s2p4                                                              
   LEXCH  = PE                                                                  
   EATOM  =   432.3788 eV,   31.7789 Ry                                         
                                                                                
   TITEL  = PAW_PBE O 08Apr2002                                                 
   LULTRA =        F    use ultrasoft PP ?                                      
   IUNSCR =        1    unscreen: 0-lin 1-nonlin 2-no                           
   RPACOR =    1.200    partial core radius                                     
   POMASS =   16.000; ZVAL   =    6.000    mass and valenz                      
   RCORE  =    1.520    outmost cutoff radius                                   
   RWIGS  =    1.550; RWIGS  =    0.820    wigner-seitz radius (au A)           
   ENMAX  =  400.000; ENMIN  =  300.000 eV                                      
   ICORE  =        2    local potential                                         
   LCOR   =        T    correct aug charges                                     
   LPAW   =        T    paw PP                                                  
   EAUG   =  605.392                                                            
   DEXC   =    0.000                                                            
   RMAX   =    1.553    core radius for proj-oper                               
   RAUG   =    1.300    factor for augmentation sphere                          
   RDEP   =    1.550    radius for radial grids                                 
   RDEPT  =    1.329    core radius for aug-charge                              
                                                                                
   Atomic configuration                                                         
    4 entries                                                                   
     n  l   j            E        occ.                                          
     1  0  0.50      -514.6923   2.0000                                         
     2  0  0.50       -23.9615   2.0000                                         
     2  1  0.50        -9.0305   4.0000                                         
     3  2  1.50        -9.5241   0.0000                                         
   Description                                                                  
     l       E           TYP  RCUT    TYP  RCUT                                 
     0    -23.9615318     23  1.200                                             
     0     -9.5240782     23  1.200                                             
     1     -9.0304911     23  1.520                                             
     1      8.1634956     23  1.520                                             
     2     -9.5240782      7  1.500                                             
  local pseudopotential read in
  partial core-charges read in
  partial kinetic energy density read in
  kinetic energy density of atom read in
  atomic valenz-charges read in
  non local Contribution for L=           0  read in
    real space projection operators read in
  non local Contribution for L=           0  read in
    real space projection operators read in
  non local Contribution for L=           1  read in
    real space projection operators read in
  non local Contribution for L=           1  read in
    real space projection operators read in
    PAW grid and wavefunctions read in
 
   number of l-projection  operators is LMAX  =           4
   number of lm-projection operators is LMMAX =           8
 
  PAW_PBE Cu 22Jun2005                  :
 energy of atom  1       EATOM=-1390.9808
 kinetic energy error for atom=    0.0033 (will be added to EATOM!!)
  PAW_PBE C 08Apr2002                   :
 energy of atom  2       EATOM= -147.1560
 kinetic energy error for atom=    0.0057 (will be added to EATOM!!)
  PAW_PBE O 08Apr2002                   :
 energy of atom  3       EATOM= -432.3788
 kinetic energy error for atom=    0.0168 (will be added to EATOM!!)
 
 
 POSCAR: Cu13 C1 O1                              
  positions in cartesian coordinates
  No initial velocities read in
 exchange correlation table for  LEXCH =        8
   RHO(1)=    0.500       N(1)  =     2000
   RHO(2)=  100.500       N(2)  =     4000
 


--------------------------------------------------------------------------------------------------------


 ion  position               nearest neighbor table
   1  0.293  0.419  0.555-   2 2.42   3 2.44   8 2.44   7 2.52   6 2.54   9 2.56
   2  0.371  0.544  0.489-   8 2.37   7 2.39  10 2.40   1 2.42  11 2.51   4 2.52  13 2.59   9 2.66
                             6 2.74
   3  0.395  0.292  0.561-   7 2.36   1 2.44   5 2.48   6 2.48
   4  0.534  0.503  0.481-  12 2.31   7 2.38   5 2.48   2 2.52  11 2.52  13 2.55   6 2.59
   5  0.548  0.347  0.533-   6 2.37   7 2.45   3 2.48   4 2.48  12 2.63
   6  0.449  0.438  0.616-   5 2.37  13 2.42   9 2.47   3 2.48   1 2.54   4 2.59   7 2.65   2 2.74

   7  0.419  0.399  0.447-   3 2.36   4 2.38   2 2.39   5 2.45   1 2.52   6 2.65
   8  0.228  0.569  0.553-   9 2.29   2 2.37   1 2.44  10 2.51
   9  0.333  0.545  0.662-   8 2.29  13 2.46   6 2.47  10 2.48   1 2.56   2 2.66
  10  0.351  0.681  0.570-  13 2.39   2 2.40   9 2.48  11 2.49   8 2.51
  11  0.486  0.664  0.474-  13 2.31  10 2.49   2 2.51   4 2.52
  12  0.632  0.487  0.598-  14 1.78   4 2.31   5 2.63
  13  0.480  0.597  0.612-  11 2.31  10 2.39   6 2.42   9 2.46   4 2.55   2 2.59
  14  0.739  0.496  0.649-  15 1.20  12 1.78
  15  0.817  0.503  0.660-  14 1.20
 

IMPORTANT INFORMATION: All symmetrisations will be switched off!
NOSYMM: (Re-)initialisation of all symmetry stuff for point group C_1.

 
 

Automatic generation of k-mesh.
 generate k-points for:    1    1    1
Space group operators:
 irot       det(A)        alpha          n_x          n_y          n_z        tau_x        tau_y        tau_z
    1     1.000000     0.000000     1.000000     0.000000     0.000000     0.000000     0.000000     0.000000
 
 Subroutine IBZKPT returns following result:
 ===========================================
 
 Found      1 irreducible k-points:
 
 Following reciprocal coordinates:
            Coordinates               Weight
  0.000000  0.000000  0.000000      1.000000
 
 Following cartesian coordinates:
            Coordinates               Weight
  0.000000  0.000000  0.000000      1.000000
 


--------------------------------------------------------------------------------------------------------




 Dimension of arrays:
   k-points           NKPTS =      1   k-points in BZ     NKDIM =      1   number of bands    NBANDS=     92
   number of dos      NEDOS =    301   number of ions     NIONS =     15
   non local maximal  LDIM  =      6   non local SUM 2l+1 LMDIM =     18
   total plane-waves  NPLWV = ******
   max r-space proj   IRMAX =      1   max aug-charges    IRDMAX=  15028
   dimension x,y,z NGX =   120 NGY =  120 NGZ =  120
   dimension x,y,z NGXF=   240 NGYF=  240 NGZF=  240
   support grid    NGXF=   240 NGYF=  240 NGZF=  240
   ions per type =              13   1   1
   NGX,Y,Z   is equivalent  to a cutoff of  13.30, 13.30, 13.30 a.u.
   NGXF,Y,Z  is equivalent  to a cutoff of  26.60, 26.60, 26.60 a.u.

 SYSTEM =  CuCO                                    
 POSCAR =  Cu13 C1 O1                              

 Startparameter for this run:
   NWRITE =      2    write-flag & timer
   PREC   = accura    normal or accurate (medium, high low for compatibility)
   ISTART =      0    job   : 0-new  1-cont  2-samecut
   ICHARG =      2    charge: 1-file 2-atom 10-const
   ISPIN  =      2    spin polarized calculation?
   LNONCOLLINEAR =      F non collinear calculations
   LSORBIT =      F    spin-orbit coupling
   INIWAV =      1    electr: 0-lowe 1-rand  2-diag
   LASPH  =      F    aspherical Exc in radial PAW
   METAGGA=      F    non-selfconsistent MetaGGA calc.

 Electronic Relaxation 1
   ENCUT  =  600.0 eV  44.10 Ry    6.64 a.u.  29.96 29.96 29.96*2*pi/ulx,y,z
   ENINI  =  600.0     initial cutoff
   ENAUG  =  644.9 eV  augmentation charge cutoff
   NELM   =    300;   NELMIN=  3; NELMDL= -5     # of ELM steps 
   EDIFF  = 0.1E-06   stopping-criterion for ELM
   LREAL  =      F    real-space projection
   NLSPLINE    = F    spline interpolate recip. space projectors
   LCOMPAT=      F    compatible to vasp.4.4
   GGA_COMPAT  = T    GGA compatible to vasp.4.4-vasp.4.6
   LMAXPAW     = -100 max onsite density
   LMAXMIX     =    2 max onsite mixed and CHGCAR
   VOSKOWN=      0    Vosko Wilk Nusair interpolation
   ROPT   =    0.00000   0.00000   0.00000
 Ionic relaxation
   EDIFFG = -.1E-02   stopping-criterion for IOM
   NSW    =      0    number of steps for IOM
   NBLOCK =      1;   KBLOCK =      1    inner block; outer block 
   IBRION =     -1    ionic relax: 0-MD 1-quasi-New 2-CG
   NFREE  =      0    steps in history (QN), initial steepest desc. (CG)
   ISIF   =      2    stress and relaxation
   IWAVPR =     10    prediction:  0-non 1-charg 2-wave 3-comb
   ISYM   =      0    0-nonsym 1-usesym 2-fastsym
   LCORR  =      T    Harris-Foulkes like correction to forces

   POTIM  = 0.5000    time-step for ionic-motion
   TEIN   =    0.0    initial temperature
   TEBEG  =    0.0;   TEEND  =   0.0 temperature during run
   SMASS  =  -3.00    Nose mass-parameter (am)
   estimated Nose-frequenzy (Omega)   =  0.10E-29 period in steps =****** mass=  -0.514E-26a.u.
   SCALEE = 1.0000    scale energy and forces
   NPACO  =    256;   APACO  = 16.0  distance and # of slots for P.C.
   PSTRESS=    0.0 pullay stress

  Mass of Ions in am
   POMASS =  63.55 12.01 16.00
  Ionic Valenz
   ZVAL   =  11.00  4.00  6.00
  Atomic Wigner-Seitz radii
   RWIGS  =  -1.00 -1.00 -1.00
  virtual crystal weights 
   VCA    =   1.00  1.00  1.00
   NELECT =     153.0000    total number of electrons
   NUPDOWN=       1.0000    fix difference up-down

 DOS related values:
   EMIN   =  10.00;   EMAX   =-10.00  energy-range for DOS
   EFERMI =   0.00
   ISMEAR =     1;   SIGMA  =   0.10  broadening in eV -4-tet -1-fermi 0-gaus

 Electronic relaxation 2 (details)
   IALGO  =     68    algorithm
   LDIAG  =      T    sub-space diagonalisation (order eigenvalues)
   LSUBROT=      F    optimize rotation matrix (better conditioning)
   TURBO    =      0    0=normal 1=particle mesh
   IRESTART =      0    0=no restart 2=restart with 2 vectors
   NREBOOT  =      0    no. of reboots
   NMIN     =      0    reboot dimension
   EREF     =   0.00    reference energy to select bands
   IMIX   =      4    mixing-type and parameters
     AMIX     =   0.40;   BMIX     =  1.00
     AMIX_MAG =   1.60;   BMIX_MAG =  1.00
     AMIN     =   0.10
     WC   =   100.;   INIMIX=   1;  MIXPRE=   1;  MAXMIX= -45

 Intra band minimization:
   WEIMIN = 0.0000     energy-eigenvalue tresh-hold
   EBREAK =  0.27E-09  absolut break condition
   DEPER  =   0.30     relativ break condition  

   TIME   =   0.40     timestep for ELM

  volume/ion in A,a.u.               =     225.00      1518.37
  Fermi-wavevector in a.u.,A,eV,Ry     =   0.583733  1.103095  4.636102  0.340744
  Thomas-Fermi vector in A             =   1.629149
 
 Write flags
   LWAVE        =      F    write WAVECAR
   LDOWNSAMPLE  =      F    k-point downsampling of WAVECAR
   LCHARG       =      F    write CHGCAR
   LVTOT        =      F    write LOCPOT, total local potential
   LVHAR        =      F    write LOCPOT, Hartree potential only
   LELF         =      F    write electronic localiz. function (ELF)
   LORBIT       =      0    0 simple, 1 ext, 2 COOP (PROOUT), +10 PAW based schemes


 Dipole corrections
   LMONO  =      F    monopole corrections only (constant potential shift)
   LDIPOL =      F    correct potential (dipole corrections)
   IDIPOL =      0    1-x, 2-y, 3-z, 4-all directions 
   EPSILON=  1.0000000 bulk dielectric constant

 Exchange correlation treatment:
   GGA     =    PE    GGA type
   LEXCH   =     8    internal setting for exchange type
   VOSKOWN=      0    Vosko Wilk Nusair interpolation
   LHFCALC =     F    Hartree Fock is set to
   LHFONE  =     F    Hartree Fock one center treatment
   AEXX    =    0.0000 exact exchange contribution

 Linear response parameters
   LEPSILON=     F    determine dielectric tensor
   LRPA    =     F    only Hartree local field effects (RPA)
   LNABLA  =     F    use nabla operator in PAW spheres
   LVEL    =     F    velocity operator in full k-point grid
   LINTERFAST=   F  fast interpolation
   KINTER  =     0    interpolate to denser k-point grid
   CSHIFT  =0.1000    complex shift for real part using Kramers Kronig
   OMEGAMAX=  -1.0    maximum frequency
   DEG_THRESHOLD= 0.2000000E-02 threshold for treating states as degnerate
   RTIME   =   -0.100 relaxation time in fs
  (WPLASMAI=    0.000 imaginary part of plasma frequency in eV, 0.658/RTIME)
   DFIELD  = 0.0000000 0.0000000 0.0000000 field for delta impulse in time
 
 Orbital magnetization related:
   ORBITALMAG=     F  switch on orbital magnetization
   LCHIMAG   =     F  perturbation theory with respect to B field
   DQ        =  0.001000  dq finite difference perturbation B field
   LLRAUG    =     F  two centre corrections for induced B field



--------------------------------------------------------------------------------------------------------


 Static calculation
 charge density and potential will be updated during run
 spin polarized calculation
 RMM-DIIS sequential band-by-band and
  variant of blocked Davidson during initial phase
 perform sub-space diagonalisation
    before iterative eigenvector-optimisation
 modified Broyden-mixing scheme, WC =      100.0
 initial mixing is a Kerker type mixing with AMIX =  0.4000 and BMIX =      1.0000
 Hartree-type preconditioning will be used
 using additional bands           15
 reciprocal scheme for non local part
 use partial core corrections
 calculate Harris-corrections to forces 
   (improved forces if not selfconsistent)
 use gradient corrections 
 use of overlap-Matrix (Vanderbilt PP)
 Methfessel and Paxton  Order N= 1 SIGMA  =   0.10


--------------------------------------------------------------------------------------------------------


  energy-cutoff  :      600.00
  volume of cell :     3375.00
      direct lattice vectors                 reciprocal lattice vectors
    15.000000000  0.000000000  0.000000000     0.066666667  0.000000000  0.000000000
     0.000000000 15.000000000  0.000000000     0.000000000  0.066666667  0.000000000
     0.000000000  0.000000000 15.000000000     0.000000000  0.000000000  0.066666667

  length of vectors
    15.000000000 15.000000000 15.000000000     0.066666667  0.066666667  0.066666667


 
 k-points in units of 2pi/SCALE and weight: read from INCAR                         
   0.00000000  0.00000000  0.00000000       1.000
 
 k-points in reciprocal lattice and weights: read from INCAR                         
   0.00000000  0.00000000  0.00000000       1.000
 
 position of ions in fractional coordinates (direct lattice) 
   0.29261267  0.41886867  0.55465133
   0.37075800  0.54397067  0.48919733
   0.39463200  0.29222400  0.56058600
   0.53352200  0.50324533  0.48062600
   0.54787667  0.34699533  0.53326200
   0.44887333  0.43812200  0.61622600
   0.41948200  0.39851333  0.44683933
   0.22843267  0.56851000  0.55326200
   0.33252400  0.54498000  0.66221733
   0.35100800  0.68074667  0.57028133
   0.48566600  0.66444000  0.47420333
   0.63179933  0.48675600  0.59817333
   0.47983200  0.59658200  0.61230533
   0.73879333  0.49608867  0.64879267
   0.81741333  0.50263133  0.66015333
 
 position of ions in cartesian coordinates  (Angst):
   4.38919000  6.28303000  8.31977000
   5.56137000  8.15956000  7.33796000
   5.91948000  4.38336000  8.40879000
   8.00283000  7.54868000  7.20939000
   8.21815000  5.20493000  7.99893000
   6.73310000  6.57183000  9.24339000
   6.29223000  5.97770000  6.70259000
   3.42649000  8.52765000  8.29893000
   4.98786000  8.17470000  9.93326000
   5.26512000 10.21120000  8.55422000
   7.28499000  9.96660000  7.11305000
   9.47699000  7.30134000  8.97260000
   7.19748000  8.94873000  9.18458000
  11.08190000  7.44133000  9.73189000
  12.26120000  7.53947000  9.90230000
 


--------------------------------------------------------------------------------------------------------


 k-point  1 :   0.0000 0.0000 0.0000  plane waves:  112451

 maximum and minimum number of plane-waves per node :     18753    18726

 maximum number of plane-waves:    112451
 maximum index in each direction: 
   IXMAX=   29   IYMAX=   29   IZMAX=   29
   IXMIN=  -29   IYMIN=  -29   IZMIN=  -29


 parallel 3D FFT for wavefunctions:
    minimum data exchange during FFTs selected (reduces bandwidth)
 parallel 3D FFT for charge:
    minimum data exchange during FFTs selected (reduces bandwidth)


 total amount of memory used by VASP MPI-rank0   158680. kBytes
=======================================================================

   base      :      30000. kBytes
   nonl-proj :      12601. kBytes
   fftplans  :      27994. kBytes
   grid      :      74150. kBytes
   one-center:         93. kBytes
   wavefun   :      13842. kBytes
 
     INWAV:  cpu time    0.0000: real time    0.0003
 Broyden mixing: mesh for mixing (old mesh)
   NGX = 59   NGY = 59   NGZ = 59
  (NGX  =240   NGY  =240   NGZ  =240)
  gives a total of 205379 points

 initial charge density was supplied:
 charge density of overlapping atoms calculated
 number of electron     153.0000000 magnetization       1.0000000
 keeping initial charge density in first step


--------------------------------------------------------------------------------------------------------


 Maximum index for augmentation-charges          707 (set IRDMAX)


--------------------------------------------------------------------------------------------------------


 First call to EWALD:  gamma=   0.118
 Maximum number of real-space cells 3x 3x 3
 Maximum number of reciprocal cells 3x 3x 3

    FEWALD:  cpu time    0.0015: real time    0.0018


--------------------------------------- Iteration      1(   1)  ---------------------------------------


    POTLOK:  cpu time    1.1496: real time    1.1525
    SETDIJ:  cpu time    0.0168: real time    0.0171
     EDDAV:  cpu time    7.5015: real time    7.5130
       DOS:  cpu time    0.0010: real time    0.0010
    --------------------------------------------
      LOOP:  cpu time    8.6690: real time    8.6836

 eigenvalue-minimisations  :   376
 total energy-change (2. order) : 0.1117006E+04  (-0.4463509E+04)
 number of electron     153.0000000 magnetization       1.0000000
 augmentation part      153.0000000 magnetization       1.0000000

 Free energy of the ion-electron system (eV)
  ---------------------------------------------------
  alpha Z        PSCENC =        41.16232785
  Ewald energy   TEWEN  =     16350.66746661
  -Hartree energ DENC   =    -33374.31922643
  -exchange      EXHF   =         0.00000000
  -V(xc)+E(xc)   XCENC  =       623.44288618
  PAW double counting   =     16421.75059358   -17800.06104309
  entropy T*S    EENTRO =        -0.02732445
  eigenvalues    EBANDS =       192.17097843
  atomic energy  EATOM  =     18662.21924712
  Solvation  Ediel_sol  =         0.00000000
  ---------------------------------------------------
  free energy    TOTEN  =      1117.00590579 eV

  energy without entropy =     1117.03323025  energy(sigma->0) =     1117.01501395


--------------------------------------------------------------------------------------------------------




--------------------------------------- Iteration      1(   2)  ---------------------------------------


     EDDAV:  cpu time    7.3882: real time    7.3983
       DOS:  cpu time    0.0003: real time    0.0003
    --------------------------------------------
      LOOP:  cpu time    7.3885: real time    7.3987

 eigenvalue-minimisations  :   368
 total energy-change (2. order) :-0.1030780E+04  (-0.9783509E+03)
 number of electron     153.0000000 magnetization       1.0000000
 augmentation part      153.0000000 magnetization       1.0000000

 Free energy of the ion-electron system (eV)
  ---------------------------------------------------
  alpha Z        PSCENC =        41.16232785
  Ewald energy   TEWEN  =     16350.66746661
  -Hartree energ DENC   =    -33374.31922643
  -exchange      EXHF   =         0.00000000
  -V(xc)+E(xc)   XCENC  =       623.44288618
  PAW double counting   =     16421.75059358   -17800.06104309
  entropy T*S    EENTRO =         0.00598879
  eigenvalues    EBANDS =      -838.64255887
  atomic energy  EATOM  =     18662.21924712
  Solvation  Ediel_sol  =         0.00000000
  ---------------------------------------------------
  free energy    TOTEN  =        86.22568173 eV

  energy without entropy =       86.21969294  energy(sigma->0) =       86.22368547


--------------------------------------------------------------------------------------------------------




--------------------------------------- Iteration      1(   3)  ---------------------------------------


     EDDAV:  cpu time   11.5832: real time   11.6035
       DOS:  cpu time    0.0003: real time    0.0003
    --------------------------------------------
      LOOP:  cpu time   11.5835: real time   11.6039

 eigenvalue-minimisations  :   648
 total energy-change (2. order) :-0.1197346E+03  (-0.1122746E+03)
 number of electron     153.0000000 magnetization       1.0000000
 augmentation part      153.0000000 magnetization       1.0000000

 Free energy of the ion-electron system (eV)
  ---------------------------------------------------
  alpha Z        PSCENC =        41.16232785
  Ewald energy   TEWEN  =     16350.66746661
  -Hartree energ DENC   =    -33374.31922643
  -exchange      EXHF   =         0.00000000
  -V(xc)+E(xc)   XCENC  =       623.44288618
  PAW double counting   =     16421.75059358   -17800.06104309
  entropy T*S    EENTRO =         0.01441200
  eigenvalues    EBANDS =      -958.38562646
  atomic energy  EATOM  =     18662.21924712
  Solvation  Ediel_sol  =         0.00000000
  ---------------------------------------------------
  free energy    TOTEN  =       -33.50896264 eV

  energy without entropy =      -33.52337464  energy(sigma->0) =      -33.51376664


--------------------------------------------------------------------------------------------------------




--------------------------------------- Iteration      1(   4)  ---------------------------------------


     EDDAV:  cpu time   10.3207: real time   10.3352
       DOS:  cpu time    0.0004: real time    0.0004
    --------------------------------------------
      LOOP:  cpu time   10.3211: real time   10.3356

 eigenvalue-minimisations  :   560
 total energy-change (2. order) :-0.2220019E+02  (-0.2178087E+02)
 number of electron     153.0000000 magnetization       1.0000000
 augmentation part      153.0000000 magnetization       1.0000000

 Free energy of the ion-electron system (eV)
  ---------------------------------------------------
  alpha Z        PSCENC =        41.16232785
  Ewald energy   TEWEN  =     16350.66746661
  -Hartree energ DENC   =    -33374.31922643
  -exchange      EXHF   =         0.00000000
  -V(xc)+E(xc)   XCENC  =       623.44288618
  PAW double counting   =     16421.75059358   -17800.06104309
  entropy T*S    EENTRO =         0.00900028
  eigenvalues    EBANDS =      -980.58040037
  atomic energy  EATOM  =     18662.21924712
  Solvation  Ediel_sol  =         0.00000000
  ---------------------------------------------------
  free energy    TOTEN  =       -55.70914827 eV

  energy without entropy =      -55.71814855  energy(sigma->0) =      -55.71214836


--------------------------------------------------------------------------------------------------------




--------------------------------------- Iteration      1(   5)  ---------------------------------------


     EDDAV:  cpu time   11.8927: real time   11.9100
       DOS:  cpu time    0.0004: real time    0.0004
    CHARGE:  cpu time    0.6600: real time    0.6606
    MIXING:  cpu time    0.0229: real time    0.0229
    --------------------------------------------
      LOOP:  cpu time   12.5760: real time   12.5940

 eigenvalue-minimisations  :   672
 total energy-change (2. order) :-0.1766865E+01  (-0.1598980E+01)
 number of electron     153.0000003 magnetization       1.0000000
 augmentation part       87.2773196 magnetization       0.3868350

 Broyden mixing:
  rms(total) = 0.24461E+01    rms(broyden)= 0.24459E+01
  rms(prec ) = 0.28146E+01
  weight for this iteration     100.00

 Free energy of the ion-electron system (eV)
  ---------------------------------------------------
  alpha Z        PSCENC =        41.16232785
  Ewald energy   TEWEN  =     16350.66746661
  -Hartree energ DENC   =    -33374.31922643
  -exchange      EXHF   =         0.00000000
  -V(xc)+E(xc)   XCENC  =       623.44288618
  PAW double counting   =     16421.75059358   -17800.06104309
  entropy T*S    EENTRO =         0.00980752
  eigenvalues    EBANDS =      -982.34807262
  atomic energy  EATOM  =     18662.21924712
  Solvation  Ediel_sol  =         0.00000000
  ---------------------------------------------------
  free energy    TOTEN  =       -57.47601329 eV

  energy without entropy =      -57.48582081  energy(sigma->0) =      -57.47928247


--------------------------------------------------------------------------------------------------------




--------------------------------------- Iteration      1(   6)  ---------------------------------------


    POTLOK:  cpu time    1.1316: real time    1.1349
    SETDIJ:  cpu time    0.0176: real time    0.0177
    EDDIAG:  cpu time    1.0858: real time    1.0871
  RMM-DIIS:  cpu time    7.0284: real time    7.0362
    ORTHCH:  cpu time    0.0555: real time    0.0555
       DOS:  cpu time    0.0005: real time    0.0005
    CHARGE:  cpu time    0.6454: real time    0.6457
    MIXING:  cpu time    0.0231: real time    0.0231
    --------------------------------------------
      LOOP:  cpu time    9.9879: real time   10.0008

 eigenvalue-minimisations  :   425
 total energy-change (2. order) : 0.4395936E-01  (-0.1320474E+02)
 number of electron     153.0000000 magnetization       1.0000000
 augmentation part       95.7989504 magnetization       0.0849111

 Broyden mixing:
  rms(total) = 0.16583E+01    rms(broyden)= 0.16581E+01
  rms(prec ) = 0.19139E+01
  weight for this iteration     100.00

 eigenvalues of (default mixing * dielectric matrix)
  average eigenvalue GAMMA=   0.6036
  0.6036

 Free energy of the ion-electron system (eV)
  ---------------------------------------------------
  alpha Z        PSCENC =        41.16232785
  Ewald energy   TEWEN  =     16350.66746661
  -Hartree energ DENC   =    -33110.95434465
  -exchange      EXHF   =         0.00000000
  -V(xc)+E(xc)   XCENC  =       610.98909586
  PAW double counting   =     16684.56699106   -18006.74772291
  entropy T*S    EENTRO =         0.00814606
  eigenvalues    EBANDS =     -1289.34326093
  atomic energy  EATOM  =     18662.21924712
  Solvation  Ediel_sol  =         0.00000000
  ---------------------------------------------------
  free energy    TOTEN  =       -57.43205393 eV

  energy without entropy =      -57.44019999  energy(sigma->0) =      -57.43476928


--------------------------------------------------------------------------------------------------------




--------------------------------------- Iteration      1(   7)  ---------------------------------------


    POTLOK:  cpu time    1.1332: real time    1.1347
    SETDIJ:  cpu time    0.0178: real time    0.0178
    EDDIAG:  cpu time    1.0874: real time    1.0879
  RMM-DIIS:  cpu time    6.1716: real time    6.1766
    ORTHCH:  cpu time    0.0555: real time    0.0555
       DOS:  cpu time    0.0005: real time    0.0005
    CHARGE:  cpu time    0.6440: real time    0.6443
    MIXING:  cpu time    0.0237: real time    0.0237
    --------------------------------------------
      LOOP:  cpu time    9.1337: real time    9.1410

 eigenvalue-minimisations  :   373
 total energy-change (2. order) : 0.8237276E+01  (-0.2770819E+01)
 number of electron     153.0000001 magnetization       1.0000000
 augmentation part       92.9233817 magnetization       0.0996325

 Broyden mixing:
  rms(total) = 0.41168E+00    rms(broyden)= 0.41165E+00
  rms(prec ) = 0.51427E+00
  weight for this iteration     100.00

 eigenvalues of (default mixing * dielectric matrix)
  average eigenvalue GAMMA=   0.9037
  1.1275  0.6799

 Free energy of the ion-electron system (eV)
  ---------------------------------------------------
  alpha Z        PSCENC =        41.16232785
  Ewald energy   TEWEN  =     16350.66746661
  -Hartree energ DENC   =    -33248.77637334
  -exchange      EXHF   =         0.00000000
  -V(xc)+E(xc)   XCENC  =       615.47680384
  PAW double counting   =     17024.37613597   -18397.55927874
  entropy T*S    EENTRO =         0.00930850
  eigenvalues    EBANDS =     -1096.77041541
  atomic energy  EATOM  =     18662.21924712
  Solvation  Ediel_sol  =         0.00000000
  ---------------------------------------------------
  free energy    TOTEN  =       -49.19477760 eV

  energy without entropy =      -49.20408610  energy(sigma->0) =      -49.19788043


--------------------------------------------------------------------------------------------------------




--------------------------------------- Iteration      1(   8)  ---------------------------------------


    POTLOK:  cpu time    1.1333: real time    1.1339
    SETDIJ:  cpu time    0.0175: real time    0.0175
    EDDIAG:  cpu time    1.0875: real time    1.0884
  RMM-DIIS:  cpu time    6.7621: real time    6.7677
    ORTHCH:  cpu time    0.0554: real time    0.0554
       DOS:  cpu time    0.0005: real time    0.0005
    CHARGE:  cpu time    0.6441: real time    0.6443
    MIXING:  cpu time    0.0245: real time    0.0245
    --------------------------------------------
      LOOP:  cpu time    9.7249: real time    9.7322

 eigenvalue-minimisations  :   421
 total energy-change (2. order) : 0.2983414E+00  (-0.4756630E+00)
 number of electron     153.0000001 magnetization       1.0000000
 augmentation part       92.0512611 magnetization       0.0881746

 Broyden mixing:
  rms(total) = 0.31768E+00    rms(broyden)= 0.31765E+00
  rms(prec ) = 0.35903E+00
  weight for this iteration     100.00

 eigenvalues of (default mixing * dielectric matrix)
  average eigenvalue GAMMA=   0.8954
  1.2631  0.7116  0.7116

 Free energy of the ion-electron system (eV)
  ---------------------------------------------------
  alpha Z        PSCENC =        41.16232785
  Ewald energy   TEWEN  =     16350.66746661
  -Hartree energ DENC   =    -33298.96729770
  -exchange      EXHF   =         0.00000000
  -V(xc)+E(xc)   XCENC  =       615.96406046
  PAW double counting   =     17365.06443529   -18757.99965567
  entropy T*S    EENTRO =         0.00927409
  eigenvalues    EBANDS =     -1027.01629430
  atomic energy  EATOM  =     18662.21924712
  Solvation  Ediel_sol  =         0.00000000
  ---------------------------------------------------
  free energy    TOTEN  =       -48.89643624 eV

  energy without entropy =      -48.90571033  energy(sigma->0) =      -48.89952760


--------------------------------------------------------------------------------------------------------




--------------------------------------- Iteration      1(   9)  ---------------------------------------


    POTLOK:  cpu time    1.1351: real time    1.1365
    SETDIJ:  cpu time    0.0174: real time    0.0174
    EDDIAG:  cpu time    1.0873: real time    1.0878
  RMM-DIIS:  cpu time    6.8389: real time    6.8446
    ORTHCH:  cpu time    0.0556: real time    0.0556
       DOS:  cpu time    0.0005: real time    0.0005
    CHARGE:  cpu time    0.6899: real time    0.6902
    MIXING:  cpu time    0.0249: real time    0.0249
    --------------------------------------------
      LOOP:  cpu time    9.8495: real time    9.8576

 eigenvalue-minimisations  :   413
 total energy-change (2. order) : 0.4406332E-01  (-0.1104950E+00)
 number of electron     153.0000001 magnetization       1.0000000
 augmentation part       92.2369543 magnetization       0.0791114

 Broyden mixing:
  rms(total) = 0.19578E+00    rms(broyden)= 0.19577E+00
  rms(prec ) = 0.23208E+00
  weight for this iteration     100.00

 eigenvalues of (default mixing * dielectric matrix)
  average eigenvalue GAMMA=   1.0205
  2.0327  0.7782  0.7782  0.4929

 Free energy of the ion-electron system (eV)
  ---------------------------------------------------
  alpha Z        PSCENC =        41.16232785
  Ewald energy   TEWEN  =     16350.66746661
  -Hartree energ DENC   =    -33296.86592493
  -exchange      EXHF   =         0.00000000
  -V(xc)+E(xc)   XCENC  =       615.50869832
  PAW double counting   =     17467.46475732   -18862.34292831
  entropy T*S    EENTRO =         0.00929644
  eigenvalues    EBANDS =     -1026.67531336
  atomic energy  EATOM  =     18662.21924712
  Solvation  Ediel_sol  =         0.00000000
  ---------------------------------------------------
  free energy    TOTEN  =       -48.85237293 eV

  energy without entropy =      -48.86166937  energy(sigma->0) =      -48.85547174


--------------------------------------------------------------------------------------------------------




--------------------------------------- Iteration      1(  10)  ---------------------------------------


    POTLOK:  cpu time    1.1350: real time    1.1383
    SETDIJ:  cpu time    0.0175: real time    0.0175
    EDDIAG:  cpu time    1.0847: real time    1.0856
  RMM-DIIS:  cpu time    6.9652: real time    6.9701
    ORTHCH:  cpu time    0.0520: real time    0.0520
       DOS:  cpu time    0.0004: real time    0.0004
    CHARGE:  cpu time    0.6923: real time    0.6925
    MIXING:  cpu time    0.0257: real time    0.0257
    --------------------------------------------
      LOOP:  cpu time    9.9728: real time    9.9820

 eigenvalue-minimisations  :   429
 total energy-change (2. order) : 0.6702725E-01  (-0.2379770E-01)
 number of electron     153.0000001 magnetization       1.0000000
 augmentation part       92.4120230 magnetization       0.0675040

 Broyden mixing:
  rms(total) = 0.64749E-01    rms(broyden)= 0.64743E-01
  rms(prec ) = 0.82575E-01
  weight for this iteration     100.00

 eigenvalues of (default mixing * dielectric matrix)
  average eigenvalue GAMMA=   1.0184
  2.0432  0.9622  0.7975  0.7975  0.4914

 Free energy of the ion-electron system (eV)
  ---------------------------------------------------
  alpha Z        PSCENC =        41.16232785
  Ewald energy   TEWEN  =     16350.66746661
  -Hartree energ DENC   =    -33295.43834166
  -exchange      EXHF   =         0.00000000
  -V(xc)+E(xc)   XCENC  =       615.04496857
  PAW double counting   =     17577.37005565   -18974.17159202
  entropy T*S    EENTRO =         0.00931073
  eigenvalues    EBANDS =     -1025.64878852
  atomic energy  EATOM  =     18662.21924712
  Solvation  Ediel_sol  =         0.00000000
  ---------------------------------------------------
  free energy    TOTEN  =       -48.78534567 eV

  energy without entropy =      -48.79465640  energy(sigma->0) =      -48.78844925


--------------------------------------------------------------------------------------------------------




--------------------------------------- Iteration      1(  11)  ---------------------------------------


    POTLOK:  cpu time    1.1350: real time    1.1362
    SETDIJ:  cpu time    0.0175: real time    0.0176
    EDDIAG:  cpu time    1.0856: real time    1.0860
  RMM-DIIS:  cpu time    7.3246: real time    7.3297
    ORTHCH:  cpu time    0.0522: real time    0.0522
       DOS:  cpu time    0.0005: real time    0.0005
    CHARGE:  cpu time    0.6741: real time    0.6892
    MIXING:  cpu time    0.0265: real time    0.0265
    --------------------------------------------
      LOOP:  cpu time   10.3160: real time   10.3379

 eigenvalue-minimisations  :   447
 total energy-change (2. order) : 0.9234089E-02  (-0.7563709E-02)
 number of electron     153.0000001 magnetization       1.0000000
 augmentation part       92.3396281 magnetization       0.0703518

 Broyden mixing:
  rms(total) = 0.35885E-01    rms(broyden)= 0.35881E-01
  rms(prec ) = 0.47582E-01
  weight for this iteration     100.00

 eigenvalues of (default mixing * dielectric matrix)
  average eigenvalue GAMMA=   1.0481
  2.1378  1.3959  0.8785  0.6878  0.6878  0.5012

 Free energy of the ion-electron system (eV)
  ---------------------------------------------------
  alpha Z        PSCENC =        41.16232785
  Ewald energy   TEWEN  =     16350.66746661
  -Hartree energ DENC   =    -33303.00972343
  -exchange      EXHF   =         0.00000000
  -V(xc)+E(xc)   XCENC  =       615.18076719
  PAW double counting   =     17620.16142443   -19019.10303277
  entropy T*S    EENTRO =         0.00923746
  eigenvalues    EBANDS =     -1016.06382606
  atomic energy  EATOM  =     18662.21924712
  Solvation  Ediel_sol  =         0.00000000
  ---------------------------------------------------
  free energy    TOTEN  =       -48.77611159 eV

  energy without entropy =      -48.78534904  energy(sigma->0) =      -48.77919074


--------------------------------------------------------------------------------------------------------




--------------------------------------- Iteration      1(  12)  ---------------------------------------


    POTLOK:  cpu time    1.1343: real time    1.1353
    SETDIJ:  cpu time    0.0172: real time    0.0172
    EDDIAG:  cpu time    1.0845: real time    1.0860
  RMM-DIIS:  cpu time    7.1304: real time    7.1352
    ORTHCH:  cpu time    0.0592: real time    0.0593
       DOS:  cpu time    0.0004: real time    0.0004
    CHARGE:  cpu time    0.6936: real time    0.6936
    MIXING:  cpu time    0.0271: real time    0.0271
    --------------------------------------------
      LOOP:  cpu time   10.1467: real time   10.1540

 eigenvalue-minimisations  :   430
 total energy-change (2. order) : 0.2388427E-02  (-0.1906302E-02)
 number of electron     153.0000001 magnetization       1.0000000
 augmentation part       92.3449735 magnetization       0.0703319

 Broyden mixing:
  rms(total) = 0.21960E-01    rms(broyden)= 0.21960E-01
  rms(prec ) = 0.32564E-01
  weight for this iteration     100.00

 eigenvalues of (default mixing * dielectric matrix)
  average eigenvalue GAMMA=   1.0653
  2.3813  1.6581  0.9554  0.6838  0.6838  0.6178  0.4770

 Free energy of the ion-electron system (eV)
  ---------------------------------------------------
  alpha Z        PSCENC =        41.16232785
  Ewald energy   TEWEN  =     16350.66746661
  -Hartree energ DENC   =    -33306.49994842
  -exchange      EXHF   =         0.00000000
  -V(xc)+E(xc)   XCENC  =       615.21995180
  PAW double counting   =     17633.25694032   -19032.70798443
  entropy T*S    EENTRO =         0.00927441
  eigenvalues    EBANDS =     -1012.10099842
  atomic energy  EATOM  =     18662.21924712
  Solvation  Ediel_sol  =         0.00000000
  ---------------------------------------------------
  free energy    TOTEN  =       -48.77372316 eV

  energy without entropy =      -48.78299756  energy(sigma->0) =      -48.77681463


--------------------------------------------------------------------------------------------------------




--------------------------------------- Iteration      1(  13)  ---------------------------------------


    POTLOK:  cpu time    1.1363: real time    1.1398
    SETDIJ:  cpu time    0.0168: real time    0.0168
    EDDIAG:  cpu time    1.0854: real time    1.0869
  RMM-DIIS:  cpu time    6.8786: real time    6.8829
    ORTHCH:  cpu time    0.0509: real time    0.0509
       DOS:  cpu time    0.0004: real time    0.0004
    CHARGE:  cpu time    0.6946: real time    0.6946
    MIXING:  cpu time    0.0279: real time    0.0279
    --------------------------------------------
      LOOP:  cpu time    9.8910: real time    9.9002

 eigenvalue-minimisations  :   420
 total energy-change (2. order) : 0.1181720E-02  (-0.5434607E-03)
 number of electron     153.0000001 magnetization       1.0000000
 augmentation part       92.3590500 magnetization       0.0708806

 Broyden mixing:
  rms(total) = 0.98635E-02    rms(broyden)= 0.98630E-02
  rms(prec ) = 0.19851E-01
  weight for this iteration     100.00

 eigenvalues of (default mixing * dielectric matrix)
  average eigenvalue GAMMA=   1.0911
  2.4387  1.7312  1.2265  0.8762  0.7277  0.7277  0.5401  0.4603

 Free energy of the ion-electron system (eV)
  ---------------------------------------------------
  alpha Z        PSCENC =        41.16232785
  Ewald energy   TEWEN  =     16350.66746661
  -Hartree energ DENC   =    -33309.44375573
  -exchange      EXHF   =         0.00000000
  -V(xc)+E(xc)   XCENC  =       615.22116656
  PAW double counting   =     17639.35479511   -19038.88376261
  entropy T*S    EENTRO =         0.00925509
  eigenvalues    EBANDS =     -1009.07928144
  atomic energy  EATOM  =     18662.21924712
  Solvation  Ediel_sol  =         0.00000000
  ---------------------------------------------------
  free energy    TOTEN  =       -48.77254144 eV

  energy without entropy =      -48.78179653  energy(sigma->0) =      -48.77562647


--------------------------------------------------------------------------------------------------------




--------------------------------------- Iteration      1(  14)  ---------------------------------------


    POTLOK:  cpu time    1.1361: real time    1.1372
    SETDIJ:  cpu time    0.0169: real time    0.0169
    EDDIAG:  cpu time    1.0869: real time    1.0873
  RMM-DIIS:  cpu time    6.6844: real time    6.6885
    ORTHCH:  cpu time    0.0516: real time    0.0516
       DOS:  cpu time    0.0004: real time    0.0004
    CHARGE:  cpu time    0.6937: real time    0.6940
    MIXING:  cpu time    0.0291: real time    0.0291
    --------------------------------------------
      LOOP:  cpu time    9.6991: real time    9.7050

 eigenvalue-minimisations  :   407
 total energy-change (2. order) :-0.8061507E-03  (-0.3471174E-03)
 number of electron     153.0000001 magnetization       1.0000000
 augmentation part       92.3705316 magnetization       0.0709233

 Broyden mixing:
  rms(total) = 0.11690E-01    rms(broyden)= 0.11690E-01
  rms(prec ) = 0.17698E-01
  weight for this iteration     100.00

 eigenvalues of (default mixing * dielectric matrix)
  average eigenvalue GAMMA=   1.1186
  2.2937  2.2937  1.2534  0.9571  0.8333  0.7301  0.7301  0.5073  0.4686

 Free energy of the ion-electron system (eV)
  ---------------------------------------------------
  alpha Z        PSCENC =        41.16232785
  Ewald energy   TEWEN  =     16350.66746661
  -Hartree energ DENC   =    -33313.75976709
  -exchange      EXHF   =         0.00000000
  -V(xc)+E(xc)   XCENC  =       615.23737727
  PAW double counting   =     17635.35005119   -19034.61180048
  entropy T*S    EENTRO =         0.00926846
  eigenvalues    EBANDS =     -1005.04751852
  atomic energy  EATOM  =     18662.21924712
  Solvation  Ediel_sol  =         0.00000000
  ---------------------------------------------------
  free energy    TOTEN  =       -48.77334759 eV

  energy without entropy =      -48.78261605  energy(sigma->0) =      -48.77643708


--------------------------------------------------------------------------------------------------------




--------------------------------------- Iteration      1(  15)  ---------------------------------------


    POTLOK:  cpu time    1.1368: real time    1.1376
    SETDIJ:  cpu time    0.0171: real time    0.0171
    EDDIAG:  cpu time    1.0848: real time    1.0860
  RMM-DIIS:  cpu time    6.6163: real time    6.6215
    ORTHCH:  cpu time    0.0539: real time    0.0539
       DOS:  cpu time    0.0004: real time    0.0004
    CHARGE:  cpu time    0.6936: real time    0.6939
    MIXING:  cpu time    0.0297: real time    0.0297
    --------------------------------------------
      LOOP:  cpu time    9.6326: real time    9.6401

 eigenvalue-minimisations  :   404
 total energy-change (2. order) :-0.1112755E-02  (-0.1686480E-03)
 number of electron     153.0000001 magnetization       1.0000000
 augmentation part       92.3607605 magnetization       0.0712671

 Broyden mixing:
  rms(total) = 0.51155E-02    rms(broyden)= 0.51152E-02
  rms(prec ) = 0.97901E-02
  weight for this iteration     100.00

 eigenvalues of (default mixing * dielectric matrix)
  average eigenvalue GAMMA=   1.1686
  2.6232  2.6232  1.2545  1.2545  0.9244  0.7038  0.7038  0.6317  0.4978  0.4685

 Free energy of the ion-electron system (eV)
  ---------------------------------------------------
  alpha Z        PSCENC =        41.16232785
  Ewald energy   TEWEN  =     16350.66746661
  -Hartree energ DENC   =    -33318.07257267
  -exchange      EXHF   =         0.00000000
  -V(xc)+E(xc)   XCENC  =       615.28692161
  PAW double counting   =     17629.28205874   -19028.43606056
  entropy T*S    EENTRO =         0.00926585
  eigenvalues    EBANDS =     -1000.89311490
  atomic energy  EATOM  =     18662.21924712
  Solvation  Ediel_sol  =         0.00000000
  ---------------------------------------------------
  free energy    TOTEN  =       -48.77446034 eV

  energy without entropy =      -48.78372619  energy(sigma->0) =      -48.77754896


--------------------------------------------------------------------------------------------------------




--------------------------------------- Iteration      1(  16)  ---------------------------------------


    POTLOK:  cpu time    1.1339: real time    1.1346
    SETDIJ:  cpu time    0.0177: real time    0.0177
    EDDIAG:  cpu time    1.0857: real time    1.0861
  RMM-DIIS:  cpu time    6.6726: real time    6.6778
    ORTHCH:  cpu time    0.0542: real time    0.0542
       DOS:  cpu time    0.0005: real time    0.0005
    CHARGE:  cpu time    0.6913: real time    0.6915
    MIXING:  cpu time    0.0307: real time    0.0307
    --------------------------------------------
      LOOP:  cpu time    9.6864: real time    9.6930

 eigenvalue-minimisations  :   392
 total energy-change (2. order) :-0.1400653E-02  (-0.1324871E-03)
 number of electron     153.0000001 magnetization       1.0000000
 augmentation part       92.3533307 magnetization       0.0714793

 Broyden mixing:
  rms(total) = 0.75926E-02    rms(broyden)= 0.75924E-02
  rms(prec ) = 0.99908E-02
  weight for this iteration     100.00

 eigenvalues of (default mixing * dielectric matrix)
  average eigenvalue GAMMA=   1.1784
  2.7762  2.7762  1.3670  1.3670  0.8291  0.8291  0.7502  0.7502  0.5416  0.5137
  0.4625

 Free energy of the ion-electron system (eV)
  ---------------------------------------------------
  alpha Z        PSCENC =        41.16232785
  Ewald energy   TEWEN  =     16350.66746661
  -Hartree energ DENC   =    -33320.99072023
  -exchange      EXHF   =         0.00000000
  -V(xc)+E(xc)   XCENC  =       615.32071673
  PAW double counting   =     17625.73437078   -19024.86499532
  entropy T*S    EENTRO =         0.00925274
  eigenvalues    EBANDS =      -998.03352727
  atomic energy  EATOM  =     18662.21924712
  Solvation  Ediel_sol  =         0.00000000
  ---------------------------------------------------
  free energy    TOTEN  =       -48.77586100 eV

  energy without entropy =      -48.78511374  energy(sigma->0) =      -48.77894525


--------------------------------------------------------------------------------------------------------




--------------------------------------- Iteration      1(  17)  ---------------------------------------


    POTLOK:  cpu time    1.1377: real time    1.1405
    SETDIJ:  cpu time    0.0159: real time    0.0159
    EDDIAG:  cpu time    1.0874: real time    1.0879
  RMM-DIIS:  cpu time    6.4687: real time    6.4733
    ORTHCH:  cpu time    0.0532: real time    0.0532
       DOS:  cpu time    0.0004: real time    0.0004
    CHARGE:  cpu time    0.6920: real time    0.6924
    MIXING:  cpu time    0.0317: real time    0.0317
    --------------------------------------------
      LOOP:  cpu time    9.4870: real time    9.4953

 eigenvalue-minimisations  :   390
 total energy-change (2. order) :-0.1432860E-02  (-0.6505201E-04)
 number of electron     153.0000001 magnetization       1.0000000
 augmentation part       92.3624722 magnetization       0.0714775

 Broyden mixing:
  rms(total) = 0.28655E-02    rms(broyden)= 0.28651E-02
  rms(prec ) = 0.47394E-02
  weight for this iteration     100.00

 eigenvalues of (default mixing * dielectric matrix)
  average eigenvalue GAMMA=   1.3092
  4.0801  2.5719  1.8790  1.5860  0.9634  0.9634  0.7428  0.7428  0.6918  0.5336
  0.4645  0.4915

 Free energy of the ion-electron system (eV)
  ---------------------------------------------------
  alpha Z        PSCENC =        41.16232785
  Ewald energy   TEWEN  =     16350.66746661
  -Hartree energ DENC   =    -33322.54597106
  -exchange      EXHF   =         0.00000000
  -V(xc)+E(xc)   XCENC  =       615.32178690
  PAW double counting   =     17622.95977909   -19021.96864503
  entropy T*S    EENTRO =         0.00925182
  eigenvalues    EBANDS =      -996.60253716
  atomic energy  EATOM  =     18662.21924712
  Solvation  Ediel_sol  =         0.00000000
  ---------------------------------------------------
  free energy    TOTEN  =       -48.77729386 eV

  energy without entropy =      -48.78654568  energy(sigma->0) =      -48.78037780


--------------------------------------------------------------------------------------------------------




--------------------------------------- Iteration      1(  18)  ---------------------------------------


    POTLOK:  cpu time    1.1359: real time    1.1372
    SETDIJ:  cpu time    0.0177: real time    0.0177
    EDDIAG:  cpu time    1.0861: real time    1.0869
  RMM-DIIS:  cpu time    6.7584: real time    6.7629
    ORTHCH:  cpu time    0.0531: real time    0.0531
       DOS:  cpu time    0.0004: real time    0.0004
    CHARGE:  cpu time    0.6920: real time    0.6922
    MIXING:  cpu time    0.0328: real time    0.0328
    --------------------------------------------
      LOOP:  cpu time    9.7764: real time    9.7833

 eigenvalue-minimisations  :   418
 total energy-change (2. order) :-0.1016051E-02  (-0.2834536E-04)
 number of electron     153.0000001 magnetization       1.0000000
 augmentation part       92.3603746 magnetization       0.0715966

 Broyden mixing:
  rms(total) = 0.16261E-02    rms(broyden)= 0.16260E-02
  rms(prec ) = 0.27657E-02
  weight for this iteration     100.00

 eigenvalues of (default mixing * dielectric matrix)
  average eigenvalue GAMMA=   1.3373
  4.8797  2.6245  2.0954  1.4118  0.9873  0.9873  0.7496  0.7496  0.7891  0.6314
  0.4644  0.5204  0.4947

 Free energy of the ion-electron system (eV)
  ---------------------------------------------------
  alpha Z        PSCENC =        41.16232785
  Ewald energy   TEWEN  =     16350.66746661
  -Hartree energ DENC   =    -33323.88544304
  -exchange      EXHF   =         0.00000000
  -V(xc)+E(xc)   XCENC  =       615.32549831
  PAW double counting   =     17622.63472003   -19021.65910731
  entropy T*S    EENTRO =         0.00925226
  eigenvalues    EBANDS =      -995.25227174
  atomic energy  EATOM  =     18662.21924712
  Solvation  Ediel_sol  =         0.00000000
  ---------------------------------------------------
  free energy    TOTEN  =       -48.77830991 eV

  energy without entropy =      -48.78756217  energy(sigma->0) =      -48.78139400


--------------------------------------------------------------------------------------------------------




--------------------------------------- Iteration      1(  19)  ---------------------------------------


    POTLOK:  cpu time    1.1351: real time    1.1362
    SETDIJ:  cpu time    0.0172: real time    0.0172
    EDDIAG:  cpu time    1.0847: real time    1.0858
  RMM-DIIS:  cpu time    6.7268: real time    6.7331
    ORTHCH:  cpu time    0.0532: real time    0.0532
       DOS:  cpu time    0.0004: real time    0.0004
    CHARGE:  cpu time    0.6922: real time    0.6927
    MIXING:  cpu time    0.0343: real time    0.0343
    --------------------------------------------
      LOOP:  cpu time    9.7439: real time    9.7529

 eigenvalue-minimisations  :   416
 total energy-change (2. order) :-0.5838583E-03  (-0.1193539E-04)
 number of electron     153.0000001 magnetization       1.0000000
 augmentation part       92.3578717 magnetization       0.0715512

 Broyden mixing:
  rms(total) = 0.13226E-02    rms(broyden)= 0.13225E-02
  rms(prec ) = 0.22124E-02
  weight for this iteration     100.00

 eigenvalues of (default mixing * dielectric matrix)
  average eigenvalue GAMMA=   1.4102
  5.7009  2.7023  2.1745  1.4794  1.4794  0.9839  0.9839  0.7455  0.7455  0.6959
  0.5826  0.4627  0.5114  0.4942

 Free energy of the ion-electron system (eV)
  ---------------------------------------------------
  alpha Z        PSCENC =        41.16232785
  Ewald energy   TEWEN  =     16350.66746661
  -Hartree energ DENC   =    -33324.48517587
  -exchange      EXHF   =         0.00000000
  -V(xc)+E(xc)   XCENC  =       615.32774512
  PAW double counting   =     17622.77813219   -19021.83179074
  entropy T*S    EENTRO =         0.00925208
  eigenvalues    EBANDS =      -994.62609814
  atomic energy  EATOM  =     18662.21924712
  Solvation  Ediel_sol  =         0.00000000
  ---------------------------------------------------
  free energy    TOTEN  =       -48.77889377 eV

  energy without entropy =      -48.78814585  energy(sigma->0) =      -48.78197780


--------------------------------------------------------------------------------------------------------




--------------------------------------- Iteration      1(  20)  ---------------------------------------


    POTLOK:  cpu time    1.1377: real time    1.1383
    SETDIJ:  cpu time    0.0164: real time    0.0164
    EDDIAG:  cpu time    1.0852: real time    1.0859
  RMM-DIIS:  cpu time    6.8218: real time    6.8290
    ORTHCH:  cpu time    0.0531: real time    0.0531
       DOS:  cpu time    0.0004: real time    0.0004
    CHARGE:  cpu time    0.6921: real time    0.6926
    MIXING:  cpu time    0.0354: real time    0.0354
    --------------------------------------------
      LOOP:  cpu time    9.8422: real time    9.8511

 eigenvalue-minimisations  :   419
 total energy-change (2. order) :-0.6301674E-03  (-0.5858099E-05)
 number of electron     153.0000001 magnetization       1.0000000
 augmentation part       92.3577543 magnetization       0.0714898

 Broyden mixing:
  rms(total) = 0.86397E-03    rms(broyden)= 0.86392E-03
  rms(prec ) = 0.14107E-02
  weight for this iteration     100.00

 eigenvalues of (default mixing * dielectric matrix)
  average eigenvalue GAMMA=   1.4394
  6.2663  2.8442  2.2498  1.6609  1.6609  0.9761  0.9761  0.7621  0.7621  0.7029
  0.7029  0.5466  0.5287  0.4637  0.4874

 Free energy of the ion-electron system (eV)
  ---------------------------------------------------
  alpha Z        PSCENC =        41.16232785
  Ewald energy   TEWEN  =     16350.66746661
  -Hartree energ DENC   =    -33324.69652297
  -exchange      EXHF   =         0.00000000
  -V(xc)+E(xc)   XCENC  =       615.32751862
  PAW double counting   =     17623.03143121   -19022.10234564
  entropy T*S    EENTRO =         0.00925340
  eigenvalues    EBANDS =      -994.39790013
  atomic energy  EATOM  =     18662.21924712
  Solvation  Ediel_sol  =         0.00000000
  ---------------------------------------------------
  free energy    TOTEN  =       -48.77952394 eV

  energy without entropy =      -48.78877733  energy(sigma->0) =      -48.78260840


--------------------------------------------------------------------------------------------------------




--------------------------------------- Iteration      1(  21)  ---------------------------------------


    POTLOK:  cpu time    1.1371: real time    1.1400
    SETDIJ:  cpu time    0.0170: real time    0.0170
    EDDIAG:  cpu time    1.0860: real time    1.0869
  RMM-DIIS:  cpu time    6.6293: real time    6.6347
    ORTHCH:  cpu time    0.0527: real time    0.0538
       DOS:  cpu time    0.0004: real time    0.0004
    CHARGE:  cpu time    0.6910: real time    0.6915
    MIXING:  cpu time    0.0371: real time    0.0371
    --------------------------------------------
      LOOP:  cpu time    9.6506: real time    9.6614

 eigenvalue-minimisations  :   404
 total energy-change (2. order) :-0.3676481E-03  (-0.2672503E-05)
 number of electron     153.0000001 magnetization       1.0000000
 augmentation part       92.3594065 magnetization       0.0715537

 Broyden mixing:
  rms(total) = 0.67489E-03    rms(broyden)= 0.67480E-03
  rms(prec ) = 0.10251E-02
  weight for this iteration     100.00

 eigenvalues of (default mixing * dielectric matrix)
  average eigenvalue GAMMA=   1.4711
  6.5733  3.1154  2.3060  2.1569  1.2994  1.2994  0.9609  0.9609  0.7529  0.7529
  0.7011  0.6483  0.5483  0.4637  0.5075  0.4906

 Free energy of the ion-electron system (eV)
  ---------------------------------------------------
  alpha Z        PSCENC =        41.16232785
  Ewald energy   TEWEN  =     16350.66746661
  -Hartree energ DENC   =    -33324.66939499
  -exchange      EXHF   =         0.00000000
  -V(xc)+E(xc)   XCENC  =       615.32455985
  PAW double counting   =     17623.17358375   -19022.23589062
  entropy T*S    EENTRO =         0.00925384
  eigenvalues    EBANDS =      -994.43104499
  atomic energy  EATOM  =     18662.21924712
  Solvation  Ediel_sol  =         0.00000000
  ---------------------------------------------------
  free energy    TOTEN  =       -48.77989158 eV

  energy without entropy =      -48.78914542  energy(sigma->0) =      -48.78297620


--------------------------------------------------------------------------------------------------------




--------------------------------------- Iteration      1(  22)  ---------------------------------------


    POTLOK:  cpu time    1.1369: real time    1.1383
    SETDIJ:  cpu time    0.0160: real time    0.0160
    EDDIAG:  cpu time    1.0856: real time    1.0863
  RMM-DIIS:  cpu time    6.6585: real time    6.6635
    ORTHCH:  cpu time    0.0538: real time    0.0538
       DOS:  cpu time    0.0004: real time    0.0004
    CHARGE:  cpu time    0.6891: real time    0.6910
    MIXING:  cpu time    0.0390: real time    0.0390
    --------------------------------------------
      LOOP:  cpu time    9.6794: real time    9.6882

 eigenvalue-minimisations  :   405
 total energy-change (2. order) :-0.2877840E-03  (-0.2138673E-05)
 number of electron     153.0000001 magnetization       1.0000000
 augmentation part       92.3598072 magnetization       0.0715664

 Broyden mixing:
  rms(total) = 0.42265E-03    rms(broyden)= 0.42264E-03
  rms(prec ) = 0.64381E-03
  weight for this iteration     100.00

 eigenvalues of (default mixing * dielectric matrix)
  average eigenvalue GAMMA=   1.5172
  6.9556  3.6941  2.5126  2.1224  1.4899  1.4899  0.9913  0.9913  0.7727  0.7727
  0.7143  0.7143  0.5868  0.4631  0.5267  0.4927  0.5027

 Free energy of the ion-electron system (eV)
  ---------------------------------------------------
  alpha Z        PSCENC =        41.16232785
  Ewald energy   TEWEN  =     16350.66746661
  -Hartree energ DENC   =    -33324.68750072
  -exchange      EXHF   =         0.00000000
  -V(xc)+E(xc)   XCENC  =       615.32281395
  PAW double counting   =     17623.35945185   -19022.41906836
  entropy T*S    EENTRO =         0.00925348
  eigenvalues    EBANDS =      -994.41417114
  atomic energy  EATOM  =     18662.21924712
  Solvation  Ediel_sol  =         0.00000000
  ---------------------------------------------------
  free energy    TOTEN  =       -48.78017937 eV

  energy without entropy =      -48.78943285  energy(sigma->0) =      -48.78326386


--------------------------------------------------------------------------------------------------------




--------------------------------------- Iteration      1(  23)  ---------------------------------------


    POTLOK:  cpu time    1.1361: real time    1.1374
    SETDIJ:  cpu time    0.0173: real time    0.0173
    EDDIAG:  cpu time    1.0855: real time    1.0863
  RMM-DIIS:  cpu time    6.7584: real time    6.7639
    ORTHCH:  cpu time    0.0559: real time    0.0559
       DOS:  cpu time    0.0004: real time    0.0004
    CHARGE:  cpu time    0.6883: real time    0.6902
    MIXING:  cpu time    0.0409: real time    0.0409
    --------------------------------------------
      LOOP:  cpu time    9.7828: real time    9.7924

 eigenvalue-minimisations  :   399
 total energy-change (2. order) :-0.1571569E-03  (-0.1008942E-05)
 number of electron     153.0000001 magnetization       1.0000000
 augmentation part       92.3595449 magnetization       0.0715417

 Broyden mixing:
  rms(total) = 0.28364E-03    rms(broyden)= 0.28362E-03
  rms(prec ) = 0.41932E-03
  weight for this iteration     100.00

 eigenvalues of (default mixing * dielectric matrix)
  average eigenvalue GAMMA=   1.5521
  7.4024  4.2117  2.5394  2.1404  1.6269  1.2914  1.2914  0.9783  0.9783  0.7533
  0.7533  0.7355  0.6872  0.5773  0.4636  0.5111  0.5111  0.4860

 Free energy of the ion-electron system (eV)
  ---------------------------------------------------
  alpha Z        PSCENC =        41.16232785
  Ewald energy   TEWEN  =     16350.66746661
  -Hartree energ DENC   =    -33324.74755211
  -exchange      EXHF   =         0.00000000
  -V(xc)+E(xc)   XCENC  =       615.32277347
  PAW double counting   =     17623.43369676   -19022.49581258
  entropy T*S    EENTRO =         0.00925324
  eigenvalues    EBANDS =      -994.35173688
  atomic energy  EATOM  =     18662.21924712
  Solvation  Ediel_sol  =         0.00000000
  ---------------------------------------------------
  free energy    TOTEN  =       -48.78033652 eV

  energy without entropy =      -48.78958976  energy(sigma->0) =      -48.78342094


--------------------------------------------------------------------------------------------------------




--------------------------------------- Iteration      1(  24)  ---------------------------------------


    POTLOK:  cpu time    1.1348: real time    1.1375
    SETDIJ:  cpu time    0.0180: real time    0.0180
    EDDIAG:  cpu time    1.0869: real time    1.0876
  RMM-DIIS:  cpu time    6.6438: real time    6.6484
    ORTHCH:  cpu time    0.0547: real time    0.0547
       DOS:  cpu time    0.0004: real time    0.0004
    CHARGE:  cpu time    0.6909: real time    0.6914
    MIXING:  cpu time    0.0428: real time    0.0428
    --------------------------------------------
      LOOP:  cpu time    9.6723: real time    9.6808

 eigenvalue-minimisations  :   400
 total energy-change (2. order) :-0.8343805E-04  (-0.5412951E-06)
 number of electron     153.0000001 magnetization       1.0000000
 augmentation part       92.3588455 magnetization       0.0715290

 Broyden mixing:
  rms(total) = 0.19481E-03    rms(broyden)= 0.19481E-03
  rms(prec ) = 0.29093E-03
  weight for this iteration     100.00

 eigenvalues of (default mixing * dielectric matrix)
  average eigenvalue GAMMA=   1.5627
  7.6553  4.5232  2.4865  2.2007  1.8883  1.3446  1.3446  0.9897  0.9897  0.7946
  0.7946  0.7474  0.7474  0.6349  0.5708  0.4635  0.4882  0.5136  0.5136

 Free energy of the ion-electron system (eV)
  ---------------------------------------------------
  alpha Z        PSCENC =        41.16232785
  Ewald energy   TEWEN  =     16350.66746661
  -Hartree energ DENC   =    -33324.79699182
  -exchange      EXHF   =         0.00000000
  -V(xc)+E(xc)   XCENC  =       615.32376970
  PAW double counting   =     17623.42556413   -19022.49342436
  entropy T*S    EENTRO =         0.00925297
  eigenvalues    EBANDS =      -994.29763217
  atomic energy  EATOM  =     18662.21924712
  Solvation  Ediel_sol  =         0.00000000
  ---------------------------------------------------
  free energy    TOTEN  =       -48.78041996 eV

  energy without entropy =      -48.78967294  energy(sigma->0) =      -48.78350429


--------------------------------------------------------------------------------------------------------




--------------------------------------- Iteration      1(  25)  ---------------------------------------


    POTLOK:  cpu time    1.1359: real time    1.1399
    SETDIJ:  cpu time    0.0173: real time    0.0173
    EDDIAG:  cpu time    1.0857: real time    1.0871
  RMM-DIIS:  cpu time    6.4544: real time    6.4588
    ORTHCH:  cpu time    0.0547: real time    0.0548
       DOS:  cpu time    0.0004: real time    0.0004
    CHARGE:  cpu time    0.6892: real time    0.6897
    MIXING:  cpu time    0.0449: real time    0.0449
    --------------------------------------------
      LOOP:  cpu time    9.4825: real time    9.4929

 eigenvalue-minimisations  :   390
 total energy-change (2. order) :-0.6897722E-04  (-0.5135509E-06)
 number of electron     153.0000001 magnetization       1.0000000
 augmentation part       92.3589111 magnetization       0.0715390

 Broyden mixing:
  rms(total) = 0.11637E-03    rms(broyden)= 0.11634E-03
  rms(prec ) = 0.18206E-03
  weight for this iteration     100.00

 eigenvalues of (default mixing * dielectric matrix)
  average eigenvalue GAMMA=   1.6044
  7.9590  4.8749  2.5463  2.5463  1.7947  1.5709  1.3217  1.3217  0.9732  0.9732
  0.7479  0.7479  0.7710  0.7710  0.6293  0.5641  0.4635  0.4866  0.5121  0.5121

 Free energy of the ion-electron system (eV)
  ---------------------------------------------------
  alpha Z        PSCENC =        41.16232785
  Ewald energy   TEWEN  =     16350.66746661
  -Hartree energ DENC   =    -33324.80129335
  -exchange      EXHF   =         0.00000000
  -V(xc)+E(xc)   XCENC  =       615.32369198
  PAW double counting   =     17623.33109891   -19022.39561651
  entropy T*S    EENTRO =         0.00925313
  eigenvalues    EBANDS =      -994.29666467
  atomic energy  EATOM  =     18662.21924712
  Solvation  Ediel_sol  =         0.00000000
  ---------------------------------------------------
  free energy    TOTEN  =       -48.78048894 eV

  energy without entropy =      -48.78974207  energy(sigma->0) =      -48.78357332


--------------------------------------------------------------------------------------------------------




--------------------------------------- Iteration      1(  26)  ---------------------------------------


    POTLOK:  cpu time    1.1365: real time    1.1389
    SETDIJ:  cpu time    0.0172: real time    0.0172
    EDDIAG:  cpu time    1.0861: real time    1.0871
  RMM-DIIS:  cpu time    6.1859: real time    6.1907
    ORTHCH:  cpu time    0.0528: real time    0.0528
       DOS:  cpu time    0.0004: real time    0.0004
    CHARGE:  cpu time    0.6903: real time    0.6908
    MIXING:  cpu time    0.0480: real time    0.0480
    --------------------------------------------
      LOOP:  cpu time    9.2174: real time    9.2261

 eigenvalue-minimisations  :   378
 total energy-change (2. order) :-0.4544935E-04  (-0.4284430E-06)
 number of electron     153.0000001 magnetization       1.0000000
 augmentation part       92.3592061 magnetization       0.0715480

 Broyden mixing:
  rms(total) = 0.82983E-04    rms(broyden)= 0.82979E-04
  rms(prec ) = 0.11797E-03
  weight for this iteration     100.00

 eigenvalues of (default mixing * dielectric matrix)
  average eigenvalue GAMMA=   1.6176
  8.1683  5.1876  2.8595  2.6144  1.8428  1.8428  1.2862  1.2862  0.9868  0.9868
  0.8086  0.8086  0.7381  0.7381  0.6397  0.6397  0.5644  0.4635  0.5107  0.5107
  0.4859

 Free energy of the ion-electron system (eV)
  ---------------------------------------------------
  alpha Z        PSCENC =        41.16232785
  Ewald energy   TEWEN  =     16350.66746661
  -Hartree energ DENC   =    -33324.78881158
  -exchange      EXHF   =         0.00000000
  -V(xc)+E(xc)   XCENC  =       615.32330749
  PAW double counting   =     17623.25439861   -19022.31420698
  entropy T*S    EENTRO =         0.00925326
  eigenvalues    EBANDS =      -994.31351677
  atomic energy  EATOM  =     18662.21924712
  Solvation  Ediel_sol  =         0.00000000
  ---------------------------------------------------
  free energy    TOTEN  =       -48.78053439 eV

  energy without entropy =      -48.78978765  energy(sigma->0) =      -48.78361881


--------------------------------------------------------------------------------------------------------




--------------------------------------- Iteration      1(  27)  ---------------------------------------


    POTLOK:  cpu time    1.1364: real time    1.1371
    SETDIJ:  cpu time    0.0178: real time    0.0178
    EDDIAG:  cpu time    1.0838: real time    1.0867
  RMM-DIIS:  cpu time    5.0253: real time    5.0290
    ORTHCH:  cpu time    0.0529: real time    0.0529
       DOS:  cpu time    0.0004: real time    0.0004
    CHARGE:  cpu time    0.6894: real time    0.6900
    MIXING:  cpu time    0.0516: real time    0.0516
    --------------------------------------------
      LOOP:  cpu time    8.0576: real time    8.0655

 eigenvalue-minimisations  :   293
 total energy-change (2. order) :-0.1150756E-04  (-0.1066141E-06)
 number of electron     153.0000001 magnetization       1.0000000
 augmentation part       92.3592186 magnetization       0.0715465

 Broyden mixing:
  rms(total) = 0.74106E-04    rms(broyden)= 0.74104E-04
  rms(prec ) = 0.99219E-04
  weight for this iteration     100.00

 eigenvalues of (default mixing * dielectric matrix)
  average eigenvalue GAMMA=   1.6183
  8.2615  5.4719  3.1769  2.5236  1.9135  1.9135  1.3223  1.3223  1.0030  1.0030
  0.8836  0.8836  0.7470  0.7470  0.6493  0.6493  0.5815  0.5815  0.4635  0.4866
  0.5092  0.5092

 Free energy of the ion-electron system (eV)
  ---------------------------------------------------
  alpha Z        PSCENC =        41.16232785
  Ewald energy   TEWEN  =     16350.66746661
  -Hartree energ DENC   =    -33324.78715530
  -exchange      EXHF   =         0.00000000
  -V(xc)+E(xc)   XCENC  =       615.32331825
  PAW double counting   =     17623.24175490   -19022.30150835
  entropy T*S    EENTRO =         0.00925316
  eigenvalues    EBANDS =      -994.31525013
  atomic energy  EATOM  =     18662.21924712
  Solvation  Ediel_sol  =         0.00000000
  ---------------------------------------------------
  free energy    TOTEN  =       -48.78054590 eV

  energy without entropy =      -48.78979906  energy(sigma->0) =      -48.78363028


--------------------------------------------------------------------------------------------------------




--------------------------------------- Iteration      1(  28)  ---------------------------------------


    POTLOK:  cpu time    1.1353: real time    1.1364
    SETDIJ:  cpu time    0.0177: real time    0.0177
    EDDIAG:  cpu time    1.0859: real time    1.0870
  RMM-DIIS:  cpu time    4.4014: real time    4.4075
    ORTHCH:  cpu time    0.0527: real time    0.0527
       DOS:  cpu time    0.0004: real time    0.0004
    CHARGE:  cpu time    0.6898: real time    0.6903
    MIXING:  cpu time    0.0557: real time    0.0557
[...]
     66      -4.9504      1.00000
     67      -4.9398      1.00000
     68      -4.9204      1.00000
     69      -4.9129      1.00000
     70      -4.8782      1.00000
     71      -4.8629      1.00000
     72      -4.8293      1.00000
     73      -4.7618      1.00000
     74      -4.5567      1.00000
     75      -4.2339      1.00000
     76      -4.1674      1.00000
     77      -3.6161      1.00000
     78      -3.0923     -0.00000
     79      -2.8934     -0.00000
     80      -2.6321     -0.00000
     81      -2.4528     -0.00000
     82      -2.0058     -0.00000
     83      -1.9201     -0.00000
     84      -1.8105     -0.00000
     85      -1.4530     -0.00000
     86      -1.1007     -0.00000
     87      -0.9857     -0.00000
     88      -0.7107      0.00000
     89      -0.3600      0.00000
     90      -0.2535      0.00000
     91      -0.1402      0.00000
     92       0.0714      0.00000

 spin component 2

 k-point     1 :       0.0000    0.0000    0.0000
  band No.  band energies     occupation 
      1     -27.6745      1.00000
      2     -13.7947      1.00000
      3     -11.1269      1.00000
      4     -10.6259      1.00000
      5     -10.5360      1.00000
      6     -10.1245      1.00000
      7      -8.6604      1.00000
      8      -8.1780      1.00000
      9      -7.6882      1.00000
     10      -7.5196      1.00000
     11      -7.4400      1.00000
     12      -7.3473      1.00000
     13      -7.2754      1.00000
     14      -7.1859      1.00000
     15      -7.0332      1.00000
     16      -6.9627      1.00000
     17      -6.8546      1.00000
     18      -6.8216      1.00000
     19      -6.7306      1.00000
     20      -6.6563      1.00000
     21      -6.6392      1.00000
     22      -6.6143      1.00000
     23      -6.5485      1.00000
     24      -6.5226      1.00000
     25      -6.4985      1.00000
     26      -6.4735      1.00000
     27      -6.4378      1.00000
     28      -6.3613      1.00000
     29      -6.3328      1.00000
     30      -6.2838      1.00000
     31      -6.2132      1.00000
     32      -6.1990      1.00000
     33      -6.1364      1.00000
     34      -6.1271      1.00000
     35      -6.0162      1.00000
     36      -5.9097      1.00000
     37      -5.8373      1.00000
     38      -5.8014      1.00000
     39      -5.7195      1.00000
     40      -5.6896      1.00000
     41      -5.5878      1.00000
     42      -5.5748      1.00000
     43      -5.5324      1.00000
     44      -5.5100      1.00000
     45      -5.4953      1.00000
     46      -5.4356      1.00000
     47      -5.4206      1.00000
     48      -5.3977      1.00000
     49      -5.3762      1.00000
     50      -5.3565      1.00000
     51      -5.3272      1.00000
     52      -5.3070      1.00000
     53      -5.2890      1.00000
     54      -5.2652      1.00000
     55      -5.2465      1.00000
     56      -5.1816      1.00000
     57      -5.1711      1.00000
     58      -5.1668      1.00000
     59      -5.1454      1.00000
     60      -5.1107      1.00000
     61      -5.0790      1.00000
     62      -5.0485      1.00000
     63      -5.0294      1.00000
     64      -5.0120      1.00000
     65      -4.9599      1.00000
     66      -4.9183      1.00000
     67      -4.9164      1.00000
     68      -4.8903      1.00000
     69      -4.8700      1.00000
     70      -4.8444      1.00000
     71      -4.8317      1.00000
     72      -4.8071      1.00000
     73      -4.7385      1.00000
     74      -4.5153      1.00000
     75      -4.1713      1.03320
     76      -4.1321      0.96680
     77      -3.4015     -0.00000
     78      -3.0367     -0.00000
     79      -2.8432     -0.00000
     80      -2.5630     -0.00000
     81      -2.3419     -0.00000
     82      -1.9675     -0.00000
     83      -1.8412     -0.00000
     84      -1.7447     -0.00000
     85      -1.3472     -0.00000
     86      -0.9910      0.00000
     87      -0.8952      0.00000
     88      -0.6353      0.00000
     89      -0.2586      0.00000
     90      -0.1976      0.00000
     91      -0.0826      0.00000
     92       0.2346      0.00000


--------------------------------------------------------------------------------------------------------


 soft charge-density along one line, spin component           1
         0         1         2         3         4         5         6         7         8         9
 total charge-density along one line
 
 soft charge-density along one line, spin component           2
         0         1         2         3         4         5         6         7         8         9
 total charge-density along one line
 
 pseudopotential strength for first ion, spin component:           1
-10.567   0.009  -0.019   0.004  -0.010   1.058  -0.007   0.016
  0.009 -10.545  -0.005   0.009   0.002  -0.007   1.042   0.004
 -0.019  -0.005 -10.524   0.005  -0.015   0.016   0.004   1.024
  0.004   0.009   0.005 -10.526   0.003  -0.003  -0.009  -0.004
 -0.010   0.002  -0.015   0.003 -10.549   0.007  -0.001   0.012
  1.058  -0.007   0.016  -0.003   0.007   6.264   0.004  -0.013
 -0.007   1.042   0.004  -0.009  -0.001   0.004   6.273  -0.003
  0.016   0.004   1.024  -0.004   0.012  -0.013  -0.003   6.286
 -0.003  -0.009  -0.004   1.025  -0.002   0.002   0.009   0.003
  0.007  -0.001   0.012  -0.002   1.045  -0.005   0.001  -0.009
 -0.008   0.000  -0.005  -0.002  -0.005   0.005  -0.000  -0.000
 -0.014   0.000  -0.009  -0.003  -0.009   0.010  -0.000  -0.001
 -0.013  -0.000   0.005  -0.001   0.009   0.009   0.000  -0.004
 -0.001  -0.007  -0.000  -0.012  -0.000   0.000   0.005   0.000
 -0.006  -0.001   0.008  -0.001  -0.013   0.003   0.000  -0.006
 -0.014  -0.001   0.005  -0.001   0.010   0.009   0.000  -0.004
 -0.001  -0.007  -0.001  -0.013  -0.000   0.001   0.004   0.000
 -0.005  -0.001   0.009  -0.001  -0.014   0.002   0.001  -0.006
 pseudopotential strength for first ion, spin component:           2
-10.523   0.005  -0.010  -0.005   0.005   1.023  -0.004   0.008
  0.005 -10.531  -0.006   0.009  -0.002  -0.004   1.029   0.005
 -0.010  -0.006 -10.509   0.003  -0.011   0.008   0.005   1.012
 -0.005   0.009   0.003 -10.510  -0.000   0.004  -0.008  -0.003
  0.005  -0.002  -0.011  -0.000 -10.532  -0.004   0.001   0.009
  1.023  -0.004   0.008   0.004  -0.004   6.287   0.003  -0.006
 -0.004   1.029   0.005  -0.008   0.001   0.003   6.280  -0.003
  0.008   0.005   1.012  -0.003   0.009  -0.006  -0.003   6.292
  0.004  -0.008  -0.003   1.012   0.000  -0.002   0.006   0.002
 -0.004   0.001   0.009   0.000   1.030   0.002  -0.001  -0.006
 -0.003   0.001  -0.002  -0.001  -0.003   0.001   0.000  -0.002
 -0.006   0.001  -0.004  -0.003  -0.006   0.002   0.001  -0.003
 -0.014  -0.000   0.005   0.000   0.008   0.012  -0.001  -0.005
  0.000  -0.008   0.000  -0.014   0.000  -0.000   0.007  -0.001
 -0.009   0.000   0.009   0.001  -0.015   0.007  -0.000  -0.008
 -0.016  -0.000   0.006   0.000   0.009   0.014  -0.001  -0.006
  0.000  -0.009   0.001  -0.016   0.001  -0.001   0.007  -0.002
 -0.010   0.000   0.010   0.001  -0.016   0.008  -0.001  -0.009
 total augmentation occupancy for first ion, spin component:           1
  1.933   0.006  -0.008   0.001  -0.004  -0.011  -0.004   0.007  -0.001   0.003  -0.015   0.013   0.037  -0.004   0.033  -0.020
  0.006   1.927  -0.006   0.008  -0.001  -0.004  -0.018   0.005  -0.001   0.001  -0.006  -0.001  -0.003   0.038  -0.005  -0.000
 -0.008  -0.006   1.946   0.003  -0.005   0.007   0.005  -0.027  -0.003   0.005  -0.014   0.009  -0.010   0.001  -0.017   0.006
  0.001   0.008   0.003   1.938  -0.004  -0.001  -0.001  -0.003  -0.022   0.002   0.004   0.002   0.003   0.059  -0.003  -0.000
 -0.004  -0.001  -0.005  -0.004   1.939   0.003   0.001   0.005   0.002  -0.016  -0.010   0.007  -0.012   0.007   0.032   0.012
 -0.011  -0.004   0.007  -0.001   0.003   0.014  -0.000   0.002   0.000   0.001  -0.026   0.000   0.022  -0.000   0.007  -0.001
 -0.004  -0.018   0.005  -0.001   0.001  -0.000   0.008   0.000   0.001  -0.000   0.004  -0.001  -0.001   0.013   0.001  -0.000
  0.007   0.005  -0.027  -0.003   0.005   0.002   0.000   0.007  -0.000   0.001  -0.037   0.005  -0.006  -0.002  -0.007   0.001
 -0.001  -0.001  -0.003  -0.022   0.002   0.000   0.001  -0.000   0.009  -0.001  -0.012   0.001  -0.002   0.020  -0.003   0.000
  0.003   0.001   0.005   0.002  -0.016   0.001  -0.000   0.001  -0.001   0.013  -0.019   0.001  -0.020  -0.003   0.021   0.001
 -0.015  -0.006  -0.014   0.004  -0.010  -0.026   0.004  -0.037  -0.012  -0.019   1.646  -0.117   0.120  -0.013   0.184  -0.016
  0.013  -0.001   0.009   0.002   0.007   0.000  -0.001   0.005   0.001   0.001  -0.117   0.014  -0.017   0.002  -0.026   0.002
  0.037  -0.003  -0.010   0.003  -0.012   0.022  -0.001  -0.006  -0.002  -0.020   0.120  -0.017   0.186   0.001  -0.038  -0.012
 -0.004   0.038   0.001   0.059   0.007  -0.000   0.013  -0.002   0.020  -0.003  -0.013   0.002   0.001   0.091  -0.011  -0.000
  0.033  -0.005  -0.017  -0.003   0.032   0.007   0.001  -0.007  -0.003   0.021   0.184  -0.026  -0.038  -0.011   0.137   0.001
 -0.020  -0.000   0.006  -0.000   0.012  -0.001  -0.000   0.001   0.000   0.001  -0.016   0.002  -0.012  -0.000   0.001   0.001
  0.000  -0.013   0.000  -0.022   0.000  -0.000  -0.001   0.000  -0.001   0.000   0.001  -0.000  -0.001  -0.006   0.001   0.000
 -0.012  -0.000   0.010   0.000  -0.020  -0.000  -0.000   0.001   0.000  -0.001  -0.025   0.003   0.001   0.001  -0.010   0.000
 total augmentation occupancy for first ion, spin component:           2
  0.018  -0.003   0.003  -0.006   0.008  -0.003   0.000  -0.002   0.001  -0.002   0.034   0.006  -0.012   0.007  -0.017  -0.001
 -0.003   0.001  -0.001   0.002  -0.001   0.000   0.001   0.000   0.001   0.001  -0.005  -0.001   0.002  -0.003   0.003   0.000
  0.003  -0.001   0.002  -0.002   0.001  -0.002   0.000   0.001   0.000  -0.001   0.005   0.000  -0.001   0.004  -0.001   0.000
 -0.006   0.002  -0.002   0.003  -0.002   0.001   0.001   0.000   0.002   0.000  -0.010  -0.002   0.003  -0.006   0.006   0.000
  0.008  -0.001   0.001  -0.002   0.003  -0.002   0.001  -0.001   0.000   0.001   0.015   0.003  -0.002   0.003  -0.010  -0.000
 -0.003   0.000  -0.002   0.001  -0.002   0.001  -0.000   0.000  -0.000   0.000  -0.008  -0.001   0.002  -0.002   0.004   0.000
  0.000   0.001   0.000   0.001   0.001  -0.000  -0.000  -0.000  -0.000  -0.000   0.001   0.000  -0.000   0.000  -0.001  -0.000
 -0.002   0.000   0.001   0.000  -0.001   0.000  -0.000   0.000  -0.000   0.000  -0.002  -0.000   0.001  -0.000   0.001   0.000
  0.001   0.001   0.000   0.002   0.000  -0.000  -0.000  -0.000  -0.000  -0.000   0.002   0.000  -0.001   0.000  -0.001  -0.000
 -0.002   0.001  -0.001   0.000   0.001   0.000  -0.000   0.000  -0.000  -0.000  -0.003  -0.000   0.002  -0.001   0.001  -0.000
  0.034  -0.005   0.005  -0.010   0.015  -0.008   0.001  -0.002   0.002  -0.003   0.081   0.005  -0.020   0.017  -0.037  -0.000
  0.006  -0.001   0.000  -0.002   0.003  -0.001   0.000  -0.000   0.000  -0.000   0.005   0.001  -0.001   0.001  -0.002  -0.000
 -0.012   0.002  -0.001   0.003  -0.002   0.002  -0.000   0.001  -0.001   0.002  -0.020  -0.001   0.004  -0.003   0.006   0.000
  0.007  -0.003   0.004  -0.006   0.003  -0.002   0.000  -0.000   0.000  -0.001   0.017   0.001  -0.003   0.003  -0.006  -0.000
 -0.017   0.003  -0.001   0.006  -0.010   0.004  -0.001   0.001  -0.001   0.001  -0.037  -0.002   0.006  -0.006   0.013   0.000
 -0.001   0.000   0.000   0.000  -0.000   0.000  -0.000   0.000  -0.000  -0.000  -0.000  -0.000   0.000  -0.000   0.000   0.000
  0.000  -0.001   0.000  -0.001   0.000   0.000  -0.000  -0.000   0.000   0.000  -0.000   0.000   0.000   0.000   0.000  -0.000
 -0.001   0.000   0.000   0.001  -0.001   0.000   0.000   0.000  -0.000   0.000  -0.000  -0.000   0.000  -0.000   0.000   0.000


------------------------ aborting loop because EDIFF is reached ----------------------------------------


    CHARGE:  cpu time    0.6878: real time    0.6904
    FORLOC:  cpu time    0.0654: real time    0.0654
    FORNL :  cpu time    1.5378: real time    1.5399
    STRESS:  cpu time    6.0164: real time    6.0297
    FORCOR:  cpu time    1.1427: real time    1.1463
    FORHAR:  cpu time    0.1867: real time    0.1869
    MIXING:  cpu time    0.1110: real time    0.1115
    OFIELD:  cpu time    0.0000: real time    0.0000

  FORCE on cell =-STRESS in cart. coord.  units (eV):
  Direction    XX          YY          ZZ          XY          YZ          ZX
  --------------------------------------------------------------------------------------
  Alpha Z    41.16233    41.16233    41.16233
  Ewald   10293.68996  7452.93186 -1395.97025  -794.51860   326.32032    92.77646
  Hartree 15417.25023 12934.94460  4972.60100  -727.88295   307.94707    31.96345
  E(xc)    -876.14482  -877.61258  -879.23331    -0.01508     0.01587     0.31371
  Local  -27110.41885-21820.44022 -5013.60768  1524.70335  -634.37686  -116.98404
  n-local  -326.57106  -320.27821  -325.80907    -1.85064    -0.60342     0.39505
  augment  1222.67022  1226.89325  1232.21996     0.18777     0.16525    -1.85744
  Kinetic  1334.86729  1362.61204  1368.59151    -1.66182    -0.71247    -5.73566
  Fock        0.00000     0.00000     0.00000     0.00000     0.00000     0.00000
  -------------------------------------------------------------------------------------
  Total      -3.49469     0.21308    -0.04552    -1.03797    -1.24424     0.87152
  in kB      -1.65900     0.10115    -0.02161    -0.49275    -0.59066     0.41373
  external pressure =       -0.53 kB  Pullay stress =        0.00 kB


 VOLUME and BASIS-vectors are now :
 -----------------------------------------------------------------------------
  energy-cutoff  :      600.00
  volume of cell :     3375.00
      direct lattice vectors                 reciprocal lattice vectors
    15.000000000  0.000000000  0.000000000     0.066666667  0.000000000  0.000000000
     0.000000000 15.000000000  0.000000000     0.000000000  0.066666667  0.000000000
     0.000000000  0.000000000 15.000000000     0.000000000  0.000000000  0.066666667

  length of vectors
    15.000000000 15.000000000 15.000000000     0.066666667  0.066666667  0.066666667


 FORCES acting on ions
    electron-ion (+dipol)            ewald-force                    non-local-force                 convergence-correction
 -----------------------------------------------------------------------------------------------
   0.109E+04 0.694E+03 -.335E+02   -.109E+04 -.691E+03 0.336E+02   -.484E+01 -.305E+01 0.112E+00   -.479E-04 -.141E-04 0.145E-04
   0.459E+03 -.316E+03 0.938E+03   -.457E+03 0.313E+03 -.938E+03   -.106E+01 0.287E+01 0.191E+00   -.220E-04 0.162E-04 -.565E-04
   0.305E+03 0.127E+04 -.196E+03   -.302E+03 -.126E+04 0.194E+03   -.213E+01 -.889E+01 0.226E+01   -.161E-06 -.372E-04 0.222E-04
   -.820E+03 -.149E+03 0.893E+03   0.819E+03 0.148E+03 -.888E+03   0.113E+01 0.110E+01 -.473E+01   0.473E-04 0.194E-04 0.773E-05
   -.831E+03 0.102E+04 0.130E+03   0.827E+03 -.101E+04 -.129E+03   0.485E+01 -.621E+01 -.797E+00   0.317E-04 0.347E-06 0.214E-04
   -.165E+03 0.481E+03 -.978E+03   0.164E+03 -.478E+03 0.977E+03   0.129E+01 -.319E+01 0.639E+00   0.351E-04 -.748E-05 0.669E-04
   0.168E+03 0.640E+03 0.121E+04   -.168E+03 -.636E+03 -.120E+04   -.695E+00 -.443E+01 -.584E+01   -.146E-05 -.172E-05 -.320E-04
   0.128E+04 -.355E+03 0.128E+03   -.128E+04 0.352E+03 -.126E+03   -.912E+01 0.257E+01 -.256E+01   -.369E-04 -.429E-05 -.624E-05
   0.552E+03 -.169E+03 -.124E+04   -.548E+03 0.169E+03 0.124E+04   -.337E+01 0.120E+00 0.706E+01   0.811E-06 -.348E-05 0.340E-04
   0.453E+03 -.127E+04 -.148E+03   -.451E+03 0.127E+04 0.146E+03   -.278E+01 0.716E+01 0.146E+01   -.122E-04 0.390E-04 0.933E-06
   -.469E+03 -.104E+04 0.733E+03   0.465E+03 0.104E+04 -.726E+03   0.393E+01 0.613E+01 -.713E+01   0.151E-04 0.743E-05 0.669E-07
   -.858E+03 -.107E+02 -.331E+03   0.857E+03 0.971E+01 0.328E+03   0.223E+00 0.794E+00 0.287E+01   -.345E-04 0.152E-05 -.815E-05
   -.585E+03 -.750E+03 -.820E+03   0.582E+03 0.747E+03 0.817E+03   0.343E+01 0.290E+01 0.302E+01   0.520E-04 -.585E-05 0.291E-04
   -.132E+03 -.264E+01 -.133E+03   0.117E+03 0.130E+01 0.132E+03   0.196E+02 0.166E+01 0.197E+01   -.166E-04 -.167E-05 -.640E-05
   -.407E+03 -.292E+02 -.138E+03   0.459E+03 0.335E+02 0.146E+03   -.561E+02 -.463E+01 -.802E+01   0.309E-04 0.210E-05 -.155E-05
 -----------------------------------------------------------------------------------------------
   0.457E+02 0.511E+01 0.948E+01   -.455E-12 0.178E-12 -.654E-12   -.457E+02 -.511E+01 -.948E+01   0.411E-04 0.102E-04 0.860E-04
 
 
 POSITION                                       TOTAL-FORCE (eV/Angst)
 -----------------------------------------------------------------------------------
      4.38919      6.28303      8.31977         0.099802     -0.041854      0.151013
      5.56137      8.15956      7.33796         0.388348      0.313271      0.033867
      5.91948      4.38336      8.40879         0.045465     -0.104533      0.223234
      8.00283      7.54868      7.20939        -0.224279      0.368073     -0.003295
      8.21815      5.20493      7.99893         0.249638      0.138822     -0.106643
      6.73310      6.57183      9.24339         0.012239     -0.011971     -0.261063
      6.29223      5.97770      6.70259        -0.165095     -0.177601      0.100913
      3.42649      8.52765      8.29893        -0.606098      0.226232     -0.260732
      4.98786      8.17470      9.93326         0.528667     -0.188768     -0.084910
      5.26512     10.21120      8.55422        -0.199402      0.178052     -0.092357
      7.28499      9.96660      7.11305        -0.109069     -0.044305     -0.152059
      9.47699      7.30134      8.97260        -0.879943     -0.212689      0.053159
      7.19748      8.94873      9.18458         0.390176     -0.494853      0.203132
     11.08190      7.44133      9.73189         3.811219      0.316859      0.621282
     12.26120      7.53947      9.90230        -3.341669     -0.264736     -0.425542
 -----------------------------------------------------------------------------------
    total drift:                                0.001435      0.000591      0.000337


--------------------------------------------------------------------------------------------------------



  FREE ENERGIE OF THE ION-ELECTRON SYSTEM (eV)
  ---------------------------------------------------
  free  energy   TOTEN  =       -48.78056278 eV

  energy  without entropy=      -48.78981596  energy(sigma->0) =      -48.78364717
 


--------------------------------------------------------------------------------------------------------


    POTLOK:  cpu time    1.1540: real time    1.1564


--------------------------------------------------------------------------------------------------------


     LOOP+:  cpu time  343.5724: real time  344.1225
    4ORBIT:  cpu time    0.0000: real time    0.0000

 total amount of memory used by VASP MPI-rank0   158680. kBytes
=======================================================================

   base      :      30000. kBytes
   nonl-proj :      12601. kBytes
   fftplans  :      27994. kBytes
   grid      :      74150. kBytes
   one-center:         93. kBytes
   wavefun   :      13842. kBytes
 
  
  
 General timing and accounting informations for this job:
 ========================================================
  
                  Total CPU time used (sec):      347.531
                            User time (sec):      336.211
                          System time (sec):       11.320
                         Elapsed time (sec):      348.130
  
                   Maximum memory used (kb):      281080.
                   Average memory used (kb):           0.
  
                          Minor page faults:       286605
                          Major page faults:            0
                 Voluntary context switches:          784
