<?xml version="1.0" encoding="ISO-8859-1"?>
<modeling>
 <generator>
  <i name="program" type="string">vasp </i>
  <i name="version" type="string">5.4.4.18Apr17-6-g9f103f2a35  </i>
  <i name="subversion" type="string">(build May 08 2019 13:49:07) complex            parallel </i>
  <i name="platform" type="string">LinuxIFC </i>
  <i name="date" type="string">2019 11 13 </i>
  <i name="time" type="string">12:02:10 </i>
 </generator>
 <incar>
  <i type="string" name="SYSTEM"> CuCO</i>
  <i type="int" name="ISTART">     0</i>
  <i type="string" name="PREC">accurate</i>
  <i type="string" name="ALGO"> Fast</i>
  <i type="int" name="ISPIN">     2</i>
  <i type="int" name="INIWAV">     1</i>
  <i type="int" name="NELM">   300</i>
  <i type="int" name="NELMIN">     3</i>
  <i type="int" name="IBRION">    -1</i>
  <i name="EDIFF">      0.00000010</i>
  <i name="EDIFFG">     -0.00100000</i>
  <i type="int" name="NSW">     0</i>
  <i type="int" name="ISYM">     0</i>
  <i name="ENCUT">    600.00000000</i>
  <i name="NUPDOWN">      1.00000000</i>
  <i type="logical" name="LREAL"> F  </i>
  <i type="int" name="ISMEAR">     1</i>
  <i name="SIGMA">      0.10000000</i>
  <i name="KSPACING">      0.50000000</i>
  <i type="logical" name="KGAMMA"> F  </i>
  <i type="logical" name="LWAVE"> F  </i>
  <i type="logical" name="LCHARG"> F  </i>
  <v type="int" name="KPOINT_BSE">    -1     0     0     0</v>
  <i type="int" name="NELM">   300</i>
  <i type="string" name="GGA"> PE</i>
 </incar>
 <structure name="primitive_cell" >
  <crystal>
   <varray name="basis" >
    <v>      15.00000000       0.00000000       0.00000000 </v>
    <v>       0.00000000      15.00000000       0.00000000 </v>
    <v>       0.00000000       0.00000000      15.00000000 </v>
   </varray>
   <i name="volume">   3375.00000000 </i>
   <varray name="rec_basis" >
    <v>       0.06666667       0.00000000       0.00000000 </v>
    <v>       0.00000000       0.06666667       0.00000000 </v>
    <v>       0.00000000       0.00000000       0.06666667 </v>
   </varray>
  </crystal>
  <varray name="positions" >
   <v>       0.29261267       0.41886867      -0.44534867 </v>
   <v>       0.37075800      -0.45602933       0.48919733 </v>
   <v>       0.39463200       0.29222400      -0.43941400 </v>
   <v>       0.22843267      -0.43149000      -0.44673800 </v>
   <v>       0.41948200       0.39851333       0.44683933 </v>
   <v>       0.44887333       0.43812200      -0.38377400 </v>
   <v>       0.33252400      -0.45502000      -0.33778267 </v>
   <v>       0.47983200      -0.40341800      -0.38769467 </v>
   <v>      -0.46647800      -0.49675467       0.48062600 </v>
   <v>      -0.45212333       0.34699533      -0.46673800 </v>
   <v>       0.35100800      -0.31925333      -0.42971867 </v>
   <v>       0.48566600      -0.33556000       0.47420333 </v>
   <v>      -0.36820067       0.48675600      -0.40182667 </v>
   <v>      -0.26120667       0.49608867      -0.35120733 </v>
   <v>      -0.18258667      -0.49736867      -0.33984667 </v>
  </varray>
 </structure>
 <varray name="primitive_index" >
  <v type="int" >        1 </v>
  <v type="int" >        2 </v>
  <v type="int" >        3 </v>
  <v type="int" >        8 </v>
  <v type="int" >        7 </v>
  <v type="int" >        6 </v>
  <v type="int" >        9 </v>
  <v type="int" >       13 </v>
  <v type="int" >        4 </v>
  <v type="int" >        5 </v>
  <v type="int" >       10 </v>
  <v type="int" >       11 </v>
  <v type="int" >       12 </v>
  <v type="int" >       14 </v>
  <v type="int" >       15 </v>
 </varray>
 <kpoints>
  <generation param="Monkhorst-Pack">
   <v type="int" name="divisions">       1        1        1 </v>
   <v name="usershift">      0.00000000       0.00000000       0.00000000 </v>
   <v name="genvec1">      1.00000000       0.00000000       0.00000000 </v>
   <v name="genvec2">      0.00000000       1.00000000       0.00000000 </v>
   <v name="genvec3">      0.00000000       0.00000000       1.00000000 </v>
   <v name="shift">      0.00000000       0.00000000       0.00000000 </v>
  </generation>
  <varray name="kpointlist" >
   <v>       0.00000000       0.00000000       0.00000000 </v>
  </varray>
  <varray name="weights" >
   <v>       1.00000000 </v>
  </varray>
 </kpoints>
 <parameters>
  <separator name="general" >
   <i type="string" name="SYSTEM">CuCO</i>
   <i type="logical" name="LCOMPAT"> F  </i>
  </separator>
  <separator name="electronic" >
   <i type="string" name="PREC">accura</i>
   <i name="ENMAX">    600.00000000</i>
   <i name="ENAUG">    644.87300000</i>
   <i name="EDIFF">      0.00000010</i>
   <i type="int" name="IALGO">    68</i>
   <i type="int" name="IWAVPR">    10</i>
   <i type="int" name="NBANDS">    92</i>
   <i name="NELECT">    153.00000000</i>
   <i type="int" name="TURBO">     0</i>
   <i type="int" name="IRESTART">     0</i>
   <i type="int" name="NREBOOT">     0</i>
   <i type="int" name="NMIN">     0</i>
   <i name="EREF">      0.00000000</i>
   <separator name="electronic smearing" >
    <i type="int" name="ISMEAR">     1</i>
    <i name="SIGMA">      0.10000000</i>
    <i name="KSPACING">      0.50000000</i>
    <i type="logical" name="KGAMMA"> F  </i>
   </separator>
   <separator name="electronic projectors" >
    <i type="logical" name="LREAL"> F  </i>
    <v name="ROPT">      0.00000000      0.00000000      0.00000000</v>
    <i type="int" name="LMAXPAW">  -100</i>
    <i type="int" name="LMAXMIX">     2</i>
    <i type="logical" name="NLSPLINE"> F  </i>
   </separator>
   <separator name="electronic startup" >
    <i type="int" name="ISTART">     0</i>
    <i type="int" name="ICHARG">     2</i>
    <i type="int" name="INIWAV">     1</i>
   </separator>
   <separator name="electronic spin" >
    <i type="int" name="ISPIN">     2</i>
    <i type="logical" name="LNONCOLLINEAR"> F  </i>
    <v name="MAGMOM">      0.06666667      0.06666667      0.06666667      0.06666667      0.06666667      0.06666667      0.06666667      0.06666667      0.06666667      0.06666667      0.06666667      0.06666667      0.06666667      0.06666667      0.06666667</v>
    <i name="NUPDOWN">      1.00000000</i>
    <i type="logical" name="LSORBIT"> F  </i>
    <v name="SAXIS">      0.00000000      0.00000000      1.00000000</v>
    <i type="logical" name="LSPIRAL"> F  </i>
    <v name="QSPIRAL">      0.00000000      0.00000000      0.00000000</v>
    <i type="logical" name="LZEROZ"> F  </i>
   </separator>
   <separator name="electronic exchange-correlation" >
    <i type="logical" name="LASPH"> F  </i>
    <i type="logical" name="LMETAGGA"> F  </i>
   </separator>
   <separator name="electronic convergence" >
    <i type="int" name="NELM">   300</i>
    <i type="int" name="NELMDL">    -5</i>
    <i type="int" name="NELMIN">     3</i>
    <i name="ENINI">    600.00000000</i>
    <separator name="electronic convergence detail" >
     <i type="logical" name="LDIAG"> T  </i>
     <i type="logical" name="LSUBROT"> F  </i>
     <i name="WEIMIN">      0.00000000</i>
     <i name="EBREAK">      0.00000000</i>
     <i name="DEPER">      0.30000000</i>
     <i type="int" name="NRMM">     4</i>
     <i name="TIME">      0.40000000</i>
    </separator>
   </separator>
   <separator name="electronic mixer" >
    <i name="AMIX">      0.40000000</i>
    <i name="BMIX">      1.00000000</i>
    <i name="AMIN">      0.10000000</i>
    <i name="AMIX_MAG">      1.60000000</i>
    <i name="BMIX_MAG">      1.00000000</i>
    <separator name="electronic mixer details" >
     <i type="int" name="IMIX">     4</i>
     <i type="logical" name="MIXFIRST"> F  </i>
     <i type="int" name="MAXMIX">   -45</i>
     <i name="WC">    100.00000000</i>
     <i type="int" name="INIMIX">     1</i>
     <i type="int" name="MIXPRE">     1</i>
     <i type="int" name="MREMOVE">     5</i>
    </separator>
   </separator>
   <separator name="electronic dipolcorrection" >
    <i type="logical" name="LDIPOL"> F  </i>
    <i type="logical" name="LMONO"> F  </i>
    <i type="int" name="IDIPOL">     0</i>
    <i name="EPSILON">      1.00000000</i>
    <v name="DIPOL">   -100.00000000   -100.00000000   -100.00000000</v>
    <i name="EFIELD">      0.00000000</i>
   </separator>
  </separator>
  <separator name="grids" >
   <i type="int" name="NGX">   120</i>
   <i type="int" name="NGY">   120</i>
   <i type="int" name="NGZ">   120</i>
   <i type="int" name="NGXF">   240</i>
   <i type="int" name="NGYF">   240</i>
   <i type="int" name="NGZF">   240</i>
   <i type="logical" name="ADDGRID"> F  </i>
  </separator>
  <separator name="ionic" >
   <i type="int" name="NSW">     0</i>
   <i type="int" name="IBRION">    -1</i>
   <i type="int" name="MDALGO">     0</i>
   <i type="int" name="ISIF">     2</i>
   <i name="PSTRESS">      0.00000000</i>
   <i name="EDIFFG">     -0.00100000</i>
   <i type="int" name="NFREE">     0</i>
   <i name="POTIM">      0.50000000</i>
   <i name="SMASS">     -3.00000000</i>
   <i name="SCALEE">      1.00000000</i>
  </separator>
  <separator name="ionic md" >
   <i name="TEBEG">      0.00010000</i>
   <i name="TEEND">      0.00010000</i>
   <i type="int" name="NBLOCK">     1</i>
   <i type="int" name="KBLOCK">     1</i>
   <i type="int" name="NPACO">   256</i>
   <i name="APACO">     16.00000000</i>
  </separator>
  <separator name="symmetry" >
   <i type="int" name="ISYM">     0</i>
   <i name="SYMPREC">      0.00001000</i>
  </separator>
  <separator name="dos" >
   <i type="int" name="LORBIT">     0</i>
   <v name="RWIGS">     -1.00000000     -1.00000000     -1.00000000</v>
   <i type="int" name="NEDOS">   301</i>
   <i name="EMIN">     10.00000000</i>
   <i name="EMAX">    -10.00000000</i>
   <i name="EFERMI">      0.00000000</i>
  </separator>
  <separator name="writing" >
   <i type="int" name="NWRITE">     2</i>
   <i type="logical" name="LWAVE"> F  </i>
   <i type="logical" name="LDOWNSAMPLE"> F  </i>
   <i type="logical" name="LCHARG"> F  </i>
   <i type="logical" name="LPARD"> F  </i>
   <i type="logical" name="LVTOT"> F  </i>
   <i type="logical" name="LVHAR"> F  </i>
   <i type="logical" name="LELF"> F  </i>
   <i type="logical" name="LOPTICS"> F  </i>
   <v name="STM">      0.00000000      0.00000000      0.00000000      0.00000000      0.00000000      0.00000000      0.00000000</v>
  </separator>
  <separator name="performance" >
   <i type="int" name="NPAR">     4</i>
   <i type="int" name="NSIM">     4</i>
   <i type="int" name="NBLK">    -1</i>
   <i type="logical" name="LPLANE"> T  </i>
   <i type="logical" name="LSCALAPACK"> T  </i>
   <i type="logical" name="LSCAAWARE"> F  </i>
   <i type="logical" name="LSCALU"> F  </i>
   <i type="logical" name="LASYNC"> F  </i>
   <i type="logical" name="LORBITALREAL"> F  </i>
  </separator>
  <separator name="miscellaneous" >
   <i type="int" name="IDIOT">     3</i>
   <i type="int" name="ISPECIAL">     0</i>
   <i type="logical" name="LMUSIC"> F  </i>
   <v name="POMASS">     63.54600000     12.01100000     16.00000000</v>
   <v name="DARWINR">      0.00000000      0.00000000      0.00000000</v>
   <v name="DARWINV">      1.00000000      1.00000000      1.00000000</v>
   <i type="logical" name="LCORR"> T  </i>
  </separator>
  <i type="logical" name="GGA_COMPAT"> T  </i>
  <i type="logical" name="LBERRY"> F  </i>
  <i type="int" name="ICORELEVEL">     0</i>
  <i type="logical" name="LDAU"> F  </i>
  <i type="int" name="I_CONSTRAINED_M">     0</i>
  <separator name="electronic exchange-correlation" >
   <i type="string" name="GGA">PE</i>
   <i type="int" name="VOSKOWN">     0</i>
   <i type="logical" name="LHFCALC"> F  </i>
   <i type="string" name="PRECFOCK"></i>
   <i type="logical" name="LSYMGRAD"> F  </i>
   <i type="logical" name="LHFONE"> F  </i>
   <i type="logical" name="LRHFCALC"> F  </i>
   <i type="logical" name="LTHOMAS"> F  </i>
   <i type="logical" name="LMODELHF"> F  </i>
   <i name="ENCUT4O">     -1.00000000</i>
   <i type="int" name="EXXOEP">     0</i>
   <i type="int" name="FOURORBIT">     0</i>
   <i name="AEXX">      0.00000000</i>
   <i name="HFALPHA">      0.00000000</i>
   <i name="MCALPHA">      0.00000000</i>
   <i name="ALDAX">      1.00000000</i>
   <i name="AGGAX">      1.00000000</i>
   <i name="ALDAC">      1.00000000</i>
   <i name="AGGAC">      1.00000000</i>
   <i type="int" name="NKREDX">     1</i>
   <i type="int" name="NKREDY">     1</i>
   <i type="int" name="NKREDZ">     1</i>
   <i type="logical" name="SHIFTRED"> F  </i>
   <i type="logical" name="ODDONLY"> F  </i>
   <i type="logical" name="EVENONLY"> F  </i>
   <i type="int" name="LMAXFOCK">     0</i>
   <i type="int" name="NMAXFOCKAE">     0</i>
   <i type="logical" name="LFOCKAEDFT"> F  </i>
   <i name="HFSCREEN">      0.00000000</i>
   <i name="HFSCREENC">      0.00000000</i>
   <i type="int" name="NBANDSGWLOW">     0</i>
  </separator>
  <separator name="vdW DFT" >
   <i type="logical" name="LUSE_VDW"> F  </i>
   <i name="Zab_VDW">     -0.84910000</i>
   <i name="PARAM1">      0.12340000</i>
   <i name="PARAM2">      1.00000000</i>
   <i name="PARAM3">      0.00000000</i>
  </separator>
  <separator name="model GW" >
   <i type="int" name="MODEL_GW">     0</i>
   <i name="MODEL_EPS0">    135.00000000</i>
   <i name="MODEL_ALPHA">      1.00000000</i>
  </separator>
  <separator name="linear response parameters" >
   <i type="logical" name="LEPSILON"> F  </i>
   <i type="logical" name="LRPA"> F  </i>
   <i type="logical" name="LNABLA"> F  </i>
   <i type="logical" name="LVEL"> F  </i>
   <i type="int" name="KINTER">     0</i>
   <i name="CSHIFT">      0.10000000</i>
   <i name="OMEGAMAX">     -1.00000000</i>
   <i name="DEG_THRESHOLD">      0.00200000</i>
   <i name="RTIME">     -0.10000000</i>
   <i name="WPLASMAI">      0.00000000</i>
   <v name="DFIELD">      0.00000000      0.00000000      0.00000000</v>
   <v name="WPLASMA">      0.00000000      0.00000000      0.00000000      0.00000000      0.00000000      0.00000000      0.00000000      0.00000000      0.00000000</v>
  </separator>
  <separator name="orbital magnetization" >
   <i type="logical" name="NUCIND"> F  </i>
   <v name="MAGPOS">      0.00000000      0.00000000      0.00000000</v>
   <i type="logical" name="LNICSALL"> T  </i>
   <i type="logical" name="ORBITALMAG"> F  </i>
   <i type="logical" name="LMAGBLOCH"> F  </i>
   <i type="logical" name="LCHIMAG"> F  </i>
   <i type="logical" name="LGAUGE"> T  </i>
   <i type="int" name="MAGATOM">     0</i>
   <v name="MAGDIPOL">      0.00000000      0.00000000      0.00000000</v>
   <v name="AVECCONST">      0.00000000      0.00000000      0.00000000</v>
  </separator>
  <separator name="response functions" >
   <i type="logical" name="LADDER"> F  </i>
   <i type="logical" name="LRPAFORCE"> F  </i>
   <i type="logical" name="LFXC"> F  </i>
   <i type="logical" name="LHARTREE"> T  </i>
   <i type="int" name="IBSE">     0</i>
   <v type="int" name="KPOINT">    -1     0     0     0</v>
   <i type="logical" name="LTCTE"> F  </i>
   <i type="logical" name="LTETE"> F  </i>
   <i type="logical" name="LTRIPLET"> F  </i>
   <i type="logical" name="LFXCEPS"> F  </i>
   <i type="logical" name="LFXHEG"> F  </i>
   <i type="int" name="NATURALO">     2</i>
   <i type="logical" name="L2ORDER"> F  </i>
   <i type="logical" name="LMP2LT"> F  </i>
   <i type="logical" name="LUSEW"> F  </i>
   <i name="ENCUTGW">     -2.00000000</i>
   <i name="ENCUTGWSOFT">     -2.00000000</i>
   <i name="ENCUTLF">     -1.00000000</i>
   <i type="int" name="LMAXMP2">    -1</i>
   <i name="SCISSOR">      0.00000000</i>
   <i type="int" name="NOMEGA">     0</i>
   <i type="int" name="NOMEGAR">     0</i>
   <i type="int" name="NBANDSGW">    -1</i>
   <i type="int" name="NBANDSO">    -1</i>
   <i type="int" name="NBANDSV">    -1</i>
   <i type="int" name="NELM">   300</i>
   <i type="int" name="NELMHF">     1</i>
   <i type="int" name="DIM">     3</i>
   <i type="int" name="ANTIRES">     0</i>
   <i name="OMEGAMAX">    -30.00000000</i>
   <i name="OMEGAMIN">    -30.00000000</i>
   <i name="OMEGATL">   -200.00000000</i>
   <i type="int" name="OMEGAGRID">   140</i>
   <i name="CSHIFT">     -0.10000000</i>
   <i type="logical" name="SELFENERGY"> F  </i>
   <i type="logical" name="LSPECTRAL"> F  </i>
   <i type="logical" name="LSPECTRALGW"> F  </i>
   <i type="logical" name="LSINGLES"> F  </i>
   <i type="logical" name="LFERMIGW"> F  </i>
   <i type="logical" name="ODDONLYGW"> F  </i>
   <i type="logical" name="EVENONLYGW"> F  </i>
   <i type="int" name="NKREDLFX">     1</i>
   <i type="int" name="NKREDLFY">     1</i>
   <i type="int" name="NKREDLFZ">     1</i>
   <i type="int" name="MAXMEM">  2800</i>
   <i type="int" name="TELESCOPE">     0</i>
   <i type="int" name="TAUPAR">     1</i>
   <i type="int" name="OMEGAPAR">    -1</i>
   <i name="LAMBDA">      1.00000000</i>
  </separator>
  <separator name="External order field" >
   <i name="OFIELD_KAPPA">      0.00000000</i>
   <v name="OFIELD_K">      0.00000000      0.00000000      0.00000000</v>
   <i name="OFIELD_Q6_NEAR">      0.00000000</i>
   <i name="OFIELD_Q6_FAR">      0.00000000</i>
   <i name="OFIELD_A">      0.00000000</i>
  </separator>
 </parameters>
 <atominfo>
  <atoms>      15 </atoms>
  <types>       3 </types>
  <array name="atoms" >
   <dimension dim="1">ion</dimension>
   <field type="string">element</field>
   <field type="int">atomtype</field>
   <set>
    <rc><c>Cu</c><c>   1</c></rc>
    <rc><c>Cu</c><c>   1</c></rc>
    <rc><c>Cu</c><c>   1</c></rc>
    <rc><c>Cu</c><c>   1</c></rc>
    <rc><c>Cu</c><c>   1</c></rc>
    <rc><c>Cu</c><c>   1</c></rc>
    <rc><c>Cu</c><c>   1</c></rc>
    <rc><c>Cu</c><c>   1</c></rc>
    <rc><c>Cu</c><c>   1</c></rc>
    <rc><c>Cu</c><c>   1</c></rc>
    <rc><c>Cu</c><c>   1</c></rc>
    <rc><c>Cu</c><c>   1</c></rc>
    <rc><c>Cu</c><c>   1</c></rc>
    <rc><c>C </c><c>   2</c></rc>
    <rc><c>O </c><c>   3</c></rc>
   </set>
  </array>
  <array name="atomtypes" >
   <dimension dim="1">type</dimension>
   <field type="int">atomspertype</field>
   <field type="string">element</field>
   <field>mass</field>
   <field>valence</field>
   <field type="string">pseudopotential</field>
   <set>
    <rc><c>  13</c><c>Cu</c><c>     63.54600000</c><c>     11.00000000</c><c>  PAW_PBE Cu 22Jun2005                  </c></rc>
    <rc><c>   1</c><c>C </c><c>     12.01100000</c><c>      4.00000000</c><c>  PAW_PBE C 08Apr2002                   </c></rc>
    <rc><c>   1</c><c>O </c><c>     16.00000000</c><c>      6.00000000</c><c>  PAW_PBE O 08Apr2002                   </c></rc>
   </set>
  </array>
 </atominfo>
 <structure name="initialpos" >
  <crystal>
   <varray name="basis" >
    <v>      15.00000000       0.00000000       0.00000000 </v>
    <v>       0.00000000      15.00000000       0.00000000 </v>
    <v>       0.00000000       0.00000000      15.00000000 </v>
   </varray>
   <i name="volume">   3375.00000000 </i>
   <varray name="rec_basis" >
    <v>       0.06666667       0.00000000       0.00000000 </v>
    <v>       0.00000000       0.06666667       0.00000000 </v>
    <v>       0.00000000       0.00000000       0.06666667 </v>
   </varray>
  </crystal>
  <varray name="positions" >
   <v>       0.29261267       0.41886867       0.55465133 </v>
   <v>       0.37075800       0.54397067       0.48919733 </v>
   <v>       0.39463200       0.29222400       0.56058600 </v>
   <v>       0.53352200       0.50324533       0.48062600 </v>
   <v>       0.54787667       0.34699533       0.53326200 </v>
   <v>       0.44887333       0.43812200       0.61622600 </v>
   <v>       0.41948200       0.39851333       0.44683933 </v>
   <v>       0.22843267       0.56851000       0.55326200 </v>
   <v>       0.33252400       0.54498000       0.66221733 </v>
   <v>       0.35100800       0.68074667       0.57028133 </v>
   <v>       0.48566600       0.66444000       0.47420333 </v>
   <v>       0.63179933       0.48675600       0.59817333 </v>
   <v>       0.47983200       0.59658200       0.61230533 </v>
   <v>       0.73879333       0.49608867       0.64879267 </v>
   <v>       0.81741333       0.50263133       0.66015333 </v>
  </varray>
 </structure>
 <calculation>
  <scstep>
   <time name="dav">    7.50    7.51</time>
   <time name="total">    8.67    8.68</time>
   <energy>
    <i name="alphaZ">     41.16232785 </i>
    <i name="ewald">  16350.66746661 </i>
    <i name="hartreedc"> -33374.31922643 </i>
    <i name="XCdc">    623.44288618 </i>
    <i name="pawpsdc">  16421.75059358 </i>
    <i name="pawaedc"> -17800.06104309 </i>
    <i name="eentropy">     -0.02732445 </i>
    <i name="bandstr">    192.17097843 </i>
    <i name="atom">  18662.21924712 </i>
    <i name="e_fr_energy">   1117.00590579 </i>
    <i name="e_wo_entrp">   1117.03323025 </i>
    <i name="e_0_energy">   1117.01501395 </i>
   </energy>
  </scstep>
  <scstep>
   <time name="dav">    7.39    7.40</time>
   <time name="total">    7.39    7.40</time>
   <energy>
    <i name="e_fr_energy">     86.22568173 </i>
    <i name="e_wo_entrp">     86.21969294 </i>
    <i name="e_0_energy">     86.22368547 </i>
   </energy>
  </scstep>
  <scstep>
   <time name="dav">   11.58   11.60</time>
   <time name="total">   11.58   11.60</time>
   <energy>
    <i name="e_fr_energy">    -33.50896264 </i>
    <i name="e_wo_entrp">    -33.52337464 </i>
    <i name="e_0_energy">    -33.51376664 </i>
   </energy>
  </scstep>
  <scstep>
   <time name="dav">   10.32   10.34</time>
   <time name="total">   10.32   10.34</time>
   <energy>
    <i name="e_fr_energy">    -55.70914827 </i>
    <i name="e_wo_entrp">    -55.71814855 </i>
    <i name="e_0_energy">    -55.71214836 </i>
   </energy>
  </scstep>
  <scstep>
   <time name="dav">   11.89   11.91</time>
   <time name="total">   12.58   12.59</time>
   <energy>
    <i name="e_fr_energy">    -57.47601329 </i>
    <i name="e_wo_entrp">    -57.48582081 </i>
    <i name="e_0_energy">    -57.47928247 </i>
   </energy>
  </scstep>
  <scstep>
   <time name="diag">    1.09    1.09</time>
   <time name="diis">    7.03    7.04</time>
   <time name="orth">    0.06    0.06</time>
   <time name="total">    9.99   10.00</time>
   <energy>
    <i name="e_fr_energy">    -57.43205393 </i>
    <i name="e_wo_entrp">    -57.44019999 </i>
    <i name="e_0_energy">    -57.43476928 </i>
   </energy>
  </scstep>
  <scstep>
   <time name="diag">    1.09    1.09</time>
   <time name="diis">    6.17    6.18</time>
   <time name="orth">    0.06    0.06</time>
   <time name="total">    9.13    9.14</time>
   <energy>
    <i name="e_fr_energy">    -49.19477760 </i>
    <i name="e_wo_entrp">    -49.20408610 </i>
    <i name="e_0_energy">    -49.19788043 </i>
   </energy>
  </scstep>
  <scstep>
   <time name="diag">    1.09    1.09</time>
   <time name="diis">    6.76    6.77</time>
   <time name="orth">    0.06    0.06</time>
   <time name="total">    9.72    9.73</time>
   <energy>
    <i name="e_fr_energy">    -48.89643624 </i>
    <i name="e_wo_entrp">    -48.90571033 </i>
    <i name="e_0_energy">    -48.89952760 </i>
   </energy>
  </scstep>
  <scstep>
   <time name="diag">    1.09    1.09</time>
   <time name="diis">    6.84    6.84</time>
   <time name="orth">    0.06    0.06</time>
   <time name="total">    9.85    9.86</time>
   <energy>
    <i name="e_fr_energy">    -48.85237293 </i>
    <i name="e_wo_entrp">    -48.86166937 </i>
    <i name="e_0_energy">    -48.85547174 </i>
   </energy>
  </scstep>
  <scstep>
   <time name="diag">    1.08    1.09</time>
   <time name="diis">    6.97    6.97</time>
   <time name="orth">    0.05    0.05</time>
   <time name="total">    9.97    9.98</time>
   <energy>
    <i name="e_fr_energy">    -48.78534567 </i>
    <i name="e_wo_entrp">    -48.79465640 </i>
    <i name="e_0_energy">    -48.78844925 </i>
   </energy>
  </scstep>
  <scstep>
   <time name="diag">    1.09    1.09</time>
   <time name="diis">    7.32    7.33</time>
   <time name="orth">    0.05    0.05</time>
   <time name="total">   10.32   10.34</time>
   <energy>
    <i name="e_fr_energy">    -48.77611159 </i>
    <i name="e_wo_entrp">    -48.78534904 </i>
    <i name="e_0_energy">    -48.77919074 </i>
   </energy>
  </scstep>
  <scstep>
   <time name="diag">    1.08    1.09</time>
   <time name="diis">    7.13    7.14</time>
   <time name="orth">    0.06    0.06</time>
   <time name="total">   10.15   10.15</time>
   <energy>
    <i name="e_fr_energy">    -48.77372316 </i>
    <i name="e_wo_entrp">    -48.78299756 </i>
    <i name="e_0_energy">    -48.77681463 </i>
   </energy>
  </scstep>
  <scstep>
   <time name="diag">    1.09    1.09</time>
   <time name="diis">    6.88    6.88</time>
   <time name="orth">    0.05    0.05</time>
   <time name="total">    9.89    9.90</time>
   <energy>
    <i name="e_fr_energy">    -48.77254144 </i>
    <i name="e_wo_entrp">    -48.78179653 </i>
    <i name="e_0_energy">    -48.77562647 </i>
   </energy>
  </scstep>
  <scstep>
   <time name="diag">    1.09    1.09</time>
   <time name="diis">    6.68    6.69</time>
   <time name="orth">    0.05    0.05</time>
   <time name="total">    9.70    9.71</time>
   <energy>
    <i name="e_fr_energy">    -48.77334759 </i>
    <i name="e_wo_entrp">    -48.78261605 </i>
    <i name="e_0_energy">    -48.77643708 </i>
   </energy>
  </scstep>
  <scstep>
   <time name="diag">    1.08    1.09</time>
   <time name="diis">    6.62    6.62</time>
   <time name="orth">    0.05    0.05</time>
   <time name="total">    9.63    9.64</time>
   <energy>
    <i name="e_fr_energy">    -48.77446034 </i>
    <i name="e_wo_entrp">    -48.78372619 </i>
    <i name="e_0_energy">    -48.77754896 </i>
   </energy>
  </scstep>
  <scstep>
   <time name="diag">    1.09    1.09</time>
   <time name="diis">    6.67    6.68</time>
   <time name="orth">    0.05    0.05</time>
   <time name="total">    9.69    9.69</time>
   <energy>
    <i name="e_fr_energy">    -48.77586100 </i>
    <i name="e_wo_entrp">    -48.78511374 </i>
    <i name="e_0_energy">    -48.77894525 </i>
   </energy>
  </scstep>
  <scstep>
   <time name="diag">    1.09    1.09</time>
   <time name="diis">    6.47    6.47</time>
   <time name="orth">    0.05    0.05</time>
   <time name="total">    9.49    9.50</time>
   <energy>
    <i name="e_fr_energy">    -48.77729386 </i>
    <i name="e_wo_entrp">    -48.78654568 </i>
    <i name="e_0_energy">    -48.78037780 </i>
   </energy>
  </scstep>
  <scstep>
   <time name="diag">    1.09    1.09</time>
   <time name="diis">    6.76    6.76</time>
   <time name="orth">    0.05    0.05</time>
   <time name="total">    9.78    9.78</time>
   <energy>
    <i name="e_fr_energy">    -48.77830991 </i>
    <i name="e_wo_entrp">    -48.78756217 </i>
    <i name="e_0_energy">    -48.78139400 </i>
   </energy>
  </scstep>
  <scstep>
   <time name="diag">    1.08    1.09</time>
   <time name="diis">    6.73    6.73</time>
   <time name="orth">    0.05    0.05</time>
   <time name="total">    9.74    9.75</time>
   <energy>
    <i name="e_fr_energy">    -48.77889377 </i>
    <i name="e_wo_entrp">    -48.78814585 </i>
    <i name="e_0_energy">    -48.78197780 </i>
   </energy>
  </scstep>
  <scstep>
   <time name="diag">    1.09    1.09</time>
   <time name="diis">    6.82    6.83</time>
   <time name="orth">    0.05    0.05</time>
   <time name="total">    9.84    9.85</time>
   <energy>
    <i name="e_fr_energy">    -48.77952394 </i>
    <i name="e_wo_entrp">    -48.78877733 </i>
    <i name="e_0_energy">    -48.78260840 </i>
   </energy>
  </scstep>
  <scstep>
   <time name="diag">    1.09    1.09</time>
   <time name="diis">    6.63    6.63</time>
   <time name="orth">    0.05    0.05</time>
   <time name="total">    9.65    9.66</time>
   <energy>
    <i name="e_fr_energy">    -48.77989158 </i>
    <i name="e_wo_entrp">    -48.78914542 </i>
    <i name="e_0_energy">    -48.78297620 </i>
   </energy>
  </scstep>
  <scstep>
   <time name="diag">    1.09    1.09</time>
   <time name="diis">    6.66    6.66</time>
   <time name="orth">    0.05    0.05</time>
   <time name="total">    9.68    9.69</time>
   <energy>
    <i name="e_fr_energy">    -48.78017937 </i>
    <i name="e_wo_entrp">    -48.78943285 </i>
    <i name="e_0_energy">    -48.78326386 </i>
   </energy>
  </scstep>
  <scstep>
   <time name="diag">    1.09    1.09</time>
   <time name="diis">    6.76    6.76</time>
   <time name="orth">    0.06    0.06</time>
   <time name="total">    9.78    9.79</time>
   <energy>
    <i name="e_fr_energy">    -48.78033652 </i>
    <i name="e_wo_entrp">    -48.78958976 </i>
    <i name="e_0_energy">    -48.78342094 </i>
   </energy>
  </scstep>
  <scstep>
   <time name="diag">    1.09    1.09</time>
   <time name="diis">    6.64    6.65</time>
   <time name="orth">    0.05    0.05</time>
   <time name="total">    9.67    9.68</time>
   <energy>
    <i name="e_fr_energy">    -48.78041996 </i>
    <i name="e_wo_entrp">    -48.78967294 </i>
    <i name="e_0_energy">    -48.78350429 </i>
   </energy>
  </scstep>
  <scstep>
   <time name="diag">    1.09    1.09</time>
   <time name="diis">    6.45    6.46</time>
   <time name="orth">    0.05    0.05</time>
   <time name="total">    9.48    9.49</time>
   <energy>
    <i name="e_fr_energy">    -48.78048894 </i>
    <i name="e_wo_entrp">    -48.78974207 </i>
    <i name="e_0_energy">    -48.78357332 </i>
   </energy>
  </scstep>
  <scstep>
   <time name="diag">    1.09    1.09</time>
   <time name="diis">    6.19    6.19</time>
   <time name="orth">    0.05    0.05</time>
   <time name="total">    9.22    9.23</time>
   <energy>
    <i name="e_fr_energy">    -48.78053439 </i>
    <i name="e_wo_entrp">    -48.78978765 </i>
    <i name="e_0_energy">    -48.78361881 </i>
   </energy>
  </scstep>
  <scstep>
   <time name="diag">    1.08    1.09</time>
   <time name="diis">    5.03    5.03</time>
   <time name="orth">    0.05    0.05</time>
   <time name="total">    8.06    8.07</time>
   <energy>
    <i name="e_fr_energy">    -48.78054590 </i>
    <i name="e_wo_entrp">    -48.78979906 </i>
    <i name="e_0_energy">    -48.78363028 </i>
   </energy>
  </scstep>
  <scstep>
   <time name="diag">    1.09    1.09</time>
   <time name="diis">    4.40    4.41</time>
   <time name="orth">    0.05    0.05</time>
   <time name="total">    7.44    7.45</time>
   <energy>
    <i name="e_fr_energy">    -48.78055283 </i>
    <i name="e_wo_entrp">    -48.78980602 </i>
    <i name="e_0_energy">    -48.78363722 </i>
   </energy>
  </scstep>
  <scstep>
   <time name="diag">    1.08    1.09</time>
   <time name="diis">    4.20    4.21</time>
   <time name="orth">    0.05    0.05</time>
   <time name="total">    7.24    7.25</time>
   <energy>
    <i name="e_fr_energy">    -48.78055773 </i>
    <i name="e_wo_entrp">    -48.78981087 </i>
    <i name="e_0_energy">    -48.78364211 </i>
   </energy>
  </scstep>
  <scstep>
   <time name="diag">    1.09    1.09</time>
   <time name="diis">    4.28    4.28</time>
   <time name="orth">    0.05    0.05</time>
   <time name="total">    7.33    7.34</time>
   <energy>
    <i name="e_fr_energy">    -48.78055954 </i>
    <i name="e_wo_entrp">    -48.78981273 </i>
    <i name="e_0_energy">    -48.78364394 </i>
   </energy>
  </scstep>
  <scstep>
   <time name="diag">    1.08    1.09</time>
   <time name="diis">    4.24    4.24</time>
   <time name="orth">    0.05    0.05</time>
   <time name="total">    7.29    7.30</time>
   <energy>
    <i name="e_fr_energy">    -48.78056047 </i>
    <i name="e_wo_entrp">    -48.78981364 </i>
    <i name="e_0_energy">    -48.78364486 </i>
   </energy>
  </scstep>
  <scstep>
   <time name="diag">    1.09    1.09</time>
   <time name="diis">    4.34    4.34</time>
   <time name="orth">    0.05    0.05</time>
   <time name="total">    7.40    7.41</time>
   <energy>
    <i name="e_fr_energy">    -48.78056135 </i>
    <i name="e_wo_entrp">    -48.78981453 </i>
    <i name="e_0_energy">    -48.78364574 </i>
   </energy>
  </scstep>
  <scstep>
   <time name="diag">    1.08    1.09</time>
   <time name="diis">    4.24    4.24</time>
   <time name="orth">    0.05    0.05</time>
   <time name="total">    7.30    7.32</time>
   <energy>
    <i name="e_fr_energy">    -48.78056182 </i>
    <i name="e_wo_entrp">    -48.78981500 </i>
    <i name="e_0_energy">    -48.78364622 </i>
   </energy>
  </scstep>
  <scstep>
   <time name="diag">    1.08    1.09</time>
   <time name="diis">    3.83    3.84</time>
   <time name="orth">    0.05    0.05</time>
   <time name="total">    6.90    6.92</time>
   <energy>
    <i name="e_fr_energy">    -48.78056216 </i>
    <i name="e_wo_entrp">    -48.78981533 </i>
    <i name="e_0_energy">    -48.78364655 </i>
   </energy>
  </scstep>
  <scstep>
   <time name="diag">    1.08    1.09</time>
   <time name="diis">    3.67    3.68</time>
   <time name="orth">    0.05    0.05</time>
   <time name="total">    6.75    6.77</time>
   <energy>
    <i name="e_fr_energy">    -48.78056240 </i>
    <i name="e_wo_entrp">    -48.78981558 </i>
    <i name="e_0_energy">    -48.78364679 </i>
   </energy>
  </scstep>
  <scstep>
   <time name="diag">    1.08    1.09</time>
   <time name="diis">    3.35    3.36</time>
   <time name="orth">    0.05    0.05</time>
   <time name="total">    6.44    6.45</time>
   <energy>
    <i name="e_fr_energy">    -48.78056269 </i>
    <i name="e_wo_entrp">    -48.78981586 </i>
    <i name="e_0_energy">    -48.78364708 </i>
   </energy>
  </scstep>
  <scstep>
   <time name="diag">    1.08    1.09</time>
   <time name="diis">    3.29    3.30</time>
   <time name="orth">    0.05    0.05</time>
   <time name="total">    5.58    5.60</time>
   <energy>
    <i name="alphaZ">     41.16232785 </i>
    <i name="ewald">  16350.66746661 </i>
    <i name="hartreedc"> -33324.79540338 </i>
    <i name="XCdc">    615.32334688 </i>
    <i name="pawpsdc">  17623.26229398 </i>
    <i name="pawaedc"> -19022.32431589 </i>
    <i name="eentropy">      0.00925318 </i>
    <i name="bandstr">   -994.30477913 </i>
    <i name="atom">  18662.21924712 </i>
    <i name="e_fr_energy">    -48.78056278 </i>
    <i name="e_wo_entrp">    -48.78981596 </i>
    <i name="e_0_energy">    -48.78364717 </i>
   </energy>
  </scstep>
  <structure>
   <crystal>
    <varray name="basis" >
     <v>      15.00000000       0.00000000       0.00000000 </v>
     <v>       0.00000000      15.00000000       0.00000000 </v>
     <v>       0.00000000       0.00000000      15.00000000 </v>
    </varray>
    <i name="volume">   3375.00000000 </i>
    <varray name="rec_basis" >
     <v>       0.06666667       0.00000000       0.00000000 </v>
     <v>       0.00000000       0.06666667       0.00000000 </v>
     <v>       0.00000000       0.00000000       0.06666667 </v>
    </varray>
   </crystal>
   <varray name="positions" >
    <v>       0.29261267       0.41886867       0.55465133 </v>
    <v>       0.37075800       0.54397067       0.48919733 </v>
    <v>       0.39463200       0.29222400       0.56058600 </v>
    <v>       0.53352200       0.50324533       0.48062600 </v>
    <v>       0.54787667       0.34699533       0.53326200 </v>
    <v>       0.44887333       0.43812200       0.61622600 </v>
    <v>       0.41948200       0.39851333       0.44683933 </v>
    <v>       0.22843267       0.56851000       0.55326200 </v>
    <v>       0.33252400       0.54498000       0.66221733 </v>
    <v>       0.35100800       0.68074667       0.57028133 </v>
    <v>       0.48566600       0.66444000       0.47420333 </v>
    <v>       0.63179933       0.48675600       0.59817333 </v>
    <v>       0.47983200       0.59658200       0.61230533 </v>
    <v>       0.73879333       0.49608867       0.64879267 </v>
    <v>       0.81741333       0.50263133       0.66015333 </v>
   </varray>
  </structure>
  <varray name="forces" >
   <v>       0.09980165      -0.04185448       0.15101334 </v>
   <v>       0.38834825       0.31327089       0.03386726 </v>
   <v>       0.04546539      -0.10453284       0.22323434 </v>
   <v>      -0.22427872       0.36807335      -0.00329474 </v>
   <v>       0.24963790       0.13882168      -0.10664326 </v>
   <v>       0.01223931      -0.01197078      -0.26106308 </v>
   <v>      -0.16509514      -0.17760080       0.10091311 </v>
   <v>      -0.60609827       0.22623232      -0.26073186 </v>
   <v>       0.52866671      -0.18876751      -0.08491031 </v>
   <v>      -0.19940186       0.17805178      -0.09235718 </v>
   <v>      -0.10906883      -0.04430511      -0.15205944 </v>
   <v>      -0.87994264      -0.21268862       0.05315943 </v>
   <v>       0.39017602      -0.49485293       0.20313233 </v>
   <v>       3.81121930       0.31685927       0.62128210 </v>
   <v>      -3.34166906      -0.26473620      -0.42554203 </v>
  </varray>
  <varray name="stress" >
   <v>      -1.65899654      -0.49274530       0.41372957 </v>
   <v>      -0.49274530       0.10115209      -0.59066442 </v>
   <v>       0.41372958      -0.59066442      -0.02160833 </v>
  </varray>
  <energy>
   <i name="e_fr_energy">    -48.78056278 </i>
   <i name="e_wo_entrp">    -48.78364717 </i>
   <i name="e_0_energy">      0.00925318 </i>
  </energy>
  <time name="totalsc">  343.57  344.12</time>
  <eigenvalues>
   <array>
    <dimension dim="1">band</dimension>
    <dimension dim="2">kpoint</dimension>
    <dimension dim="3">spin</dimension>
    <field>eigene</field>
    <field>occ</field>
    <set>
     <set comment="spin 1">
      <set comment="kpoint 1">
       <r>  -27.7037    1.0000 </r>
       <r>  -13.8500    1.0000 </r>
       <r>  -11.1605    1.0000 </r>
       <r>  -10.6604    1.0000 </r>
       <r>  -10.6115    1.0000 </r>
       <r>  -10.1674    1.0000 </r>
       <r>   -8.6816    1.0000 </r>
       <r>   -8.2261    1.0000 </r>
       <r>   -7.7300    1.0000 </r>
       <r>   -7.5378    1.0000 </r>
       <r>   -7.4648    1.0000 </r>
       <r>   -7.3835    1.0000 </r>
       <r>   -7.3242    1.0000 </r>
       <r>   -7.2090    1.0000 </r>
       <r>   -7.0633    1.0000 </r>
       <r>   -6.9930    1.0000 </r>
       <r>   -6.8753    1.0000 </r>
       <r>   -6.8505    1.0000 </r>
       <r>   -6.7596    1.0000 </r>
       <r>   -6.6782    1.0000 </r>
       <r>   -6.6558    1.0000 </r>
       <r>   -6.6391    1.0000 </r>
       <r>   -6.5685    1.0000 </r>
       <r>   -6.5482    1.0000 </r>
       <r>   -6.5211    1.0000 </r>
       <r>   -6.5010    1.0000 </r>
       <r>   -6.4603    1.0000 </r>
       <r>   -6.3859    1.0000 </r>
       <r>   -6.3575    1.0000 </r>
       <r>   -6.3037    1.0000 </r>
       <r>   -6.2336    1.0000 </r>
       <r>   -6.2220    1.0000 </r>
       <r>   -6.1698    1.0000 </r>
       <r>   -6.1478    1.0000 </r>
       <r>   -6.0372    1.0000 </r>
       <r>   -5.9329    1.0000 </r>
       <r>   -5.8656    1.0000 </r>
       <r>   -5.8248    1.0000 </r>
       <r>   -5.7506    1.0000 </r>
       <r>   -5.7119    1.0000 </r>
       <r>   -5.6098    1.0000 </r>
       <r>   -5.5982    1.0000 </r>
       <r>   -5.5621    1.0000 </r>
       <r>   -5.5347    1.0000 </r>
       <r>   -5.5184    1.0000 </r>
       <r>   -5.4611    1.0000 </r>
       <r>   -5.4537    1.0000 </r>
       <r>   -5.4304    1.0000 </r>
       <r>   -5.4071    1.0000 </r>
       <r>   -5.3793    1.0000 </r>
       <r>   -5.3488    1.0000 </r>
       <r>   -5.3337    1.0000 </r>
       <r>   -5.3082    1.0000 </r>
       <r>   -5.2916    1.0000 </r>
       <r>   -5.2720    1.0000 </r>
       <r>   -5.2026    1.0000 </r>
       <r>   -5.1939    1.0000 </r>
       <r>   -5.1856    1.0000 </r>
       <r>   -5.1667    1.0000 </r>
       <r>   -5.1380    1.0000 </r>
       <r>   -5.1075    1.0000 </r>
       <r>   -5.0682    1.0000 </r>
       <r>   -5.0499    1.0000 </r>
       <r>   -5.0416    1.0000 </r>
       <r>   -4.9837    1.0000 </r>
       <r>   -4.9504    1.0000 </r>
       <r>   -4.9398    1.0000 </r>
       <r>   -4.9204    1.0000 </r>
       <r>   -4.9129    1.0000 </r>
       <r>   -4.8782    1.0000 </r>
       <r>   -4.8629    1.0000 </r>
       <r>   -4.8293    1.0000 </r>
       <r>   -4.7618    1.0000 </r>
       <r>   -4.5567    1.0000 </r>
       <r>   -4.2339    1.0000 </r>
       <r>   -4.1674    1.0000 </r>
       <r>   -3.6161    1.0000 </r>
       <r>   -3.0923   -0.0000 </r>
       <r>   -2.8934   -0.0000 </r>
       <r>   -2.6321   -0.0000 </r>
       <r>   -2.4528   -0.0000 </r>
       <r>   -2.0058   -0.0000 </r>
       <r>   -1.9201   -0.0000 </r>
       <r>   -1.8105   -0.0000 </r>
       <r>   -1.4530   -0.0000 </r>
       <r>   -1.1007   -0.0000 </r>
       <r>   -0.9857   -0.0000 </r>
       <r>   -0.7107    0.0000 </r>
       <r>   -0.3600    0.0000 </r>
       <r>   -0.2535    0.0000 </r>
       <r>   -0.1402    0.0000 </r>
       <r>    0.0714    0.0000 </r>
      </set>
     </set>
     <set comment="spin 2">
      <set comment="kpoint 1">
       <r>  -27.6745    1.0000 </r>
       <r>  -13.7947    1.0000 </r>
       <r>  -11.1269    1.0000 </r>
       <r>  -10.6259    1.0000 </r>
       <r>  -10.5360    1.0000 </r>
       <r>  -10.1245    1.0000 </r>
       <r>   -8.6604    1.0000 </r>
       <r>   -8.1780    1.0000 </r>
       <r>   -7.6882    1.0000 </r>
       <r>   -7.5196    1.0000 </r>
       <r>   -7.4400    1.0000 </r>
       <r>   -7.3473    1.0000 </r>
       <r>   -7.2754    1.0000 </r>
       <r>   -7.1859    1.0000 </r>
       <r>   -7.0332    1.0000 </r>
       <r>   -6.9627    1.0000 </r>
       <r>   -6.8546    1.0000 </r>
       <r>   -6.8216    1.0000 </r>
       <r>   -6.7306    1.0000 </r>
       <r>   -6.6563    1.0000 </r>
       <r>   -6.6392    1.0000 </r>
       <r>   -6.6143    1.0000 </r>
       <r>   -6.5485    1.0000 </r>
       <r>   -6.5226    1.0000 </r>
       <r>   -6.4985    1.0000 </r>
       <r>   -6.4735    1.0000 </r>
       <r>   -6.4378    1.0000 </r>
       <r>   -6.3613    1.0000 </r>
       <r>   -6.3328    1.0000 </r>
       <r>   -6.2838    1.0000 </r>
       <r>   -6.2132    1.0000 </r>
       <r>   -6.1990    1.0000 </r>
       <r>   -6.1364    1.0000 </r>
       <r>   -6.1271    1.0000 </r>
       <r>   -6.0162    1.0000 </r>
       <r>   -5.9097    1.0000 </r>
       <r>   -5.8373    1.0000 </r>
       <r>   -5.8014    1.0000 </r>
       <r>   -5.7195    1.0000 </r>
       <r>   -5.6896    1.0000 </r>
       <r>   -5.5878    1.0000 </r>
       <r>   -5.5748    1.0000 </r>
       <r>   -5.5324    1.0000 </r>
       <r>   -5.5100    1.0000 </r>
       <r>   -5.4953    1.0000 </r>
       <r>   -5.4356    1.0000 </r>
       <r>   -5.4206    1.0000 </r>
       <r>   -5.3977    1.0000 </r>
       <r>   -5.3762    1.0000 </r>
       <r>   -5.3565    1.0000 </r>
       <r>   -5.3272    1.0000 </r>
       <r>   -5.3070    1.0000 </r>
       <r>   -5.2890    1.0000 </r>
       <r>   -5.2652    1.0000 </r>
       <r>   -5.2465    1.0000 </r>
       <r>   -5.1816    1.0000 </r>
       <r>   -5.1711    1.0000 </r>
       <r>   -5.1668    1.0000 </r>
       <r>   -5.1454    1.0000 </r>
       <r>   -5.1107    1.0000 </r>
       <r>   -5.0790    1.0000 </r>
       <r>   -5.0485    1.0000 </r>
       <r>   -5.0294    1.0000 </r>
       <r>   -5.0120    1.0000 </r>
       <r>   -4.9599    1.0000 </r>
       <r>   -4.9183    1.0000 </r>
       <r>   -4.9164    1.0000 </r>
       <r>   -4.8903    1.0000 </r>
       <r>   -4.8700    1.0000 </r>
       <r>   -4.8444    1.0000 </r>
       <r>   -4.8317    1.0000 </r>
       <r>   -4.8071    1.0000 </r>
       <r>   -4.7385    1.0000 </r>
       <r>   -4.5153    1.0000 </r>
       <r>   -4.1713    1.0332 </r>
       <r>   -4.1321    0.9668 </r>
       <r>   -3.4015   -0.0000 </r>
       <r>   -3.0367   -0.0000 </r>
       <r>   -2.8432   -0.0000 </r>
       <r>   -2.5630   -0.0000 </r>
       <r>   -2.3419   -0.0000 </r>
       <r>   -1.9675   -0.0000 </r>
       <r>   -1.8412   -0.0000 </r>
       <r>   -1.7447   -0.0000 </r>
       <r>   -1.3472   -0.0000 </r>
       <r>   -0.9910    0.0000 </r>
       <r>   -0.8952    0.0000 </r>
       <r>   -0.6353    0.0000 </r>
       <r>   -0.2586    0.0000 </r>
       <r>   -0.1976    0.0000 </r>
       <r>   -0.0826    0.0000 </r>
       <r>    0.2346    0.0000 </r>
      </set>
     </set>
    </set>
   </array>
  </eigenvalues>
  <separator name="orbital magnetization" >
   <v name="MAGDIPOLOUT">      0.00000000      0.00000000      0.00000000</v>
  </separator>
  <dos>
   <i name="efermi">     -4.06002484 </i>
   <total>
    <array>
     <dimension dim="1">gridpoints</dimension>
     <dimension dim="2">spin</dimension>
     <field>energy</field>
     <field>total</field>
     <field>integrated</field>
     <set>
      <set comment="spin 1">
       <r>   -29.1006     0.0000     0.0000 </r>
       <r>   -28.9982     0.0000     0.0000 </r>
       <r>   -28.8957     0.0000     0.0000 </r>
       <r>   -28.7933     0.0000     0.0000 </r>
       <r>   -28.6909     0.0000     0.0000 </r>
       <r>   -28.5884    -0.0000    -0.0000 </r>
       <r>   -28.4860    -0.0000    -0.0000 </r>
       <r>   -28.3835    -0.0000    -0.0000 </r>
       <r>   -28.2811    -0.0000    -0.0000 </r>
       <r>   -28.1786    -0.0000    -0.0000 </r>
       <r>   -28.0762    -0.0000    -0.0000 </r>
       <r>   -27.9738    -0.0088    -0.0009 </r>
       <r>   -27.8713    -0.3737    -0.0392 </r>
       <r>   -27.7689     1.5160     0.1161 </r>
       <r>   -27.6664    14.3351     1.5846 </r>
       <r>   -27.5640     4.6774     2.0638 </r>
       <r>   -27.4616    -0.5906     2.0033 </r>
       <r>   -27.3591    -0.0318     2.0000 </r>
       <r>   -27.2567    -0.0001     2.0000 </r>
       <r>   -27.1542    -0.0000     2.0000 </r>
       <r>   -27.0518    -0.0000     2.0000 </r>
       <r>   -26.9494     0.0000     2.0000 </r>
       <r>   -26.8469     0.0000     2.0000 </r>
       <r>   -26.7445     0.0000     2.0000 </r>
       <r>   -26.6420     0.0000     2.0000 </r>
       <r>   -26.5396     0.0000     2.0000 </r>
       <r>   -26.4372     0.0000     2.0000 </r>
       <r>   -26.3347     0.0000     2.0000 </r>
       <r>   -26.2323     0.0000     2.0000 </r>
       <r>   -26.1298     0.0000     2.0000 </r>
       <r>   -26.0274     0.0000     2.0000 </r>
       <r>   -25.9250     0.0000     2.0000 </r>
       <r>   -25.8225     0.0000     2.0000 </r>
       <r>   -25.7201     0.0000     2.0000 </r>
       <r>   -25.6176     0.0000     2.0000 </r>
       <r>   -25.5152     0.0000     2.0000 </r>
       <r>   -25.4128     0.0000     2.0000 </r>
       <r>   -25.3103     0.0000     2.0000 </r>
       <r>   -25.2079     0.0000     2.0000 </r>
       <r>   -25.1054     0.0000     2.0000 </r>
       <r>   -25.0030     0.0000     2.0000 </r>
       <r>   -24.9006     0.0000     2.0000 </r>
       <r>   -24.7981     0.0000     2.0000 </r>
       <r>   -24.6957     0.0000     2.0000 </r>
       <r>   -24.5932     0.0000     2.0000 </r>
       <r>   -24.4908     0.0000     2.0000 </r>
       <r>   -24.3883     0.0000     2.0000 </r>
       <r>   -24.2859     0.0000     2.0000 </r>
       <r>   -24.1835     0.0000     2.0000 </r>
       <r>   -24.0810     0.0000     2.0000 </r>
       <r>   -23.9786     0.0000     2.0000 </r>
       <r>   -23.8761     0.0000     2.0000 </r>
       <r>   -23.7737     0.0000     2.0000 </r>
       <r>   -23.6713     0.0000     2.0000 </r>
       <r>   -23.5688     0.0000     2.0000 </r>
       <r>   -23.4664     0.0000     2.0000 </r>
       <r>   -23.3639     0.0000     2.0000 </r>
       <r>   -23.2615     0.0000     2.0000 </r>
       <r>   -23.1591     0.0000     2.0000 </r>
       <r>   -23.0566     0.0000     2.0000 </r>
       <r>   -22.9542     0.0000     2.0000 </r>
       <r>   -22.8517     0.0000     2.0000 </r>
       <r>   -22.7493     0.0000     2.0000 </r>
       <r>   -22.6469     0.0000     2.0000 </r>
       <r>   -22.5444     0.0000     2.0000 </r>
       <r>   -22.4420     0.0000     2.0000 </r>
       <r>   -22.3395     0.0000     2.0000 </r>
       <r>   -22.2371     0.0000     2.0000 </r>
       <r>   -22.1347     0.0000     2.0000 </r>
       <r>   -22.0322     0.0000     2.0000 </r>
       <r>   -21.9298     0.0000     2.0000 </r>
       <r>   -21.8273     0.0000     2.0000 </r>
       <r>   -21.7249     0.0000     2.0000 </r>
       <r>   -21.6225     0.0000     2.0000 </r>
       <r>   -21.5200     0.0000     2.0000 </r>
       <r>   -21.4176     0.0000     2.0000 </r>
       <r>   -21.3151     0.0000     2.0000 </r>
       <r>   -21.2127     0.0000     2.0000 </r>
       <r>   -21.1103     0.0000     2.0000 </r>
       <r>   -21.0078     0.0000     2.0000 </r>
       <r>   -20.9054     0.0000     2.0000 </r>
       <r>   -20.8029     0.0000     2.0000 </r>
       <r>   -20.7005     0.0000     2.0000 </r>
       <r>   -20.5980     0.0000     2.0000 </r>
       <r>   -20.4956     0.0000     2.0000 </r>
       <r>   -20.3932     0.0000     2.0000 </r>
       <r>   -20.2907     0.0000     2.0000 </r>
       <r>   -20.1883     0.0000     2.0000 </r>
       <r>   -20.0858     0.0000     2.0000 </r>
       <r>   -19.9834     0.0000     2.0000 </r>
       <r>   -19.8810     0.0000     2.0000 </r>
       <r>   -19.7785     0.0000     2.0000 </r>
       <r>   -19.6761     0.0000     2.0000 </r>
       <r>   -19.5736     0.0000     2.0000 </r>
       <r>   -19.4712     0.0000     2.0000 </r>
       <r>   -19.3688     0.0000     2.0000 </r>
       <r>   -19.2663     0.0000     2.0000 </r>
       <r>   -19.1639     0.0000     2.0000 </r>
       <r>   -19.0614     0.0000     2.0000 </r>
       <r>   -18.9590     0.0000     2.0000 </r>
       <r>   -18.8566     0.0000     2.0000 </r>
       <r>   -18.7541     0.0000     2.0000 </r>
       <r>   -18.6517     0.0000     2.0000 </r>
       <r>   -18.5492     0.0000     2.0000 </r>
       <r>   -18.4468     0.0000     2.0000 </r>
       <r>   -18.3444     0.0000     2.0000 </r>
       <r>   -18.2419     0.0000     2.0000 </r>
       <r>   -18.1395     0.0000     2.0000 </r>
       <r>   -18.0370     0.0000     2.0000 </r>
       <r>   -17.9346     0.0000     2.0000 </r>
       <r>   -17.8322     0.0000     2.0000 </r>
       <r>   -17.7297     0.0000     2.0000 </r>
       <r>   -17.6273     0.0000     2.0000 </r>
       <r>   -17.5248     0.0000     2.0000 </r>
       <r>   -17.4224     0.0000     2.0000 </r>
       <r>   -17.3200     0.0000     2.0000 </r>
       <r>   -17.2175     0.0000     2.0000 </r>
       <r>   -17.1151     0.0000     2.0000 </r>
       <r>   -17.0126     0.0000     2.0000 </r>
       <r>   -16.9102     0.0000     2.0000 </r>
       <r>   -16.8077     0.0000     2.0000 </r>
       <r>   -16.7053     0.0000     2.0000 </r>
       <r>   -16.6029     0.0000     2.0000 </r>
       <r>   -16.5004     0.0000     2.0000 </r>
       <r>   -16.3980     0.0000     2.0000 </r>
       <r>   -16.2955     0.0000     2.0000 </r>
       <r>   -16.1931     0.0000     2.0000 </r>
       <r>   -16.0907     0.0000     2.0000 </r>
       <r>   -15.9882     0.0000     2.0000 </r>
       <r>   -15.8858     0.0000     2.0000 </r>
       <r>   -15.7833     0.0000     2.0000 </r>
       <r>   -15.6809     0.0000     2.0000 </r>
       <r>   -15.5785     0.0000     2.0000 </r>
       <r>   -15.4760     0.0000     2.0000 </r>
       <r>   -15.3736     0.0000     2.0000 </r>
       <r>   -15.2711     0.0000     2.0000 </r>
       <r>   -15.1687     0.0000     2.0000 </r>
       <r>   -15.0663     0.0000     2.0000 </r>
       <r>   -14.9638     0.0000     2.0000 </r>
       <r>   -14.8614     0.0000     2.0000 </r>
       <r>   -14.7589     0.0000     2.0000 </r>
       <r>   -14.6565    -0.0000     2.0000 </r>
       <r>   -14.5541    -0.0000     2.0000 </r>
       <r>   -14.4516    -0.0000     2.0000 </r>
       <r>   -14.3492    -0.0000     2.0000 </r>
       <r>   -14.2467    -0.0000     2.0000 </r>
       <r>   -14.1443    -0.0025     1.9997 </r>
       <r>   -14.0419    -0.1989     1.9794 </r>
       <r>   -13.9394    -0.0000     1.9794 </r>
       <r>   -13.8370    12.0999     3.2189 </r>
       <r>   -13.7345     8.3013     4.0693 </r>
       <r>   -13.6321    -0.5924     4.0086 </r>
       <r>   -13.5297    -0.0833     4.0001 </r>
       <r>   -13.4272    -0.0006     4.0000 </r>
       <r>   -13.3248    -0.0000     4.0000 </r>
       <r>   -13.2223    -0.0000     4.0000 </r>
       <r>   -13.1199     0.0000     4.0000 </r>
       <r>   -13.0174     0.0000     4.0000 </r>
       <r>   -12.9150     0.0000     4.0000 </r>
       <r>   -12.8126     0.0000     4.0000 </r>
       <r>   -12.7101     0.0000     4.0000 </r>
       <r>   -12.6077     0.0000     4.0000 </r>
       <r>   -12.5052     0.0000     4.0000 </r>
       <r>   -12.4028     0.0000     4.0000 </r>
       <r>   -12.3004     0.0000     4.0000 </r>
       <r>   -12.1979     0.0000     4.0000 </r>
       <r>   -12.0955     0.0000     4.0000 </r>
       <r>   -11.9930    -0.0000     4.0000 </r>
       <r>   -11.8906    -0.0000     4.0000 </r>
       <r>   -11.7882    -0.0000     4.0000 </r>
       <r>   -11.6857    -0.0000     4.0000 </r>
       <r>   -11.5833    -0.0000     4.0000 </r>
       <r>   -11.4808    -0.0006     3.9999 </r>
       <r>   -11.3784    -0.0833     3.9914 </r>
       <r>   -11.2760    -0.5923     3.9307 </r>
       <r>   -11.1735     8.3024     4.7812 </r>
       <r>   -11.0711    12.0990     6.0207 </r>
       <r>   -10.9686    -0.0015     6.0205 </r>
       <r>   -10.8662    -0.3447     5.9852 </r>
       <r>   -10.7638    -0.9284     5.8901 </r>
       <r>   -10.6613    13.2376     7.2462 </r>
       <r>   -10.5589    25.1445     9.8220 </r>
       <r>   -10.4564     2.3662    10.0644 </r>
       <r>   -10.3540    -0.8460     9.9777 </r>
       <r>   -10.2516     0.2195    10.0002 </r>
       <r>   -10.1491    12.7272    11.3040 </r>
       <r>   -10.0467     7.4857    12.0708 </r>
       <r>    -9.9442    -0.6225    12.0071 </r>
       <r>    -9.8418    -0.0684    12.0000 </r>
       <r>    -9.7394    -0.0004    12.0000 </r>
       <r>    -9.6369    -0.0000    12.0000 </r>
       <r>    -9.5345    -0.0000    12.0000 </r>
       <r>    -9.4320    -0.0000    12.0000 </r>
       <r>    -9.3296    -0.0000    12.0000 </r>
       <r>    -9.2271    -0.0000    12.0000 </r>
       <r>    -9.1247    -0.0000    12.0000 </r>
       <r>    -9.0223    -0.0002    12.0000 </r>
       <r>    -8.9198    -0.0375    11.9961 </r>
       <r>    -8.8174    -0.6106    11.9336 </r>
       <r>    -8.7149     5.2299    12.4693 </r>
       <r>    -8.6125    14.0982    13.9136 </r>
       <r>    -8.5101     1.1881    14.0353 </r>
       <r>    -8.4076    -0.6074    13.9731 </r>
       <r>    -8.3052     0.5013    14.0244 </r>
       <r>    -8.2027    13.2612    15.3829 </r>
       <r>    -8.1003     6.7131    16.0706 </r>
       <r>    -7.9979    -0.6423    16.0048 </r>
       <r>    -7.8954    -0.4483    15.9589 </r>
       <r>    -7.7930     1.6909    16.1321 </r>
       <r>    -7.6905    13.8814    17.5541 </r>
       <r>    -7.5881     6.6255    18.2328 </r>
       <r>    -7.4857    20.3976    20.3224 </r>
       <r>    -7.3832    27.8830    23.1787 </r>
       <r>    -7.2808    25.6444    25.8058 </r>
       <r>    -7.1783    16.2643    27.4719 </r>
       <r>    -7.0759    13.3774    28.8423 </r>
       <r>    -6.9735    23.2342    31.2224 </r>
       <r>    -6.8710    24.4222    33.7242 </r>
       <r>    -6.7686    29.2236    36.7179 </r>
       <r>    -6.6661    36.2426    40.4306 </r>
       <r>    -6.5637    57.0622    46.2761 </r>
       <r>    -6.4613    60.7880    52.5033 </r>
       <r>    -6.3588    40.4619    56.6482 </r>
       <r>    -6.2564    40.9947    60.8477 </r>
       <r>    -6.1539    50.7125    66.0427 </r>
       <r>    -6.0515    27.2818    68.8375 </r>
       <r>    -5.9491    18.0215    70.6836 </r>
       <r>    -5.8466    31.1186    73.8714 </r>
       <r>    -5.7442    35.3925    77.4971 </r>
       <r>    -5.6417    30.9033    80.6628 </r>
       <r>    -5.5393    57.5032    86.5535 </r>
       <r>    -5.4368    74.6587    94.2016 </r>
       <r>    -5.3344    84.7500   102.8834 </r>
       <r>    -5.2320    77.3588   110.8081 </r>
       <r>    -5.1295    81.5752   119.1647 </r>
       <r>    -5.0271    72.6152   126.6034 </r>
       <r>    -4.9246    80.4180   134.8415 </r>
       <r>    -4.8222    79.4553   142.9809 </r>
       <r>    -4.7198    27.7821   145.8269 </r>
       <r>    -4.6173     3.9321   146.2297 </r>
       <r>    -4.5149    13.8246   147.6459 </r>
       <r>    -4.4124     3.7238   148.0274 </r>
       <r>    -4.3100    -0.4428   147.9820 </r>
       <r>    -4.2076    17.8010   149.8056 </r>
       <r>    -4.1051    20.7356   151.9298 </r>
       <r>    -4.0027     1.1440   152.0470 </r>
       <r>    -3.9002    -0.4522   152.0006 </r>
       <r>    -3.7978    -0.2753   151.9724 </r>
       <r>    -3.6954     0.5015   152.0238 </r>
       <r>    -3.5929    13.2492   153.3811 </r>
       <r>    -3.4905     6.7314   154.0706 </r>
       <r>    -3.3880    -0.6348   154.0056 </r>
       <r>    -3.2856    -0.2470   153.9803 </r>
       <r>    -3.1832    -0.0616   153.9740 </r>
       <r>    -3.0807    11.6862   155.1711 </r>
       <r>    -2.9783     8.7307   156.0655 </r>
       <r>    -2.8758    12.0354   157.2984 </r>
       <r>    -2.7734     6.9281   158.0081 </r>
       <r>    -2.6710     3.7584   158.3932 </r>
       <r>    -2.5685    13.7506   159.8018 </r>
       <r>    -2.4661     9.9288   160.8189 </r>
       <r>    -2.3636    11.7347   162.0210 </r>
       <r>    -2.2612    -0.0203   162.0189 </r>
       <r>    -2.1588    -0.7327   161.9439 </r>
       <r>    -2.0563     2.3545   162.1850 </r>
       <r>    -1.9539    19.3010   164.1623 </r>
       <r>    -1.8514    21.1492   166.3288 </r>
       <r>    -1.7490    15.2498   167.8910 </r>
       <r>    -1.6465     1.2955   168.0237 </r>
       <r>    -1.5441    -0.4808   167.9744 </r>
       <r>    -1.4417    11.8654   169.1899 </r>
       <r>    -1.3392     8.5369   170.0645 </r>
       <r>    -1.2368    -1.2076   169.9408 </r>
       <r>    -1.1343     4.5601   170.4079 </r>
       <r>    -1.0319    17.6290   172.2138 </r>
       <r>    -0.9295    15.8011   173.8325 </r>
       <r>    -0.8270     1.4247   173.9785 </r>
       <r>    -0.7246     7.7148   174.7688 </r>
       <r>    -0.6221    12.1780   176.0163 </r>
       <r>    -0.5197    -0.4161   175.9737 </r>
       <r>    -0.4173     1.6454   176.1422 </r>
       <r>    -0.3148    16.1854   177.8003 </r>
       <r>    -0.2124    19.1062   179.7575 </r>
       <r>    -0.1099    17.2237   181.5219 </r>
       <r>    -0.0075     5.6085   182.0964 </r>
       <r>     0.0949    12.6329   183.3906 </r>
       <r>     0.1974     6.6381   184.0706 </r>
       <r>     0.2998    -0.6328   184.0058 </r>
       <r>     0.4023    -0.0559   184.0000 </r>
       <r>     0.5047    -0.0003   184.0000 </r>
       <r>     0.6071    -0.0000   184.0000 </r>
       <r>     0.7096    -0.0000   184.0000 </r>
       <r>     0.8120     0.0000   184.0000 </r>
       <r>     0.9145     0.0000   184.0000 </r>
       <r>     1.0169     0.0000   184.0000 </r>
       <r>     1.1193     0.0000   184.0000 </r>
       <r>     1.2218     0.0000   184.0000 </r>
       <r>     1.3242     0.0000   184.0000 </r>
       <r>     1.4267     0.0000   184.0000 </r>
       <r>     1.5291     0.0000   184.0000 </r>
       <r>     1.6315     0.0000   184.0000 </r>
      </set>
      <set comment="spin 2">
       <r>   -29.1006     0.0000     0.0000 </r>
       <r>   -28.9982     0.0000     0.0000 </r>
       <r>   -28.8957     0.0000     0.0000 </r>
       <r>   -28.7933     0.0000     0.0000 </r>
       <r>   -28.6909     0.0000     0.0000 </r>
       <r>   -28.5884     0.0000     0.0000 </r>
       <r>   -28.4860    -0.0000    -0.0000 </r>
       <r>   -28.3835    -0.0000    -0.0000 </r>
       <r>   -28.2811    -0.0000    -0.0000 </r>
       <r>   -28.1786    -0.0000    -0.0000 </r>
       <r>   -28.0762    -0.0000    -0.0000 </r>
       <r>   -27.9738    -0.0019    -0.0002 </r>
       <r>   -27.8713    -0.1706    -0.0177 </r>
       <r>   -27.7689    -0.1855    -0.0367 </r>
       <r>   -27.6664    11.4389     1.1351 </r>
       <r>   -27.5640     9.0840     2.0657 </r>
       <r>   -27.4616    -0.5407     2.0103 </r>
       <r>   -27.3591    -0.0999     2.0001 </r>
       <r>   -27.2567    -0.0008     2.0000 </r>
       <r>   -27.1542    -0.0000     2.0000 </r>
       <r>   -27.0518    -0.0000     2.0000 </r>
       <r>   -26.9494     0.0000     2.0000 </r>
       <r>   -26.8469     0.0000     2.0000 </r>
       <r>   -26.7445     0.0000     2.0000 </r>
       <r>   -26.6420     0.0000     2.0000 </r>
       <r>   -26.5396     0.0000     2.0000 </r>
       <r>   -26.4372     0.0000     2.0000 </r>
       <r>   -26.3347     0.0000     2.0000 </r>
       <r>   -26.2323     0.0000     2.0000 </r>
       <r>   -26.1298     0.0000     2.0000 </r>
       <r>   -26.0274     0.0000     2.0000 </r>
       <r>   -25.9250     0.0000     2.0000 </r>
       <r>   -25.8225     0.0000     2.0000 </r>
       <r>   -25.7201     0.0000     2.0000 </r>
       <r>   -25.6176     0.0000     2.0000 </r>
       <r>   -25.5152     0.0000     2.0000 </r>
       <r>   -25.4128     0.0000     2.0000 </r>
       <r>   -25.3103     0.0000     2.0000 </r>
       <r>   -25.2079     0.0000     2.0000 </r>
       <r>   -25.1054     0.0000     2.0000 </r>
       <r>   -25.0030     0.0000     2.0000 </r>
       <r>   -24.9006     0.0000     2.0000 </r>
       <r>   -24.7981     0.0000     2.0000 </r>
       <r>   -24.6957     0.0000     2.0000 </r>
       <r>   -24.5932     0.0000     2.0000 </r>
       <r>   -24.4908     0.0000     2.0000 </r>
       <r>   -24.3883     0.0000     2.0000 </r>
       <r>   -24.2859     0.0000     2.0000 </r>
       <r>   -24.1835     0.0000     2.0000 </r>
       <r>   -24.0810     0.0000     2.0000 </r>
       <r>   -23.9786     0.0000     2.0000 </r>
       <r>   -23.8761     0.0000     2.0000 </r>
       <r>   -23.7737     0.0000     2.0000 </r>
       <r>   -23.6713     0.0000     2.0000 </r>
       <r>   -23.5688     0.0000     2.0000 </r>
       <r>   -23.4664     0.0000     2.0000 </r>
       <r>   -23.3639     0.0000     2.0000 </r>
       <r>   -23.2615     0.0000     2.0000 </r>
       <r>   -23.1591     0.0000     2.0000 </r>
       <r>   -23.0566     0.0000     2.0000 </r>
       <r>   -22.9542     0.0000     2.0000 </r>
       <r>   -22.8517     0.0000     2.0000 </r>
       <r>   -22.7493     0.0000     2.0000 </r>
       <r>   -22.6469     0.0000     2.0000 </r>
       <r>   -22.5444     0.0000     2.0000 </r>
       <r>   -22.4420     0.0000     2.0000 </r>
       <r>   -22.3395     0.0000     2.0000 </r>
       <r>   -22.2371     0.0000     2.0000 </r>
       <r>   -22.1347     0.0000     2.0000 </r>
       <r>   -22.0322     0.0000     2.0000 </r>
       <r>   -21.9298     0.0000     2.0000 </r>
       <r>   -21.8273     0.0000     2.0000 </r>
       <r>   -21.7249     0.0000     2.0000 </r>
       <r>   -21.6225     0.0000     2.0000 </r>
       <r>   -21.5200     0.0000     2.0000 </r>
       <r>   -21.4176     0.0000     2.0000 </r>
       <r>   -21.3151     0.0000     2.0000 </r>
       <r>   -21.2127     0.0000     2.0000 </r>
       <r>   -21.1103     0.0000     2.0000 </r>
       <r>   -21.0078     0.0000     2.0000 </r>
       <r>   -20.9054     0.0000     2.0000 </r>
       <r>   -20.8029     0.0000     2.0000 </r>
       <r>   -20.7005     0.0000     2.0000 </r>
       <r>   -20.5980     0.0000     2.0000 </r>
       <r>   -20.4956     0.0000     2.0000 </r>
       <r>   -20.3932     0.0000     2.0000 </r>
       <r>   -20.2907     0.0000     2.0000 </r>
       <r>   -20.1883     0.0000     2.0000 </r>
       <r>   -20.0858     0.0000     2.0000 </r>
       <r>   -19.9834     0.0000     2.0000 </r>
       <r>   -19.8810     0.0000     2.0000 </r>
       <r>   -19.7785     0.0000     2.0000 </r>
       <r>   -19.6761     0.0000     2.0000 </r>
       <r>   -19.5736     0.0000     2.0000 </r>
       <r>   -19.4712     0.0000     2.0000 </r>
       <r>   -19.3688     0.0000     2.0000 </r>
       <r>   -19.2663     0.0000     2.0000 </r>
       <r>   -19.1639     0.0000     2.0000 </r>
       <r>   -19.0614     0.0000     2.0000 </r>
       <r>   -18.9590     0.0000     2.0000 </r>
       <r>   -18.8566     0.0000     2.0000 </r>
       <r>   -18.7541     0.0000     2.0000 </r>
       <r>   -18.6517     0.0000     2.0000 </r>
       <r>   -18.5492     0.0000     2.0000 </r>
       <r>   -18.4468     0.0000     2.0000 </r>
       <r>   -18.3444     0.0000     2.0000 </r>
       <r>   -18.2419     0.0000     2.0000 </r>
       <r>   -18.1395     0.0000     2.0000 </r>
       <r>   -18.0370     0.0000     2.0000 </r>
       <r>   -17.9346     0.0000     2.0000 </r>
       <r>   -17.8322     0.0000     2.0000 </r>
       <r>   -17.7297     0.0000     2.0000 </r>
       <r>   -17.6273     0.0000     2.0000 </r>
       <r>   -17.5248     0.0000     2.0000 </r>
       <r>   -17.4224     0.0000     2.0000 </r>
       <r>   -17.3200     0.0000     2.0000 </r>
       <r>   -17.2175     0.0000     2.0000 </r>
       <r>   -17.1151     0.0000     2.0000 </r>
       <r>   -17.0126     0.0000     2.0000 </r>
       <r>   -16.9102     0.0000     2.0000 </r>
       <r>   -16.8077     0.0000     2.0000 </r>
       <r>   -16.7053     0.0000     2.0000 </r>
       <r>   -16.6029     0.0000     2.0000 </r>
       <r>   -16.5004     0.0000     2.0000 </r>
       <r>   -16.3980     0.0000     2.0000 </r>
       <r>   -16.2955     0.0000     2.0000 </r>
       <r>   -16.1931     0.0000     2.0000 </r>
       <r>   -16.0907     0.0000     2.0000 </r>
       <r>   -15.9882     0.0000     2.0000 </r>
       <r>   -15.8858     0.0000     2.0000 </r>
       <r>   -15.7833     0.0000     2.0000 </r>
       <r>   -15.6809     0.0000     2.0000 </r>
       <r>   -15.5785     0.0000     2.0000 </r>
       <r>   -15.4760     0.0000     2.0000 </r>
       <r>   -15.3736     0.0000     2.0000 </r>
       <r>   -15.2711     0.0000     2.0000 </r>
       <r>   -15.1687     0.0000     2.0000 </r>
       <r>   -15.0663     0.0000     2.0000 </r>
       <r>   -14.9638     0.0000     2.0000 </r>
       <r>   -14.8614     0.0000     2.0000 </r>
       <r>   -14.7589     0.0000     2.0000 </r>
       <r>   -14.6565    -0.0000     2.0000 </r>
       <r>   -14.5541    -0.0000     2.0000 </r>
       <r>   -14.4516    -0.0000     2.0000 </r>
       <r>   -14.3492    -0.0000     2.0000 </r>
       <r>   -14.2467    -0.0000     2.0000 </r>
       <r>   -14.1443    -0.0001     2.0000 </r>
       <r>   -14.0419    -0.0256     1.9974 </r>
       <r>   -13.9394    -0.5589     1.9401 </r>
       <r>   -13.8370     4.0103     2.3509 </r>
       <r>   -13.7345    14.5540     3.8418 </r>
       <r>   -13.6321     1.9704     4.0437 </r>
       <r>   -13.5297    -0.4153     4.0011 </r>
       <r>   -13.4272    -0.0112     4.0000 </r>
       <r>   -13.3248    -0.0000     4.0000 </r>
       <r>   -13.2223    -0.0000     4.0000 </r>
       <r>   -13.1199    -0.0000     4.0000 </r>
       <r>   -13.0174     0.0000     4.0000 </r>
       <r>   -12.9150     0.0000     4.0000 </r>
       <r>   -12.8126     0.0000     4.0000 </r>
       <r>   -12.7101     0.0000     4.0000 </r>
       <r>   -12.6077     0.0000     4.0000 </r>
       <r>   -12.5052     0.0000     4.0000 </r>
       <r>   -12.4028     0.0000     4.0000 </r>
       <r>   -12.3004     0.0000     4.0000 </r>
       <r>   -12.1979     0.0000     4.0000 </r>
       <r>   -12.0955     0.0000     4.0000 </r>
       <r>   -11.9930    -0.0000     4.0000 </r>
       <r>   -11.8906    -0.0000     4.0000 </r>
       <r>   -11.7882    -0.0000     4.0000 </r>
       <r>   -11.6857    -0.0000     4.0000 </r>
       <r>   -11.5833    -0.0000     4.0000 </r>
       <r>   -11.4808    -0.0001     4.0000 </r>
       <r>   -11.3784    -0.0211     3.9978 </r>
       <r>   -11.2760    -0.5268     3.9439 </r>
       <r>   -11.1735     3.4558     4.2979 </r>
       <r>   -11.0711    14.6692     5.8006 </r>
       <r>   -10.9686     2.4123     6.0477 </r>
       <r>   -10.8662    -0.4870     5.9979 </r>
       <r>   -10.7638    -0.6717     5.9290 </r>
       <r>   -10.6613     4.3013     6.3697 </r>
       <r>   -10.5589    21.0082     8.5218 </r>
       <r>   -10.4564    14.5795    10.0153 </r>
       <r>   -10.3540     0.0721    10.0227 </r>
       <r>   -10.2516    -0.9034     9.9301 </r>
       <r>   -10.1491     6.5035    10.5964 </r>
       <r>   -10.0467    13.3925    11.9683 </r>
       <r>    -9.9442     0.5896    12.0287 </r>
       <r>    -9.8418    -0.2754    12.0005 </r>
       <r>    -9.7394    -0.0046    12.0000 </r>
       <r>    -9.6369    -0.0000    12.0000 </r>
       <r>    -9.5345    -0.0000    12.0000 </r>
       <r>    -9.4320    -0.0000    12.0000 </r>
       <r>    -9.3296    -0.0000    12.0000 </r>
       <r>    -9.2271    -0.0000    12.0000 </r>
       <r>    -9.1247    -0.0000    12.0000 </r>
       <r>    -9.0223    -0.0000    12.0000 </r>
       <r>    -8.9198    -0.0147    11.9985 </r>
       <r>    -8.8174    -0.4631    11.9511 </r>
       <r>    -8.7149     2.5495    12.2122 </r>
       <r>    -8.6125    14.6890    13.7170 </r>
       <r>    -8.5101     3.2993    14.0549 </r>
       <r>    -8.4076    -0.5700    13.9966 </r>
       <r>    -8.3052    -0.6524    13.9297 </r>
       <r>    -8.2027     6.4984    14.5954 </r>
       <r>    -8.1003    13.3983    15.9680 </r>
       <r>    -7.9979     0.5923    16.0286 </r>
       <r>    -7.8954    -0.3975    15.9879 </r>
       <r>    -7.7930    -0.4639    15.9404 </r>
       <r>    -7.6905     9.5773    16.9215 </r>
       <r>    -7.5881    11.3183    18.0810 </r>
       <r>    -7.4857    16.6549    19.7871 </r>
       <r>    -7.3832    23.8340    22.2287 </r>
       <r>    -7.2808    25.2290    24.8131 </r>
       <r>    -7.1783    22.7254    27.1411 </r>
       <r>    -7.0759    11.8073    28.3507 </r>
       <r>    -6.9735    21.3758    30.5404 </r>
       <r>    -6.8710    23.8629    32.9849 </r>
       <r>    -6.7686    29.4930    36.0062 </r>
       <r>    -6.6661    33.0390    39.3908 </r>
       <r>    -6.5637    53.6639    44.8881 </r>
       <r>    -6.4613    61.7808    51.2170 </r>
       <r>    -6.3588    43.9739    55.7217 </r>
       <r>    -6.2564    40.6474    59.8856 </r>
       <r>    -6.1539    48.2963    64.8331 </r>
       <r>    -6.0515    35.1567    68.4346 </r>
       <r>    -5.9491    17.3572    70.2127 </r>
       <r>    -5.8466    26.6251    72.9402 </r>
       <r>    -5.7442    35.6379    76.5909 </r>
       <r>    -5.6417    31.8527    79.8539 </r>
       <r>    -5.5393    48.6030    84.8329 </r>
       <r>    -5.4368    69.4432    91.9467 </r>
       <r>    -5.3344    85.3141   100.6863 </r>
       <r>    -5.2320    82.4099   109.1284 </r>
       <r>    -5.1295    79.4084   117.2630 </r>
       <r>    -5.0271    75.1298   124.9594 </r>
       <r>    -4.9246    69.7354   132.1031 </r>
       <r>    -4.8222    87.6506   141.0821 </r>
       <r>    -4.7198    43.8938   145.5786 </r>
       <r>    -4.6173     4.6773   146.0577 </r>
       <r>    -4.5149     9.3425   147.0148 </r>
       <r>    -4.4124    10.1235   148.0518 </r>
       <r>    -4.3100    -1.3016   147.9185 </r>
       <r>    -4.2076     5.4140   148.4731 </r>
       <r>    -4.1051    27.8839   151.3295 </r>
       <r>    -4.0027     7.5982   152.1079 </r>
       <r>    -3.9002    -0.9961   152.0059 </r>
       <r>    -3.7978    -0.0571   152.0000 </r>
       <r>    -3.6954    -0.0028   151.9997 </r>
       <r>    -3.5929    -0.2015   151.9791 </r>
       <r>    -3.4905     0.0175   151.9809 </r>
       <r>    -3.3880    12.1533   153.2259 </r>
       <r>    -3.2856     8.2111   154.0670 </r>
       <r>    -3.1832    -1.1424   153.9500 </r>
       <r>    -3.0807     3.6664   154.3256 </r>
       <r>    -2.9783    13.9943   155.7592 </r>
       <r>    -2.8758     7.4695   156.5244 </r>
       <r>    -2.7734    13.5117   157.9085 </r>
       <r>    -2.6710     0.6199   157.9720 </r>
       <r>    -2.5685     9.0679   158.9009 </r>
       <r>    -2.4661    10.4592   159.9724 </r>
       <r>    -2.3636     6.6885   160.6576 </r>
       <r>    -2.2612    12.9431   161.9834 </r>
       <r>    -2.1588     0.2151   162.0055 </r>
       <r>    -2.0563    -0.3262   161.9721 </r>
       <r>    -1.9539    11.4823   163.1483 </r>
       <r>    -1.8514    16.4693   164.8354 </r>
       <r>    -1.7490    20.7891   166.9651 </r>
       <r>    -1.6465    10.7360   168.0649 </r>
       <r>    -1.5441    -0.6503   167.9983 </r>
       <r>    -1.4417    -0.3404   167.9634 </r>
       <r>    -1.3392    11.4333   169.1346 </r>
       <r>    -1.2368     9.0611   170.0629 </r>
       <r>    -1.1343    -1.1445   169.9456 </r>
       <r>    -1.0319     3.4804   170.3022 </r>
       <r>    -0.9295    19.5940   172.3094 </r>
       <r>    -0.8270    15.8041   173.9284 </r>
       <r>    -0.7246     0.8699   174.0175 </r>
       <r>    -0.6221    11.7569   175.2219 </r>
       <r>    -0.5197     8.2587   176.0679 </r>
       <r>    -0.4173    -1.1205   175.9531 </r>
       <r>    -0.3148     1.6340   176.1205 </r>
       <r>    -0.2124    22.0574   178.3801 </r>
       <r>    -0.1099    21.9355   180.6271 </r>
       <r>    -0.0075    13.1459   181.9738 </r>
       <r>     0.0949    -0.0640   181.9673 </r>
       <r>     0.1974     4.3797   182.4159 </r>
       <r>     0.2998    14.3298   183.8839 </r>
       <r>     0.4023     1.5159   184.0392 </r>
       <r>     0.5047    -0.3737   184.0009 </r>
       <r>     0.6071    -0.0088   184.0000 </r>
       <r>     0.7096    -0.0000   184.0000 </r>
       <r>     0.8120    -0.0000   184.0000 </r>
       <r>     0.9145    -0.0000   184.0000 </r>
       <r>     1.0169     0.0000   184.0000 </r>
       <r>     1.1193     0.0000   184.0000 </r>
       <r>     1.2218     0.0000   184.0000 </r>
       <r>     1.3242     0.0000   184.0000 </r>
       <r>     1.4267     0.0000   184.0000 </r>
       <r>     1.5291     0.0000   184.0000 </r>
       <r>     1.6315     0.0000   184.0000 </r>
      </set>
     </set>
    </array>
   </total>
  </dos>
 </calculation>
 <structure name="finalpos" >
  <crystal>
   <varray name="basis" >
    <v>      15.00000000       0.00000000       0.00000000 </v>
    <v>       0.00000000      15.00000000       0.00000000 </v>
    <v>       0.00000000       0.00000000      15.00000000 </v>
   </varray>
   <i name="volume">   3375.00000000 </i>
   <varray name="rec_basis" >
    <v>       0.06666667       0.00000000       0.00000000 </v>
    <v>       0.00000000       0.06666667       0.00000000 </v>
    <v>       0.00000000       0.00000000       0.06666667 </v>
   </varray>
  </crystal>
  <varray name="positions" >
   <v>       0.29261267       0.41886867       0.55465133 </v>
   <v>       0.37075800       0.54397067       0.48919733 </v>
   <v>       0.39463200       0.29222400       0.56058600 </v>
   <v>       0.53352200       0.50324533       0.48062600 </v>
   <v>       0.54787667       0.34699533       0.53326200 </v>
   <v>       0.44887333       0.43812200       0.61622600 </v>
   <v>       0.41948200       0.39851333       0.44683933 </v>
   <v>       0.22843267       0.56851000       0.55326200 </v>
   <v>       0.33252400       0.54498000       0.66221733 </v>
   <v>       0.35100800       0.68074667       0.57028133 </v>
   <v>       0.48566600       0.66444000       0.47420333 </v>
   <v>       0.63179933       0.48675600       0.59817333 </v>
   <v>       0.47983200       0.59658200       0.61230533 </v>
   <v>       0.73879333       0.49608867       0.64879267 </v>
   <v>       0.81741333       0.50263133       0.66015333 </v>
  </varray>
 </structure>
</modeling>
