 vasp.5.4.4.18Apr17-6-g9f103f2a35 (build May 08 2019 13:49:07) complex          
  
 executed on             LinuxIFC date 2019.11.13  13:46:47
 running on   24 total cores
 distrk:  each k-point on   24 cores,    1 groups
 distr:  one band on NCORES_PER_BAND=   6 cores,    4 groups


--------------------------------------------------------------------------------------------------------


 INCAR:
 POTCAR:    PAW_PBE Cu 22Jun2005                  
 POTCAR:    PAW_PBE C 08Apr2002                   
 POTCAR:    PAW_PBE O 08Apr2002                   
 POTCAR:    PAW_PBE Cu 22Jun2005                  
   VRHFIN =Cu: d10 p1                                                           
   LEXCH  = PE                                                                  
   EATOM  =  1390.9808 eV,  102.2342 Ry                                         
                                                                                
   TITEL  = PAW_PBE Cu 22Jun2005                                                
   LULTRA =        F    use ultrasoft PP ?                                      
   IUNSCR =        1    unscreen: 0-lin 1-nonlin 2-no                           
   RPACOR =    2.000    partial core radius                                     
   POMASS =   63.546; ZVAL   =   11.000    mass and valenz                      
   RCORE  =    2.300    outmost cutoff radius                                   
   RWIGS  =    2.200; RWIGS  =    1.164    wigner-seitz radius (au A)           
   ENMAX  =  295.446; ENMIN  =  221.585 eV                                      
   ICORE  =        3    local potential                                         
   LCOR   =        T    correct aug charges                                     
   LPAW   =        T    paw PP                                                  
   EAUG   =  586.980                                                            
   DEXC   =    0.000                                                            
   RMAX   =    2.344    core radius for proj-oper                               
   RAUG   =    1.300    factor for augmentation sphere                          
   RDEP   =    2.302    radius for radial grids                                 
   RDEPT  =    1.771    core radius for aug-charge                              
                                                                                
   Atomic configuration                                                         
    9 entries                                                                   
     n  l   j            E        occ.                                          
     1  0  0.50     -8850.2468   2.0000                                         
     2  0  0.50     -1062.3498   2.0000                                         
     2  1  1.50      -916.8226   6.0000                                         
     3  0  0.50      -114.6929   2.0000                                         
     3  1  1.50       -72.1325   6.0000                                         
     3  2  2.50        -5.0394  10.0000                                         
     4  0  0.50        -4.6097   1.0000                                         
     4  1  0.50        -4.0817   0.0000                                         
     4  3  2.50        -1.3606   0.0000                                         
   Description                                                                  
     l       E           TYP  RCUT    TYP  RCUT                                 
     2     -5.0393973     23  2.200                                             
     2     10.8846608     23  2.200                                             
     0     -4.6097109     23  2.200                                             
     0      8.2520465     23  2.200                                             
     1     -2.7211652     23  2.200                                             
     1     21.7055443     23  2.200                                             
     3      2.7211652     23  2.300                                             
  local pseudopotential read in
  partial core-charges read in
  partial kinetic energy density read in
  atomic valenz-charges read in
  non local Contribution for L=           2  read in
    real space projection operators read in
  non local Contribution for L=           2  read in
    real space projection operators read in
  non local Contribution for L=           0  read in
    real space projection operators read in
  non local Contribution for L=           0  read in
    real space projection operators read in
  non local Contribution for L=           1  read in
    real space projection operators read in
  non local Contribution for L=           1  read in
    real space projection operators read in
    PAW grid and wavefunctions read in
 
   number of l-projection  operators is LMAX  =           6
   number of lm-projection operators is LMMAX =          18
 
 POTCAR:    PAW_PBE C 08Apr2002                   
   VRHFIN =C: s2p2                                                              
   LEXCH  = PE                                                                  
   EATOM  =   147.1560 eV,   10.8157 Ry                                         
                                                                                
   TITEL  = PAW_PBE C 08Apr2002                                                 
   LULTRA =        F    use ultrasoft PP ?                                      
   IUNSCR =        1    unscreen: 0-lin 1-nonlin 2-no                           
   RPACOR =    1.200    partial core radius                                     
   POMASS =   12.011; ZVAL   =    4.000    mass and valenz                      
   RCORE  =    1.500    outmost cutoff radius                                   
   RWIGS  =    1.630; RWIGS  =    0.863    wigner-seitz radius (au A)           
   ENMAX  =  400.000; ENMIN  =  300.000 eV                                      
   ICORE  =        2    local potential                                         
   LCOR   =        T    correct aug charges                                     
   LPAW   =        T    paw PP                                                  
   EAUG   =  644.873                                                            
   DEXC   =    0.000                                                            
   RMAX   =    1.529    core radius for proj-oper                               
   RAUG   =    1.300    factor for augmentation sphere                          
   RDEP   =    1.501    radius for radial grids                                 
   RDEPT  =    1.300    core radius for aug-charge                              
                                                                                
   Atomic configuration                                                         
    4 entries                                                                   
     n  l   j            E        occ.                                          
     1  0  0.50      -273.3789   2.0000                                         
     2  0  0.50       -13.7508   2.0000                                         
     2  1  0.50        -5.2854   2.0000                                         
     3  2  1.50        -5.4423   0.0000                                         
   Description                                                                  
     l       E           TYP  RCUT    TYP  RCUT                                 
     0    -13.7508458     23  1.200                                             
     0     -8.2022199     23  1.200                                             
     1     -5.2854383     23  1.500                                             
     1     34.0145650     23  1.500                                             
     2     -5.4423304      7  1.500                                             
  local pseudopotential read in
  partial core-charges read in
  partial kinetic energy density read in
  atomic valenz-charges read in
  non local Contribution for L=           0  read in
    real space projection operators read in
  non local Contribution for L=           0  read in
    real space projection operators read in
  non local Contribution for L=           1  read in
    real space projection operators read in
  non local Contribution for L=           1  read in
    real space projection operators read in
    PAW grid and wavefunctions read in
 
   number of l-projection  operators is LMAX  =           4
   number of lm-projection operators is LMMAX =           8
 
 POTCAR:    PAW_PBE O 08Apr2002                   
   VRHFIN =O: s2p4                                                              
   LEXCH  = PE                                                                  
   EATOM  =   432.3788 eV,   31.7789 Ry                                         
                                                                                
   TITEL  = PAW_PBE O 08Apr2002                                                 
   LULTRA =        F    use ultrasoft PP ?                                      
   IUNSCR =        1    unscreen: 0-lin 1-nonlin 2-no                           
   RPACOR =    1.200    partial core radius                                     
   POMASS =   16.000; ZVAL   =    6.000    mass and valenz                      
   RCORE  =    1.520    outmost cutoff radius                                   
   RWIGS  =    1.550; RWIGS  =    0.820    wigner-seitz radius (au A)           
   ENMAX  =  400.000; ENMIN  =  300.000 eV                                      
   ICORE  =        2    local potential                                         
   LCOR   =        T    correct aug charges                                     
   LPAW   =        T    paw PP                                                  
   EAUG   =  605.392                                                            
   DEXC   =    0.000                                                            
   RMAX   =    1.553    core radius for proj-oper                               
   RAUG   =    1.300    factor for augmentation sphere                          
   RDEP   =    1.550    radius for radial grids                                 
   RDEPT  =    1.329    core radius for aug-charge                              
                                                                                
   Atomic configuration                                                         
    4 entries                                                                   
     n  l   j            E        occ.                                          
     1  0  0.50      -514.6923   2.0000                                         
     2  0  0.50       -23.9615   2.0000                                         
     2  1  0.50        -9.0305   4.0000                                         
     3  2  1.50        -9.5241   0.0000                                         
   Description                                                                  
     l       E           TYP  RCUT    TYP  RCUT                                 
     0    -23.9615318     23  1.200                                             
     0     -9.5240782     23  1.200                                             
     1     -9.0304911     23  1.520                                             
     1      8.1634956     23  1.520                                             
     2     -9.5240782      7  1.500                                             
  local pseudopotential read in
  partial core-charges read in
  partial kinetic energy density read in
  kinetic energy density of atom read in
  atomic valenz-charges read in
  non local Contribution for L=           0  read in
    real space projection operators read in
  non local Contribution for L=           0  read in
    real space projection operators read in
  non local Contribution for L=           1  read in
    real space projection operators read in
  non local Contribution for L=           1  read in
    real space projection operators read in
    PAW grid and wavefunctions read in
 
   number of l-projection  operators is LMAX  =           4
   number of lm-projection operators is LMMAX =           8
 
  PAW_PBE Cu 22Jun2005                  :
 energy of atom  1       EATOM=-1390.9808
 kinetic energy error for atom=    0.0033 (will be added to EATOM!!)
  PAW_PBE C 08Apr2002                   :
 energy of atom  2       EATOM= -147.1560
 kinetic energy error for atom=    0.0057 (will be added to EATOM!!)
  PAW_PBE O 08Apr2002                   :
 energy of atom  3       EATOM= -432.3788
 kinetic energy error for atom=    0.0168 (will be added to EATOM!!)
 
 
 POSCAR: Cu13 C1 O1                              
  positions in cartesian coordinates
  No initial velocities read in
 exchange correlation table for  LEXCH =        8
   RHO(1)=    0.500       N(1)  =     2000
   RHO(2)=  100.500       N(2)  =     4000
 


--------------------------------------------------------------------------------------------------------


 ion  position               nearest neighbor table
   1  0.289  0.417  0.553-   8 2.46   3 2.47   7 2.49   9 2.55   2 2.55   6 2.59
   2  0.376  0.549  0.489-   7 2.41  10 2.42   8 2.42  11 2.43   4 2.48   1 2.55  13 2.57   9 2.61
                             6 2.74
   3  0.396  0.292  0.566-   7 2.43   6 2.45   5 2.47   1 2.47
   4  0.536  0.510  0.480-  12 2.40  11 2.45   2 2.48  13 2.51   7 2.51   5 2.59   6 2.65
   5  0.548  0.345  0.528-   6 2.43   3 2.47   7 2.48   4 2.59  12 2.64
   6  0.449  0.439  0.616-  13 2.37   5 2.43   9 2.45   3 2.45   1 2.59   4 2.65   7 2.66  12 2.72
                             2 2.74
   7  0.415  0.399  0.446-   2 2.41   3 2.43   5 2.48   1 2.49   4 2.51   6 2.66
   8  0.228  0.569  0.548-   9 2.28   2 2.42   1 2.46  10 2.54
   9  0.332  0.545  0.657-   8 2.28   6 2.45  10 2.47  13 2.48   1 2.55   2 2.61
  10  0.350  0.684  0.572-   2 2.42   9 2.47  13 2.52  11 2.53   8 2.54
  11  0.488  0.665  0.478-  13 2.32   2 2.43   4 2.45  10 2.53
  12  0.626  0.480  0.609-  14 1.81   4 2.40   5 2.64   6 2.72  13 2.72
  13  0.484  0.593  0.614-  11 2.32   6 2.37   9 2.48   4 2.51  10 2.52   2 2.57  12 2.72
  14  0.741  0.489  0.644-  15 1.16  12 1.81
  15  0.818  0.493  0.648-  14 1.16
 

IMPORTANT INFORMATION: All symmetrisations will be switched off!
NOSYMM: (Re-)initialisation of all symmetry stuff for point group C_1.

 
 

Automatic generation of k-mesh.
 generate k-points for:    1    1    1
Space group operators:
 irot       det(A)        alpha          n_x          n_y          n_z        tau_x        tau_y        tau_z
    1     1.000000     0.000000     1.000000     0.000000     0.000000     0.000000     0.000000     0.000000
 
 Subroutine IBZKPT returns following result:
 ===========================================
 
 Found      1 irreducible k-points:
 
 Following reciprocal coordinates:
            Coordinates               Weight
  0.000000  0.000000  0.000000      1.000000
 
 Following cartesian coordinates:
            Coordinates               Weight
  0.000000  0.000000  0.000000      1.000000
 


--------------------------------------------------------------------------------------------------------




 Dimension of arrays:
   k-points           NKPTS =      1   k-points in BZ     NKDIM =      1   number of bands    NBANDS=     92
   number of dos      NEDOS =    301   number of ions     NIONS =     15
   non local maximal  LDIM  =      6   non local SUM 2l+1 LMDIM =     18
   total plane-waves  NPLWV = ******
   max r-space proj   IRMAX =      1   max aug-charges    IRDMAX=  15028
   dimension x,y,z NGX =   120 NGY =  120 NGZ =  120
   dimension x,y,z NGXF=   240 NGYF=  240 NGZF=  240
   support grid    NGXF=   240 NGYF=  240 NGZF=  240
   ions per type =              13   1   1
   NGX,Y,Z   is equivalent  to a cutoff of  13.30, 13.30, 13.30 a.u.
   NGXF,Y,Z  is equivalent  to a cutoff of  26.60, 26.60, 26.60 a.u.

 SYSTEM =  CuCO                                    
 POSCAR =  Cu13 C1 O1                              

 Startparameter for this run:
   NWRITE =      2    write-flag & timer
   PREC   = accura    normal or accurate (medium, high low for compatibility)
   ISTART =      0    job   : 0-new  1-cont  2-samecut
   ICHARG =      2    charge: 1-file 2-atom 10-const
   ISPIN  =      2    spin polarized calculation?
   LNONCOLLINEAR =      F non collinear calculations
   LSORBIT =      F    spin-orbit coupling
   INIWAV =      1    electr: 0-lowe 1-rand  2-diag
   LASPH  =      F    aspherical Exc in radial PAW
   METAGGA=      F    non-selfconsistent MetaGGA calc.

 Electronic Relaxation 1
   ENCUT  =  600.0 eV  44.10 Ry    6.64 a.u.  29.96 29.96 29.96*2*pi/ulx,y,z
   ENINI  =  600.0     initial cutoff
   ENAUG  =  644.9 eV  augmentation charge cutoff
   NELM   =    300;   NELMIN=  3; NELMDL= -5     # of ELM steps 
   EDIFF  = 0.1E-06   stopping-criterion for ELM
   LREAL  =      F    real-space projection
   NLSPLINE    = F    spline interpolate recip. space projectors
   LCOMPAT=      F    compatible to vasp.4.4
   GGA_COMPAT  = T    GGA compatible to vasp.4.4-vasp.4.6
   LMAXPAW     = -100 max onsite density
   LMAXMIX     =    2 max onsite mixed and CHGCAR
   VOSKOWN=      0    Vosko Wilk Nusair interpolation
   ROPT   =    0.00000   0.00000   0.00000
 Ionic relaxation
   EDIFFG = -.1E-02   stopping-criterion for IOM
   NSW    =      0    number of steps for IOM
   NBLOCK =      1;   KBLOCK =      1    inner block; outer block 
   IBRION =     -1    ionic relax: 0-MD 1-quasi-New 2-CG
   NFREE  =      0    steps in history (QN), initial steepest desc. (CG)
   ISIF   =      2    stress and relaxation
   IWAVPR =     10    prediction:  0-non 1-charg 2-wave 3-comb
   ISYM   =      0    0-nonsym 1-usesym 2-fastsym
   LCORR  =      T    Harris-Foulkes like correction to forces

   POTIM  = 0.5000    time-step for ionic-motion
   TEIN   =    0.0    initial temperature
   TEBEG  =    0.0;   TEEND  =   0.0 temperature during run
   SMASS  =  -3.00    Nose mass-parameter (am)
   estimated Nose-frequenzy (Omega)   =  0.10E-29 period in steps =****** mass=  -0.514E-26a.u.
   SCALEE = 1.0000    scale energy and forces
   NPACO  =    256;   APACO  = 16.0  distance and # of slots for P.C.
   PSTRESS=    0.0 pullay stress

  Mass of Ions in am
   POMASS =  63.55 12.01 16.00
  Ionic Valenz
   ZVAL   =  11.00  4.00  6.00
  Atomic Wigner-Seitz radii
   RWIGS  =  -1.00 -1.00 -1.00
  virtual crystal weights 
   VCA    =   1.00  1.00  1.00
   NELECT =     153.0000    total number of electrons
   NUPDOWN=       1.0000    fix difference up-down

 DOS related values:
   EMIN   =  10.00;   EMAX   =-10.00  energy-range for DOS
   EFERMI =   0.00
   ISMEAR =     1;   SIGMA  =   0.10  broadening in eV -4-tet -1-fermi 0-gaus

 Electronic relaxation 2 (details)
   IALGO  =     68    algorithm
   LDIAG  =      T    sub-space diagonalisation (order eigenvalues)
   LSUBROT=      F    optimize rotation matrix (better conditioning)
   TURBO    =      0    0=normal 1=particle mesh
   IRESTART =      0    0=no restart 2=restart with 2 vectors
   NREBOOT  =      0    no. of reboots
   NMIN     =      0    reboot dimension
   EREF     =   0.00    reference energy to select bands
   IMIX   =      4    mixing-type and parameters
     AMIX     =   0.40;   BMIX     =  1.00
     AMIX_MAG =   1.60;   BMIX_MAG =  1.00
     AMIN     =   0.10
     WC   =   100.;   INIMIX=   1;  MIXPRE=   1;  MAXMIX= -45

 Intra band minimization:
   WEIMIN = 0.0000     energy-eigenvalue tresh-hold
   EBREAK =  0.27E-09  absolut break condition
   DEPER  =   0.30     relativ break condition  

   TIME   =   0.40     timestep for ELM

  volume/ion in A,a.u.               =     225.00      1518.37
  Fermi-wavevector in a.u.,A,eV,Ry     =   0.583733  1.103095  4.636102  0.340744
  Thomas-Fermi vector in A             =   1.629149
 
 Write flags
   LWAVE        =      F    write WAVECAR
   LDOWNSAMPLE  =      F    k-point downsampling of WAVECAR
   LCHARG       =      F    write CHGCAR
   LVTOT        =      F    write LOCPOT, total local potential
   LVHAR        =      F    write LOCPOT, Hartree potential only
   LELF         =      F    write electronic localiz. function (ELF)
   LORBIT       =      0    0 simple, 1 ext, 2 COOP (PROOUT), +10 PAW based schemes


 Dipole corrections
   LMONO  =      F    monopole corrections only (constant potential shift)
   LDIPOL =      F    correct potential (dipole corrections)
   IDIPOL =      0    1-x, 2-y, 3-z, 4-all directions 
   EPSILON=  1.0000000 bulk dielectric constant

 Exchange correlation treatment:
   GGA     =    PE    GGA type
   LEXCH   =     8    internal setting for exchange type
   VOSKOWN=      0    Vosko Wilk Nusair interpolation
   LHFCALC =     F    Hartree Fock is set to
   LHFONE  =     F    Hartree Fock one center treatment
   AEXX    =    0.0000 exact exchange contribution

 Linear response parameters
   LEPSILON=     F    determine dielectric tensor
   LRPA    =     F    only Hartree local field effects (RPA)
   LNABLA  =     F    use nabla operator in PAW spheres
   LVEL    =     F    velocity operator in full k-point grid
   LINTERFAST=   F  fast interpolation
   KINTER  =     0    interpolate to denser k-point grid
   CSHIFT  =0.1000    complex shift for real part using Kramers Kronig
   OMEGAMAX=  -1.0    maximum frequency
   DEG_THRESHOLD= 0.2000000E-02 threshold for treating states as degnerate
   RTIME   =   -0.100 relaxation time in fs
  (WPLASMAI=    0.000 imaginary part of plasma frequency in eV, 0.658/RTIME)
   DFIELD  = 0.0000000 0.0000000 0.0000000 field for delta impulse in time
 
 Orbital magnetization related:
   ORBITALMAG=     F  switch on orbital magnetization
   LCHIMAG   =     F  perturbation theory with respect to B field
   DQ        =  0.001000  dq finite difference perturbation B field
   LLRAUG    =     F  two centre corrections for induced B field



--------------------------------------------------------------------------------------------------------


 Static calculation
 charge density and potential will be updated during run
 spin polarized calculation
 RMM-DIIS sequential band-by-band and
  variant of blocked Davidson during initial phase
 perform sub-space diagonalisation
    before iterative eigenvector-optimisation
 modified Broyden-mixing scheme, WC =      100.0
 initial mixing is a Kerker type mixing with AMIX =  0.4000 and BMIX =      1.0000
 Hartree-type preconditioning will be used
 using additional bands           15
 reciprocal scheme for non local part
 use partial core corrections
 calculate Harris-corrections to forces 
   (improved forces if not selfconsistent)
 use gradient corrections 
 use of overlap-Matrix (Vanderbilt PP)
 Methfessel and Paxton  Order N= 1 SIGMA  =   0.10


--------------------------------------------------------------------------------------------------------


  energy-cutoff  :      600.00
  volume of cell :     3375.00
      direct lattice vectors                 reciprocal lattice vectors
    15.000000000  0.000000000  0.000000000     0.066666667  0.000000000  0.000000000
     0.000000000 15.000000000  0.000000000     0.000000000  0.066666667  0.000000000
     0.000000000  0.000000000 15.000000000     0.000000000  0.000000000  0.066666667

  length of vectors
    15.000000000 15.000000000 15.000000000     0.066666667  0.066666667  0.066666667


 
 k-points in units of 2pi/SCALE and weight: read from INCAR                         
   0.00000000  0.00000000  0.00000000       1.000
 
 k-points in reciprocal lattice and weights: read from INCAR                         
   0.00000000  0.00000000  0.00000000       1.000
 
 position of ions in fractional coordinates (direct lattice) 
   0.28933733  0.41709133  0.55302333
   0.37614000  0.54882533  0.48886467
   0.39613000  0.29238067  0.56613067
   0.53649600  0.50960733  0.47959400
   0.54756800  0.34467667  0.52844267
   0.44877267  0.43917400  0.61563533
   0.41540600  0.39924467  0.44602933
   0.22781533  0.56895333  0.54842533
   0.33151533  0.54467267  0.65688867
   0.34951200  0.68442667  0.57165733
   0.48820067  0.66547600  0.47770933
   0.62559000  0.47991067  0.60917400
   0.48393667  0.59338733  0.61422067
   0.74090667  0.48902200  0.64377867
   0.81820667  0.49253800  0.64817000
 
 position of ions in cartesian coordinates  (Angst):
   4.34006000  6.25637000  8.29535000
   5.64210000  8.23238000  7.33297000
   5.94195000  4.38571000  8.49196000
   8.04744000  7.64411000  7.19391000
   8.21352000  5.17015000  7.92664000
   6.73159000  6.58761000  9.23453000
   6.23109000  5.98867000  6.69044000
   3.41723000  8.53430000  8.22638000
   4.97273000  8.17009000  9.85333000
   5.24268000 10.26640000  8.57486000
   7.32301000  9.98214000  7.16564000
   9.38385000  7.19866000  9.13761000
   7.25905000  8.90081000  9.21331000
  11.11360000  7.33533000  9.65668000
  12.27310000  7.38807000  9.72255000
 


--------------------------------------------------------------------------------------------------------


 k-point  1 :   0.0000 0.0000 0.0000  plane waves:  112451

 maximum and minimum number of plane-waves per node :     18753    18726

 maximum number of plane-waves:    112451
 maximum index in each direction: 
   IXMAX=   29   IYMAX=   29   IZMAX=   29
   IXMIN=  -29   IYMIN=  -29   IZMIN=  -29


 parallel 3D FFT for wavefunctions:
    minimum data exchange during FFTs selected (reduces bandwidth)
 parallel 3D FFT for charge:
    minimum data exchange during FFTs selected (reduces bandwidth)


 total amount of memory used by VASP MPI-rank0   158680. kBytes
=======================================================================

   base      :      30000. kBytes
   nonl-proj :      12601. kBytes
   fftplans  :      27994. kBytes
   grid      :      74150. kBytes
   one-center:         93. kBytes
   wavefun   :      13842. kBytes
 
     INWAV:  cpu time    0.0000: real time    0.0001
 Broyden mixing: mesh for mixing (old mesh)
   NGX = 59   NGY = 59   NGZ = 59
  (NGX  =240   NGY  =240   NGZ  =240)
  gives a total of 205379 points

 initial charge density was supplied:
 charge density of overlapping atoms calculated
 number of electron     153.0000000 magnetization       1.0000000
 keeping initial charge density in first step


--------------------------------------------------------------------------------------------------------


 Maximum index for augmentation-charges          712 (set IRDMAX)


--------------------------------------------------------------------------------------------------------


 First call to EWALD:  gamma=   0.118
 Maximum number of real-space cells 3x 3x 3
 Maximum number of reciprocal cells 3x 3x 3

    FEWALD:  cpu time    0.0017: real time    0.0023


--------------------------------------- Iteration      1(   1)  ---------------------------------------


    POTLOK:  cpu time    1.1848: real time    1.1868
    SETDIJ:  cpu time    0.0187: real time    0.0187
     EDDAV:  cpu time    7.4818: real time    7.4855
       DOS:  cpu time    0.0008: real time    0.0008
    --------------------------------------------
      LOOP:  cpu time    8.6862: real time    8.6919

 eigenvalue-minimisations  :   376
 total energy-change (2. order) : 0.1117088E+04  (-0.4459957E+04)
 number of electron     153.0000000 magnetization       1.0000000
 augmentation part      153.0000000 magnetization       1.0000000

 Free energy of the ion-electron system (eV)
  ---------------------------------------------------
  alpha Z        PSCENC =        41.16232785
  Ewald energy   TEWEN  =     16175.94060072
  -Hartree energ DENC   =    -33202.58789549
  -exchange      EXHF   =         0.00000000
  -V(xc)+E(xc)   XCENC  =       623.18193563
  PAW double counting   =     16421.75059358   -17800.06104309
  entropy T*S    EENTRO =         0.00912453
  eigenvalues    EBANDS =       195.47318743
  atomic energy  EATOM  =     18662.21924712
  Solvation  Ediel_sol  =         0.00000000
  ---------------------------------------------------
  free energy    TOTEN  =      1117.08807828 eV

  energy without entropy =     1117.07895375  energy(sigma->0) =     1117.08503677


--------------------------------------------------------------------------------------------------------




--------------------------------------- Iteration      1(   2)  ---------------------------------------


     EDDAV:  cpu time    7.3717: real time    7.3792
       DOS:  cpu time    0.0008: real time    0.0008
    --------------------------------------------
      LOOP:  cpu time    7.3725: real time    7.3800

 eigenvalue-minimisations  :   368
 total energy-change (2. order) :-0.1027396E+04  (-0.9757675E+03)
 number of electron     153.0000000 magnetization       1.0000000
 augmentation part      153.0000000 magnetization       1.0000000

 Free energy of the ion-electron system (eV)
  ---------------------------------------------------
  alpha Z        PSCENC =        41.16232785
  Ewald energy   TEWEN  =     16175.94060072
  -Hartree energ DENC   =    -33202.58789549
  -exchange      EXHF   =         0.00000000
  -V(xc)+E(xc)   XCENC  =       623.18193563
  PAW double counting   =     16421.75059358   -17800.06104309
  entropy T*S    EENTRO =         0.00894793
  eigenvalues    EBANDS =      -831.92305249
  atomic energy  EATOM  =     18662.21924712
  Solvation  Ediel_sol  =         0.00000000
  ---------------------------------------------------
  free energy    TOTEN  =        89.69166176 eV

  energy without entropy =       89.68271383  energy(sigma->0) =       89.68867912


--------------------------------------------------------------------------------------------------------




--------------------------------------- Iteration      1(   3)  ---------------------------------------


     EDDAV:  cpu time   11.2735: real time   11.2783
       DOS:  cpu time    0.0005: real time    0.0005
    --------------------------------------------
      LOOP:  cpu time   11.2740: real time   11.2789

 eigenvalue-minimisations  :   632
 total energy-change (2. order) :-0.1217058E+03  (-0.1135928E+03)
 number of electron     153.0000000 magnetization       1.0000000
 augmentation part      153.0000000 magnetization       1.0000000

 Free energy of the ion-electron system (eV)
  ---------------------------------------------------
  alpha Z        PSCENC =        41.16232785
  Ewald energy   TEWEN  =     16175.94060072
  -Hartree energ DENC   =    -33202.58789549
  -exchange      EXHF   =         0.00000000
  -V(xc)+E(xc)   XCENC  =       623.18193563
  PAW double counting   =     16421.75059358   -17800.06104309
  entropy T*S    EENTRO =         0.01568440
  eigenvalues    EBANDS =      -953.63562362
  atomic energy  EATOM  =     18662.21924712
  Solvation  Ediel_sol  =         0.00000000
  ---------------------------------------------------
  free energy    TOTEN  =       -32.01417291 eV

  energy without entropy =      -32.02985731  energy(sigma->0) =      -32.01940104


--------------------------------------------------------------------------------------------------------




--------------------------------------- Iteration      1(   4)  ---------------------------------------


     EDDAV:  cpu time   10.1005: real time   10.1033
       DOS:  cpu time    0.0010: real time    0.0010
    --------------------------------------------
      LOOP:  cpu time   10.1015: real time   10.1043

 eigenvalue-minimisations  :   552
 total energy-change (2. order) :-0.2358140E+02  (-0.2319912E+02)
 number of electron     153.0000000 magnetization       1.0000000
 augmentation part      153.0000000 magnetization       1.0000000

 Free energy of the ion-electron system (eV)
  ---------------------------------------------------
  alpha Z        PSCENC =        41.16232785
  Ewald energy   TEWEN  =     16175.94060072
  -Hartree energ DENC   =    -33202.58789549
  -exchange      EXHF   =         0.00000000
  -V(xc)+E(xc)   XCENC  =       623.18193563
  PAW double counting   =     16421.75059358   -17800.06104309
  entropy T*S    EENTRO =         0.01018272
  eigenvalues    EBANDS =      -977.21151962
  atomic energy  EATOM  =     18662.21924712
  Solvation  Ediel_sol  =         0.00000000
  ---------------------------------------------------
  free energy    TOTEN  =       -55.59557058 eV

  energy without entropy =      -55.60575331  energy(sigma->0) =      -55.59896483


--------------------------------------------------------------------------------------------------------




--------------------------------------- Iteration      1(   5)  ---------------------------------------


     EDDAV:  cpu time   12.0043: real time   12.0088
       DOS:  cpu time    0.0008: real time    0.0008
    CHARGE:  cpu time    0.6905: real time    0.6907
    MIXING:  cpu time    0.0242: real time    0.0242
    --------------------------------------------
      LOOP:  cpu time   12.7197: real time   12.7244

 eigenvalue-minimisations  :   680
 total energy-change (2. order) :-0.1816963E+01  (-0.1662980E+01)
 number of electron     153.0000002 magnetization       1.0000000
 augmentation part       87.4289574 magnetization       0.3729648

 Broyden mixing:
  rms(total) = 0.23976E+01    rms(broyden)= 0.23974E+01
  rms(prec ) = 0.27559E+01
  weight for this iteration     100.00

 Free energy of the ion-electron system (eV)
  ---------------------------------------------------
  alpha Z        PSCENC =        41.16232785
  Ewald energy   TEWEN  =     16175.94060072
  -Hartree energ DENC   =    -33202.58789549
  -exchange      EXHF   =         0.00000000
  -V(xc)+E(xc)   XCENC  =       623.18193563
  PAW double counting   =     16421.75059358   -17800.06104309
  entropy T*S    EENTRO =         0.00900689
  eigenvalues    EBANDS =      -979.02730681
  atomic energy  EATOM  =     18662.21924712
  Solvation  Ediel_sol  =         0.00000000
  ---------------------------------------------------
  free energy    TOTEN  =       -57.41253361 eV

  energy without entropy =      -57.42154050  energy(sigma->0) =      -57.41553590


--------------------------------------------------------------------------------------------------------




--------------------------------------- Iteration      1(   6)  ---------------------------------------


    POTLOK:  cpu time    1.1790: real time    1.1809
    SETDIJ:  cpu time    0.0203: real time    0.0203
    EDDIAG:  cpu time    1.0962: real time    1.0966
  RMM-DIIS:  cpu time    7.1866: real time    7.1891
    ORTHCH:  cpu time    0.0596: real time    0.0596
       DOS:  cpu time    0.0007: real time    0.0007
    CHARGE:  cpu time    0.6406: real time    0.6409
    MIXING:  cpu time    0.0240: real time    0.0240
    --------------------------------------------
      LOOP:  cpu time   10.2071: real time   10.2121

 eigenvalue-minimisations  :   427
 total energy-change (2. order) : 0.3721329E+00  (-0.1255724E+02)
 number of electron     153.0000004 magnetization       1.0000000
 augmentation part       95.8017609 magnetization       0.0718169

 Broyden mixing:
  rms(total) = 0.16152E+01    rms(broyden)= 0.16150E+01
  rms(prec ) = 0.18617E+01
  weight for this iteration     100.00

 eigenvalues of (default mixing * dielectric matrix)
  average eigenvalue GAMMA=   0.6061
  0.6061

 Free energy of the ion-electron system (eV)
  ---------------------------------------------------
  alpha Z        PSCENC =        41.16232785
  Ewald energy   TEWEN  =     16175.94060072
  -Hartree energ DENC   =    -32946.19982346
  -exchange      EXHF   =         0.00000000
  -V(xc)+E(xc)   XCENC  =       610.90435965
  PAW double counting   =     16675.65887774   -17998.41619298
  entropy T*S    EENTRO =         0.00893140
  eigenvalues    EBANDS =     -1278.31872875
  atomic energy  EATOM  =     18662.21924712
  Solvation  Ediel_sol  =         0.00000000
  ---------------------------------------------------
  free energy    TOTEN  =       -57.04040071 eV

  energy without entropy =      -57.04933211  energy(sigma->0) =      -57.04337784


--------------------------------------------------------------------------------------------------------




--------------------------------------- Iteration      1(   7)  ---------------------------------------


    POTLOK:  cpu time    1.1760: real time    1.1769
    SETDIJ:  cpu time    0.0203: real time    0.0203
    EDDIAG:  cpu time    1.0973: real time    1.0980
  RMM-DIIS:  cpu time    7.2898: real time    7.2916
    ORTHCH:  cpu time    0.0599: real time    0.0599
       DOS:  cpu time    0.0007: real time    0.0007
    CHARGE:  cpu time    0.6550: real time    0.6549
    MIXING:  cpu time    0.0255: real time    0.0255
    --------------------------------------------
      LOOP:  cpu time   10.3245: real time   10.3279

 eigenvalue-minimisations  :   380
 total energy-change (2. order) : 0.7690080E+01  (-0.2616662E+01)
 number of electron     153.0000004 magnetization       1.0000000
 augmentation part       92.9469808 magnetization       0.1042213

 Broyden mixing:
  rms(total) = 0.40432E+00    rms(broyden)= 0.40429E+00
  rms(prec ) = 0.50118E+00
  weight for this iteration     100.00

 eigenvalues of (default mixing * dielectric matrix)
  average eigenvalue GAMMA=   0.9144
  1.1544  0.6744

 Free energy of the ion-electron system (eV)
  ---------------------------------------------------
  alpha Z        PSCENC =        41.16232785
  Ewald energy   TEWEN  =     16175.94060072
  -Hartree energ DENC   =    -33082.45492566
  -exchange      EXHF   =         0.00000000
  -V(xc)+E(xc)   XCENC  =       615.38508587
  PAW double counting   =     17012.25350284   -18385.10714847
  entropy T*S    EENTRO =         0.00900082
  eigenvalues    EBANDS =     -1088.75801153
  atomic energy  EATOM  =     18662.21924712
  Solvation  Ediel_sol  =         0.00000000
  ---------------------------------------------------
  free energy    TOTEN  =       -49.35032044 eV

  energy without entropy =      -49.35932126  energy(sigma->0) =      -49.35332071


--------------------------------------------------------------------------------------------------------




--------------------------------------- Iteration      1(   8)  ---------------------------------------


    POTLOK:  cpu time    1.1748: real time    1.1757
    SETDIJ:  cpu time    0.0204: real time    0.0204
    EDDIAG:  cpu time    1.0955: real time    1.0959
  RMM-DIIS:  cpu time    6.9938: real time    7.0072
    ORTHCH:  cpu time    0.0600: real time    0.0600
       DOS:  cpu time    0.0007: real time    0.0007
    CHARGE:  cpu time    0.6527: real time    0.6531
    MIXING:  cpu time    0.0257: real time    0.0257
    --------------------------------------------
      LOOP:  cpu time   10.0236: real time   10.0386

 eigenvalue-minimisations  :   424
 total energy-change (2. order) : 0.2769087E+00  (-0.4465023E+00)
 number of electron     153.0000003 magnetization       1.0000000
 augmentation part       92.1079174 magnetization       0.1062985

 Broyden mixing:
  rms(total) = 0.31416E+00    rms(broyden)= 0.31414E+00
  rms(prec ) = 0.35515E+00
  weight for this iteration     100.00

 eigenvalues of (default mixing * dielectric matrix)
  average eigenvalue GAMMA=   0.9097
  1.3195  0.7048  0.7048

 Free energy of the ion-electron system (eV)
  ---------------------------------------------------
  alpha Z        PSCENC =        41.16232785
  Ewald energy   TEWEN  =     16175.94060072
  -Hartree energ DENC   =    -33132.01643583
  -exchange      EXHF   =         0.00000000
  -V(xc)+E(xc)   XCENC  =       615.85492459
  PAW double counting   =     17356.72214542   -18749.12165489
  entropy T*S    EENTRO =         0.00879733
  eigenvalues    EBANDS =     -1019.84336399
  atomic energy  EATOM  =     18662.21924712
  Solvation  Ediel_sol  =         0.00000000
  ---------------------------------------------------
  free energy    TOTEN  =       -49.07341169 eV

  energy without entropy =      -49.08220902  energy(sigma->0) =      -49.07634414


--------------------------------------------------------------------------------------------------------




--------------------------------------- Iteration      1(   9)  ---------------------------------------


    POTLOK:  cpu time    1.1783: real time    1.1811
    SETDIJ:  cpu time    0.0206: real time    0.0206
    EDDIAG:  cpu time    1.0986: real time    1.0989
  RMM-DIIS:  cpu time    7.0917: real time    7.1008
    ORTHCH:  cpu time    0.0582: real time    0.0582
       DOS:  cpu time    0.0005: real time    0.0005
    CHARGE:  cpu time    0.6553: real time    0.6555
    MIXING:  cpu time    0.0249: real time    0.0249
    --------------------------------------------
      LOOP:  cpu time   10.1280: real time   10.1405

 eigenvalue-minimisations  :   409
 total energy-change (2. order) : 0.4888363E-01  (-0.1069290E+00)
 number of electron     153.0000003 magnetization       1.0000000
 augmentation part       92.2969291 magnetization       0.0893756

 Broyden mixing:
  rms(total) = 0.19305E+00    rms(broyden)= 0.19304E+00
  rms(prec ) = 0.22908E+00
  weight for this iteration     100.00

 eigenvalues of (default mixing * dielectric matrix)
  average eigenvalue GAMMA=   1.0298
  2.0794  0.7710  0.7710  0.4979

 Free energy of the ion-electron system (eV)
  ---------------------------------------------------
  alpha Z        PSCENC =        41.16232785
  Ewald energy   TEWEN  =     16175.94060072
  -Hartree energ DENC   =    -33130.10821129
  -exchange      EXHF   =         0.00000000
  -V(xc)+E(xc)   XCENC  =       615.40748275
  PAW double counting   =     17458.50676993   -18852.66445337
  entropy T*S    EENTRO =         0.00877582
  eigenvalues    EBANDS =     -1019.49706759
  atomic energy  EATOM  =     18662.21924712
  Solvation  Ediel_sol  =         0.00000000
  ---------------------------------------------------
  free energy    TOTEN  =       -49.02452806 eV

  energy without entropy =      -49.03330388  energy(sigma->0) =      -49.02745333


--------------------------------------------------------------------------------------------------------




--------------------------------------- Iteration      1(  10)  ---------------------------------------


    POTLOK:  cpu time    1.1735: real time    1.1751
    SETDIJ:  cpu time    0.0196: real time    0.0196
    EDDIAG:  cpu time    1.0897: real time    1.0901
  RMM-DIIS:  cpu time    6.8304: real time    6.8398
    ORTHCH:  cpu time    0.0564: real time    0.0564
       DOS:  cpu time    0.0004: real time    0.0004
    CHARGE:  cpu time    0.6566: real time    0.6570
    MIXING:  cpu time    0.0266: real time    0.0266
    --------------------------------------------
      LOOP:  cpu time    9.8533: real time    9.8651

 eigenvalue-minimisations  :   421
 total energy-change (2. order) : 0.6743696E-01  (-0.2301337E-01)
 number of electron     153.0000003 magnetization       1.0000000
 augmentation part       92.4773653 magnetization       0.0772627

 Broyden mixing:
  rms(total) = 0.62821E-01    rms(broyden)= 0.62816E-01
  rms(prec ) = 0.81537E-01
  weight for this iteration     100.00

 eigenvalues of (default mixing * dielectric matrix)
  average eigenvalue GAMMA=   1.0320
  2.0982  1.0198  0.7806  0.7806  0.4807

 Free energy of the ion-electron system (eV)
  ---------------------------------------------------
  alpha Z        PSCENC =        41.16232785
  Ewald energy   TEWEN  =     16175.94060072
  -Hartree energ DENC   =    -33128.69855813
  -exchange      EXHF   =         0.00000000
  -V(xc)+E(xc)   XCENC  =       614.96535204
  PAW double counting   =     17566.09934334   -18961.99306216
  entropy T*S    EENTRO =         0.00871739
  eigenvalues    EBANDS =     -1018.66105927
  atomic energy  EATOM  =     18662.21924712
  Solvation  Ediel_sol  =         0.00000000
  ---------------------------------------------------
  free energy    TOTEN  =       -48.95709111 eV

  energy without entropy =      -48.96580850  energy(sigma->0) =      -48.95999690


--------------------------------------------------------------------------------------------------------




--------------------------------------- Iteration      1(  11)  ---------------------------------------


    POTLOK:  cpu time    1.1732: real time    1.1737
    SETDIJ:  cpu time    0.0194: real time    0.0194
    EDDIAG:  cpu time    1.0937: real time    1.0942
  RMM-DIIS:  cpu time    7.1173: real time    7.1242
    ORTHCH:  cpu time    0.0568: real time    0.0568
       DOS:  cpu time    0.0004: real time    0.0004
    CHARGE:  cpu time    0.6520: real time    0.6522
    MIXING:  cpu time    0.0271: real time    0.0270
    --------------------------------------------
      LOOP:  cpu time   10.1398: real time   10.1480

 eigenvalue-minimisations  :   429
 total energy-change (2. order) : 0.9711530E-02  (-0.8270633E-02)
 number of electron     153.0000003 magnetization       1.0000000
 augmentation part       92.4033401 magnetization       0.0819959

 Broyden mixing:
  rms(total) = 0.41459E-01    rms(broyden)= 0.41455E-01
  rms(prec ) = 0.53376E-01
  weight for this iteration     100.00

 eigenvalues of (default mixing * dielectric matrix)
  average eigenvalue GAMMA=   1.0294
  2.1344  1.3865  0.7639  0.7639  0.6423  0.4851

 Free energy of the ion-electron system (eV)
  ---------------------------------------------------
  alpha Z        PSCENC =        41.16232785
  Ewald energy   TEWEN  =     16175.94060072
  -Hartree energ DENC   =    -33136.74945522
  -exchange      EXHF   =         0.00000000
  -V(xc)+E(xc)   XCENC  =       615.09937551
  PAW double counting   =     17610.25053146   -19008.24051301
  entropy T*S    EENTRO =         0.00877659
  eigenvalues    EBANDS =     -1008.63827059
  atomic energy  EATOM  =     18662.21924712
  Solvation  Ediel_sol  =         0.00000000
  ---------------------------------------------------
  free energy    TOTEN  =       -48.94737958 eV

  energy without entropy =      -48.95615617  energy(sigma->0) =      -48.95030511


--------------------------------------------------------------------------------------------------------




--------------------------------------- Iteration      1(  12)  ---------------------------------------


    POTLOK:  cpu time    1.1749: real time    1.1772
    SETDIJ:  cpu time    0.0194: real time    0.0194
    EDDIAG:  cpu time    1.0923: real time    1.0931
  RMM-DIIS:  cpu time    7.1409: real time    7.1490
    ORTHCH:  cpu time    0.0564: real time    0.0564
       DOS:  cpu time    0.0004: real time    0.0004
    CHARGE:  cpu time    0.6570: real time    0.6570
    MIXING:  cpu time    0.0281: real time    0.0281
    --------------------------------------------
      LOOP:  cpu time   10.1695: real time   10.1806

 eigenvalue-minimisations  :   430
 total energy-change (2. order) : 0.2647201E-02  (-0.2123827E-02)
 number of electron     153.0000003 magnetization       1.0000000
 augmentation part       92.4082864 magnetization       0.0814618

 Broyden mixing:
  rms(total) = 0.20382E-01    rms(broyden)= 0.20381E-01
  rms(prec ) = 0.31749E-01
  weight for this iteration     100.00

 eigenvalues of (default mixing * dielectric matrix)
  average eigenvalue GAMMA=   1.0748
  2.3611  1.7148  1.0059  0.7066  0.7066  0.5640  0.4648

 Free energy of the ion-electron system (eV)
  ---------------------------------------------------
  alpha Z        PSCENC =        41.16232785
  Ewald energy   TEWEN  =     16175.94060072
  -Hartree energ DENC   =    -33139.56684581
  -exchange      EXHF   =         0.00000000
  -V(xc)+E(xc)   XCENC  =       615.13645922
  PAW double counting   =     17617.93708801   -19016.23029792
  entropy T*S    EENTRO =         0.00873403
  eigenvalues    EBANDS =     -1005.55204559
  atomic energy  EATOM  =     18662.21924712
  Solvation  Ediel_sol  =         0.00000000
  ---------------------------------------------------
  free energy    TOTEN  =       -48.94473237 eV

  energy without entropy =      -48.95346640  energy(sigma->0) =      -48.94764372


--------------------------------------------------------------------------------------------------------




--------------------------------------- Iteration      1(  13)  ---------------------------------------


    POTLOK:  cpu time    1.1757: real time    1.1772
    SETDIJ:  cpu time    0.0196: real time    0.0196
    EDDIAG:  cpu time    1.0952: real time    1.0955
  RMM-DIIS:  cpu time    6.9619: real time    6.9673
    ORTHCH:  cpu time    0.0563: real time    0.0563
       DOS:  cpu time    0.0004: real time    0.0004
    CHARGE:  cpu time    0.6572: real time    0.6573
    MIXING:  cpu time    0.0288: real time    0.0288
    --------------------------------------------
      LOOP:  cpu time    9.9951: real time   10.0024

 eigenvalue-minimisations  :   420
 total energy-change (2. order) : 0.1232892E-02  (-0.5901099E-03)
 number of electron     153.0000003 magnetization       1.0000000
 augmentation part       92.4232803 magnetization       0.0816173

 Broyden mixing:
  rms(total) = 0.92351E-02    rms(broyden)= 0.92347E-02
  rms(prec ) = 0.19510E-01
  weight for this iteration     100.00

 eigenvalues of (default mixing * dielectric matrix)
  average eigenvalue GAMMA=   1.1088
  2.4328  1.8357  1.3203  0.7990  0.7482  0.7482  0.5339  0.4521

 Free energy of the ion-electron system (eV)
  ---------------------------------------------------
  alpha Z        PSCENC =        41.16232785
  Ewald energy   TEWEN  =     16175.94060072
  -Hartree energ DENC   =    -33143.26037617
  -exchange      EXHF   =         0.00000000
  -V(xc)+E(xc)   XCENC  =       615.14863102
  PAW double counting   =     17622.96242179   -19021.29640122
  entropy T*S    EENTRO =         0.00874529
  eigenvalues    EBANDS =     -1001.82869589
  atomic energy  EATOM  =     18662.21924712
  Solvation  Ediel_sol  =         0.00000000
  ---------------------------------------------------
  free energy    TOTEN  =       -48.94349948 eV

  energy without entropy =      -48.95224478  energy(sigma->0) =      -48.94641458


--------------------------------------------------------------------------------------------------------




--------------------------------------- Iteration      1(  14)  ---------------------------------------


    POTLOK:  cpu time    1.1748: real time    1.1753
    SETDIJ:  cpu time    0.0189: real time    0.0189
    EDDIAG:  cpu time    1.0947: real time    1.0950
  RMM-DIIS:  cpu time    7.2418: real time    7.2438
    ORTHCH:  cpu time    0.0562: real time    0.0562
       DOS:  cpu time    0.0004: real time    0.0004
    CHARGE:  cpu time    0.6570: real time    0.6573
    MIXING:  cpu time    0.0287: real time    0.0287
    --------------------------------------------
      LOOP:  cpu time   10.2726: real time   10.2757

 eigenvalue-minimisations  :   412
 total energy-change (2. order) :-0.1038300E-02  (-0.3448460E-03)
 number of electron     153.0000003 magnetization       1.0000000
 augmentation part       92.4319219 magnetization       0.0816685

 Broyden mixing:
  rms(total) = 0.10747E-01    rms(broyden)= 0.10747E-01
  rms(prec ) = 0.16593E-01
  weight for this iteration     100.00

 eigenvalues of (default mixing * dielectric matrix)
  average eigenvalue GAMMA=   1.1410
  2.3743  2.3743  1.3557  0.9922  0.7369  0.7369  0.7366  0.5066  0.4557

 Free energy of the ion-electron system (eV)
  ---------------------------------------------------
  alpha Z        PSCENC =        41.16232785
  Ewald energy   TEWEN  =     16175.94060072
  -Hartree energ DENC   =    -33148.25165739
  -exchange      EXHF   =         0.00000000
  -V(xc)+E(xc)   XCENC  =       615.17804003
  PAW double counting   =     17617.86814054   -19015.94226095
  entropy T*S    EENTRO =         0.00873676
  eigenvalues    EBANDS =      -997.12771246
  atomic energy  EATOM  =     18662.21924712
  Solvation  Ediel_sol  =         0.00000000
  ---------------------------------------------------
  free energy    TOTEN  =       -48.94453778 eV

  energy without entropy =      -48.95327454  energy(sigma->0) =      -48.94745003


--------------------------------------------------------------------------------------------------------




--------------------------------------- Iteration      1(  15)  ---------------------------------------


    POTLOK:  cpu time    1.1750: real time    1.1781
    SETDIJ:  cpu time    0.0191: real time    0.0191
    EDDIAG:  cpu time    1.0961: real time    1.0965
  RMM-DIIS:  cpu time    6.8325: real time    6.8349
    ORTHCH:  cpu time    0.0568: real time    0.0568
       DOS:  cpu time    0.0004: real time    0.0004
    CHARGE:  cpu time    0.6563: real time    0.6567
    MIXING:  cpu time    0.0300: real time    0.0300
    --------------------------------------------
      LOOP:  cpu time    9.8661: real time    9.8725

 eigenvalue-minimisations  :   404
 total energy-change (2. order) :-0.1182764E-02  (-0.1500816E-03)
 number of electron     153.0000003 magnetization       1.0000000
 augmentation part       92.4269358 magnetization       0.0820580

 Broyden mixing:
  rms(total) = 0.58950E-02    rms(broyden)= 0.58949E-02
  rms(prec ) = 0.10278E-01
  weight for this iteration     100.00

 eigenvalues of (default mixing * dielectric matrix)
  average eigenvalue GAMMA=   1.1879
  2.6797  2.6797  1.3403  1.3403  0.8245  0.7322  0.7322  0.5979  0.4559  0.4957

 Free energy of the ion-electron system (eV)
  ---------------------------------------------------
  alpha Z        PSCENC =        41.16232785
  Ewald energy   TEWEN  =     16175.94060072
  -Hartree energ DENC   =    -33151.89450363
  -exchange      EXHF   =         0.00000000
  -V(xc)+E(xc)   XCENC  =       615.21679890
  PAW double counting   =     17612.17288945   -19010.12290210
  entropy T*S    EENTRO =         0.00873829
  eigenvalues    EBANDS =      -993.64891715
  atomic energy  EATOM  =     18662.21924712
  Solvation  Ediel_sol  =         0.00000000
  ---------------------------------------------------
  free energy    TOTEN  =       -48.94572055 eV

  energy without entropy =      -48.95445884  energy(sigma->0) =      -48.94863331


--------------------------------------------------------------------------------------------------------




--------------------------------------- Iteration      1(  16)  ---------------------------------------


    POTLOK:  cpu time    1.1751: real time    1.1761
    SETDIJ:  cpu time    0.0193: real time    0.0193
    EDDIAG:  cpu time    1.0951: real time    1.0954
  RMM-DIIS:  cpu time    6.7111: real time    6.7131
    ORTHCH:  cpu time    0.0557: real time    0.0557
       DOS:  cpu time    0.0004: real time    0.0004
    CHARGE:  cpu time    0.6555: real time    0.6557
    MIXING:  cpu time    0.0312: real time    0.0312
    --------------------------------------------
      LOOP:  cpu time    9.7434: real time    9.7471

 eigenvalue-minimisations  :   393
 total energy-change (2. order) :-0.1460926E-02  (-0.1170429E-03)
 number of electron     153.0000003 magnetization       1.0000000
 augmentation part       92.4196526 magnetization       0.0824062

 Broyden mixing:
  rms(total) = 0.60524E-02    rms(broyden)= 0.60521E-02
  rms(prec ) = 0.84408E-02
  weight for this iteration     100.00

 eigenvalues of (default mixing * dielectric matrix)
  average eigenvalue GAMMA=   1.2172
  3.1592  2.6159  1.4804  1.4804  0.7529  0.7529  0.8291  0.8291  0.4530  0.5180
  0.5180

 Free energy of the ion-electron system (eV)
  ---------------------------------------------------
  alpha Z        PSCENC =        41.16232785
  Ewald energy   TEWEN  =     16175.94060072
  -Hartree energ DENC   =    -33154.67569447
  -exchange      EXHF   =         0.00000000
  -V(xc)+E(xc)   XCENC  =       615.24663597
  PAW double counting   =     17608.63579066   -19006.55991016
  entropy T*S    EENTRO =         0.00874477
  eigenvalues    EBANDS =      -990.92492394
  atomic energy  EATOM  =     18662.21924712
  Solvation  Ediel_sol  =         0.00000000
  ---------------------------------------------------
  free energy    TOTEN  =       -48.94718147 eV

  energy without entropy =      -48.95592624  energy(sigma->0) =      -48.95009640


--------------------------------------------------------------------------------------------------------




--------------------------------------- Iteration      1(  17)  ---------------------------------------


    POTLOK:  cpu time    1.1744: real time    1.1748
    SETDIJ:  cpu time    0.0194: real time    0.0194
    EDDIAG:  cpu time    1.0947: real time    1.0950
  RMM-DIIS:  cpu time    7.0023: real time    7.0043
    ORTHCH:  cpu time    0.0555: real time    0.0555
       DOS:  cpu time    0.0004: real time    0.0004
    CHARGE:  cpu time    0.6553: real time    0.6555
    MIXING:  cpu time    0.0319: real time    0.0319
    --------------------------------------------
      LOOP:  cpu time   10.0339: real time   10.0369

 eigenvalue-minimisations  :   392
 total energy-change (2. order) :-0.1630299E-02  (-0.5532984E-04)
 number of electron     153.0000003 magnetization       1.0000000
 augmentation part       92.4237807 magnetization       0.0822643

 Broyden mixing:
  rms(total) = 0.21991E-02    rms(broyden)= 0.21990E-02
  rms(prec ) = 0.39377E-02
  weight for this iteration     100.00

 eigenvalues of (default mixing * dielectric matrix)
  average eigenvalue GAMMA=   1.3377
  4.3719  2.5642  2.0735  1.4831  0.9597  0.9597  0.7472  0.7472  0.6757  0.4537
  0.5254  0.4917

 Free energy of the ion-electron system (eV)
  ---------------------------------------------------
  alpha Z        PSCENC =        41.16232785
  Ewald energy   TEWEN  =     16175.94060072
  -Hartree energ DENC   =    -33156.54122149
  -exchange      EXHF   =         0.00000000
  -V(xc)+E(xc)   XCENC  =       615.25317681
  PAW double counting   =     17606.39942045   -19004.26149575
  entropy T*S    EENTRO =         0.00874771
  eigenvalues    EBANDS =      -989.12961519
  atomic energy  EATOM  =     18662.21924712
  Solvation  Ediel_sol  =         0.00000000
  ---------------------------------------------------
  free energy    TOTEN  =       -48.94881177 eV

  energy without entropy =      -48.95755948  energy(sigma->0) =      -48.95172767


--------------------------------------------------------------------------------------------------------




--------------------------------------- Iteration      1(  18)  ---------------------------------------


    POTLOK:  cpu time    1.1736: real time    1.1738
    SETDIJ:  cpu time    0.0201: real time    0.0201
    EDDIAG:  cpu time    1.0922: real time    1.0927
  RMM-DIIS:  cpu time    7.3517: real time    7.3554
    ORTHCH:  cpu time    0.0554: real time    0.0554
       DOS:  cpu time    0.0005: real time    0.0004
    CHARGE:  cpu time    0.6557: real time    0.6557
    MIXING:  cpu time    0.0333: real time    0.0333
    --------------------------------------------
      LOOP:  cpu time   10.3824: real time   10.3868

 eigenvalue-minimisations  :   435
 total energy-change (2. order) :-0.9016428E-03  (-0.2212935E-04)
 number of electron     153.0000003 magnetization       1.0000000
 augmentation part       92.4230841 magnetization       0.0823733

 Broyden mixing:
  rms(total) = 0.14526E-02    rms(broyden)= 0.14526E-02
  rms(prec ) = 0.26163E-02
  weight for this iteration     100.00

 eigenvalues of (default mixing * dielectric matrix)
  average eigenvalue GAMMA=   1.3639
  5.0224  2.6548  2.1766  1.2768  1.2768  0.8815  0.8815  0.7420  0.7420  0.6124
  0.4542  0.5193  0.4908

 Free energy of the ion-electron system (eV)
  ---------------------------------------------------
  alpha Z        PSCENC =        41.16232785
  Ewald energy   TEWEN  =     16175.94060072
  -Hartree energ DENC   =    -33157.54524901
  -exchange      EXHF   =         0.00000000
  -V(xc)+E(xc)   XCENC  =       615.25533701
  PAW double counting   =     17606.20108538   -19004.07430528
  entropy T*S    EENTRO =         0.00874556
  eigenvalues    EBANDS =      -988.11750276
  atomic energy  EATOM  =     18662.21924712
  Solvation  Ediel_sol  =         0.00000000
  ---------------------------------------------------
  free energy    TOTEN  =       -48.94971341 eV

  energy without entropy =      -48.95845898  energy(sigma->0) =      -48.95262860


--------------------------------------------------------------------------------------------------------




--------------------------------------- Iteration      1(  19)  ---------------------------------------


    POTLOK:  cpu time    1.1774: real time    1.1810
    SETDIJ:  cpu time    0.0191: real time    0.0191
    EDDIAG:  cpu time    1.0944: real time    1.0947
  RMM-DIIS:  cpu time    7.1392: real time    7.1454
    ORTHCH:  cpu time    0.0554: real time    0.0554
       DOS:  cpu time    0.0005: real time    0.0005
    CHARGE:  cpu time    0.6558: real time    0.6561
    MIXING:  cpu time    0.0348: real time    0.0348
    --------------------------------------------
      LOOP:  cpu time   10.1766: real time   10.1869

 eigenvalue-minimisations  :   439
 total energy-change (2. order) :-0.7433593E-03  (-0.1215998E-04)
 number of electron     153.0000003 magnetization       1.0000000
 augmentation part       92.4214686 magnetization       0.0824144

 Broyden mixing:
  rms(total) = 0.11737E-02    rms(broyden)= 0.11737E-02
  rms(prec ) = 0.19856E-02
  weight for this iteration     100.00

 eigenvalues of (default mixing * dielectric matrix)
  average eigenvalue GAMMA=   1.4279
  5.7698  2.7703  2.1773  1.5677  1.5677  0.9695  0.9695  0.7426  0.7426  0.6845
  0.5761  0.4536  0.5085  0.4909

 Free energy of the ion-electron system (eV)
  ---------------------------------------------------
  alpha Z        PSCENC =        41.16232785
  Ewald energy   TEWEN  =     16175.94060072
  -Hartree energ DENC   =    -33158.12860266
  -exchange      EXHF   =         0.00000000
  -V(xc)+E(xc)   XCENC  =       615.25598093
  PAW double counting   =     17606.42762472   -19004.32491579
  entropy T*S    EENTRO =         0.00874496
  eigenvalues    EBANDS =      -987.51146462
  atomic energy  EATOM  =     18662.21924712
  Solvation  Ediel_sol  =         0.00000000
  ---------------------------------------------------
  free energy    TOTEN  =       -48.95045677 eV

  energy without entropy =      -48.95920174  energy(sigma->0) =      -48.95337176


--------------------------------------------------------------------------------------------------------




--------------------------------------- Iteration      1(  20)  ---------------------------------------


    POTLOK:  cpu time    1.1749: real time    1.1758
    SETDIJ:  cpu time    0.0197: real time    0.0197
    EDDIAG:  cpu time    1.0953: real time    1.0958
  RMM-DIIS:  cpu time    6.7709: real time    6.7741
    ORTHCH:  cpu time    0.0554: real time    0.0554
       DOS:  cpu time    0.0004: real time    0.0004
    CHARGE:  cpu time    0.6563: real time    0.6566
    MIXING:  cpu time    0.0361: real time    0.0361
    --------------------------------------------
      LOOP:  cpu time    9.8089: real time    9.8139

 eigenvalue-minimisations  :   407
 total energy-change (2. order) :-0.5278421E-03  (-0.4082452E-05)
 number of electron     153.0000003 magnetization       1.0000000
 augmentation part       92.4218671 magnetization       0.0824089

 Broyden mixing:
  rms(total) = 0.73577E-03    rms(broyden)= 0.73574E-03
  rms(prec ) = 0.12860E-02
  weight for this iteration     100.00

 eigenvalues of (default mixing * dielectric matrix)
  average eigenvalue GAMMA=   1.4606
  6.3558  2.8669  2.2583  2.0123  1.4279  0.9963  0.9149  0.9149  0.7515  0.7515
  0.6547  0.4537  0.5412  0.5211  0.4880

 Free energy of the ion-electron system (eV)
  ---------------------------------------------------
  alpha Z        PSCENC =        41.16232785
  Ewald energy   TEWEN  =     16175.94060072
  -Hartree energ DENC   =    -33158.25608398
  -exchange      EXHF   =         0.00000000
  -V(xc)+E(xc)   XCENC  =       615.25491583
  PAW double counting   =     17606.58575380   -19004.48852694
  entropy T*S    EENTRO =         0.00874409
  eigenvalues    EBANDS =      -987.37796311
  atomic energy  EATOM  =     18662.21924712
  Solvation  Ediel_sol  =         0.00000000
  ---------------------------------------------------
  free energy    TOTEN  =       -48.95098462 eV

  energy without entropy =      -48.95972871  energy(sigma->0) =      -48.95389931


--------------------------------------------------------------------------------------------------------




--------------------------------------- Iteration      1(  21)  ---------------------------------------


    POTLOK:  cpu time    1.1778: real time    1.1789
    SETDIJ:  cpu time    0.0195: real time    0.0194
    EDDIAG:  cpu time    1.0977: real time    1.0980
  RMM-DIIS:  cpu time    6.7441: real time    6.7480
    ORTHCH:  cpu time    0.0553: real time    0.0553
       DOS:  cpu time    0.0004: real time    0.0004
    CHARGE:  cpu time    0.6552: real time    0.6552
    MIXING:  cpu time    0.0376: real time    0.0376
    --------------------------------------------
      LOOP:  cpu time    9.7877: real time    9.7929

 eigenvalue-minimisations  :   404
 total energy-change (2. order) :-0.3880353E-03  (-0.2977716E-05)
 number of electron     153.0000003 magnetization       1.0000000
 augmentation part       92.4231704 magnetization       0.0824132

 Broyden mixing:
  rms(total) = 0.54491E-03    rms(broyden)= 0.54485E-03
  rms(prec ) = 0.88365E-03
  weight for this iteration     100.00

 eigenvalues of (default mixing * dielectric matrix)
  average eigenvalue GAMMA=   1.5037
  6.6531  3.2500  2.4140  2.1446  1.3798  1.3798  0.9818  0.9818  0.7538  0.7538
  0.7223  0.6521  0.4538  0.5395  0.5106  0.4881

 Free energy of the ion-electron system (eV)
  ---------------------------------------------------
  alpha Z        PSCENC =        41.16232785
  Ewald energy   TEWEN  =     16175.94060072
  -Hartree energ DENC   =    -33158.22869909
  -exchange      EXHF   =         0.00000000
  -V(xc)+E(xc)   XCENC  =       615.25284324
  PAW double counting   =     17606.74124857   -19004.63805171
  entropy T*S    EENTRO =         0.00874445
  eigenvalues    EBANDS =      -987.40963381
  atomic energy  EATOM  =     18662.21924712
  Solvation  Ediel_sol  =         0.00000000
  ---------------------------------------------------
  free energy    TOTEN  =       -48.95137265 eV

  energy without entropy =      -48.96011711  energy(sigma->0) =      -48.95428747


--------------------------------------------------------------------------------------------------------




--------------------------------------- Iteration      1(  22)  ---------------------------------------


    POTLOK:  cpu time    1.1727: real time    1.1733
    SETDIJ:  cpu time    0.0217: real time    0.0217
    EDDIAG:  cpu time    1.0937: real time    1.0941
  RMM-DIIS:  cpu time    6.6911: real time    6.6932
    ORTHCH:  cpu time    0.0553: real time    0.0556
       DOS:  cpu time    0.0005: real time    0.0005
    CHARGE:  cpu time    0.6566: real time    0.6566
    MIXING:  cpu time    0.0421: real time    0.0465
    --------------------------------------------
      LOOP:  cpu time    9.7337: real time    9.7415

 eigenvalue-minimisations  :   401
 total energy-change (2. order) :-0.2766512E-03  (-0.1985067E-05)
 number of electron     153.0000003 magnetization       1.0000000
 augmentation part       92.4232055 magnetization       0.0824191

 Broyden mixing:
  rms(total) = 0.36742E-03    rms(broyden)= 0.36740E-03
  rms(prec ) = 0.57993E-03
  weight for this iteration     100.00

 eigenvalues of (default mixing * dielectric matrix)
  average eigenvalue GAMMA=   1.5520
  7.0922  3.9523  2.5167  2.1005  1.5699  1.5699  1.0028  1.0028  0.7658  0.7658
  0.7288  0.7288  0.5995  0.4537  0.5374  0.4888  0.5079

 Free energy of the ion-electron system (eV)
  ---------------------------------------------------
  alpha Z        PSCENC =        41.16232785
  Ewald energy   TEWEN  =     16175.94060072
  -Hartree energ DENC   =    -33158.30443711
  -exchange      EXHF   =         0.00000000
  -V(xc)+E(xc)   XCENC  =       615.25172228
  PAW double counting   =     17606.93875945   -19004.83595415
  entropy T*S    EENTRO =         0.00874491
  eigenvalues    EBANDS =      -987.33266037
  atomic energy  EATOM  =     18662.21924712
  Solvation  Ediel_sol  =         0.00000000
  ---------------------------------------------------
  free energy    TOTEN  =       -48.95164930 eV

  energy without entropy =      -48.96039421  energy(sigma->0) =      -48.95456427


--------------------------------------------------------------------------------------------------------




--------------------------------------- Iteration      1(  23)  ---------------------------------------


    POTLOK:  cpu time    1.1809: real time    1.1857
    SETDIJ:  cpu time    0.0203: real time    0.0203
    EDDIAG:  cpu time    1.0945: real time    1.0960
  RMM-DIIS:  cpu time    6.8619: real time    6.8639
    ORTHCH:  cpu time    0.0551: real time    0.0553
       DOS:  cpu time    0.0004: real time    0.0004
    CHARGE:  cpu time    0.6554: real time    0.6554
    MIXING:  cpu time    0.0406: real time    0.0406
    --------------------------------------------
      LOOP:  cpu time    9.9092: real time    9.9177

 eigenvalue-minimisations  :   411
 total energy-change (2. order) :-0.1173031E-03  (-0.6787741E-06)
 number of electron     153.0000003 magnetization       1.0000000
 augmentation part       92.4228234 magnetization       0.0824071

 Broyden mixing:
  rms(total) = 0.21170E-03    rms(broyden)= 0.21169E-03
  rms(prec ) = 0.34777E-03
  weight for this iteration     100.00

 eigenvalues of (default mixing * dielectric matrix)
  average eigenvalue GAMMA=   1.5703
  7.4526  4.2080  2.5092  2.1909  1.7842  1.2998  1.2998  1.0069  1.0069  0.7571
  0.7571  0.7462  0.6733  0.5896  0.4537  0.4878  0.5211  0.5211

 Free energy of the ion-electron system (eV)
  ---------------------------------------------------
  alpha Z        PSCENC =        41.16232785
  Ewald energy   TEWEN  =     16175.94060072
  -Hartree energ DENC   =    -33158.37054956
  -exchange      EXHF   =         0.00000000
  -V(xc)+E(xc)   XCENC  =       615.25192804
  PAW double counting   =     17606.98776725   -19004.88796718
  entropy T*S    EENTRO =         0.00874484
  eigenvalues    EBANDS =      -987.26386568
  atomic energy  EATOM  =     18662.21924712
  Solvation  Ediel_sol  =         0.00000000
  ---------------------------------------------------
  free energy    TOTEN  =       -48.95176661 eV

  energy without entropy =      -48.96051145  energy(sigma->0) =      -48.95468155


--------------------------------------------------------------------------------------------------------




--------------------------------------- Iteration      1(  24)  ---------------------------------------


    POTLOK:  cpu time    1.1737: real time    1.1755
    SETDIJ:  cpu time    0.0197: real time    0.0197
    EDDIAG:  cpu time    1.0947: real time    1.0951
  RMM-DIIS:  cpu time    6.5281: real time    6.5300
    ORTHCH:  cpu time    0.0553: real time    0.0553
       DOS:  cpu time    0.0005: real time    0.0005
    CHARGE:  cpu time    0.6553: real time    0.6556
    MIXING:  cpu time    0.0422: real time    0.0422
    --------------------------------------------
      LOOP:  cpu time    9.5694: real time    9.5739

 eigenvalue-minimisations  :   394
 total energy-change (2. order) :-0.1009278E-03  (-0.7235581E-06)
 number of electron     153.0000003 magnetization       1.0000000
 augmentation part       92.4222843 magnetization       0.0823987

 Broyden mixing:
  rms(total) = 0.21171E-03    rms(broyden)= 0.21171E-03
  rms(prec ) = 0.29403E-03
  weight for this iteration     100.00

 eigenvalues of (default mixing * dielectric matrix)
  average eigenvalue GAMMA=   1.5841
  7.7143  4.5205  2.4136  2.4136  1.9221  1.4241  1.4241  1.0131  1.0131  0.7818
  0.7818  0.7426  0.7426  0.4537  0.6146  0.5879  0.4883  0.5337  0.5123

 Free energy of the ion-electron system (eV)
  ---------------------------------------------------
  alpha Z        PSCENC =        41.16232785
  Ewald energy   TEWEN  =     16175.94060072
  -Hartree energ DENC   =    -33158.40262006
  -exchange      EXHF   =         0.00000000
  -V(xc)+E(xc)   XCENC  =       615.25273499
  PAW double counting   =     17606.92794882   -19004.83169436
  entropy T*S    EENTRO =         0.00874483
  eigenvalues    EBANDS =      -987.22915744
  atomic energy  EATOM  =     18662.21924712
  Solvation  Ediel_sol  =         0.00000000
  ---------------------------------------------------
  free energy    TOTEN  =       -48.95186753 eV

  energy without entropy =      -48.96061236  energy(sigma->0) =      -48.95478248


--------------------------------------------------------------------------------------------------------




--------------------------------------- Iteration      1(  25)  ---------------------------------------


    POTLOK:  cpu time    1.1756: real time    1.1759
    SETDIJ:  cpu time    0.0199: real time    0.0199
    EDDIAG:  cpu time    1.0934: real time    1.0938
  RMM-DIIS:  cpu time    6.6786: real time    6.6809
    ORTHCH:  cpu time    0.0554: real time    0.0554
       DOS:  cpu time    0.0005: real time    0.0005
    CHARGE:  cpu time    0.6549: real time    0.6551
    MIXING:  cpu time    0.0444: real time    0.0444
    --------------------------------------------
      LOOP:  cpu time    9.7227: real time    9.7259

 eigenvalue-minimisations  :   394
 total energy-change (2. order) :-0.6287512E-04  (-0.5238986E-06)
 number of electron     153.0000003 magnetization       1.0000000
 augmentation part       92.4224929 magnetization       0.0824082

 Broyden mixing:
  rms(total) = 0.10770E-03    rms(broyden)= 0.10768E-03
  rms(prec ) = 0.16358E-03
  weight for this iteration     100.00

 eigenvalues of (default mixing * dielectric matrix)
  average eigenvalue GAMMA=   1.6295
  7.9507  5.0302  2.6287  2.6287  1.8680  1.7626  1.2813  1.2813  0.9869  0.9869
  0.7535  0.7535  0.7619  0.7185  0.6486  0.4537  0.4876  0.5610  0.5316  0.5148

 Free energy of the ion-electron system (eV)
  ---------------------------------------------------
  alpha Z        PSCENC =        41.16232785
  Ewald energy   TEWEN  =     16175.94060072
  -Hartree energ DENC   =    -33158.39363676
  -exchange      EXHF   =         0.00000000
  -V(xc)+E(xc)   XCENC  =       615.25239507
  PAW double counting   =     17606.83434296   -19004.73386963
  entropy T*S    EENTRO =         0.00874478
  eigenvalues    EBANDS =      -987.24208252
  atomic energy  EATOM  =     18662.21924712
  Solvation  Ediel_sol  =         0.00000000
  ---------------------------------------------------
  free energy    TOTEN  =       -48.95193041 eV

  energy without entropy =      -48.96067519  energy(sigma->0) =      -48.95484533


--------------------------------------------------------------------------------------------------------




--------------------------------------- Iteration      1(  26)  ---------------------------------------


    POTLOK:  cpu time    1.1732: real time    1.1747
    SETDIJ:  cpu time    0.0200: real time    0.0200
    EDDIAG:  cpu time    1.0921: real time    1.0926
  RMM-DIIS:  cpu time    6.1951: real time    6.1976
    ORTHCH:  cpu time    0.0554: real time    0.0554
       DOS:  cpu time    0.0004: real time    0.0004
    CHARGE:  cpu time    0.6534: real time    0.6538
    MIXING:  cpu time    0.0478: real time    0.0478
    --------------------------------------------
      LOOP:  cpu time    9.2375: real time    9.2424

 eigenvalue-minimisations  :   375
 total energy-change (2. order) :-0.3039385E-04  (-0.2809307E-06)
 number of electron     153.0000003 magnetization       1.0000000
 augmentation part       92.4228092 magnetization       0.0824077

 Broyden mixing:
  rms(total) = 0.81027E-04    rms(broyden)= 0.81024E-04
  rms(prec ) = 0.11321E-03
  weight for this iteration     100.00

 eigenvalues of (default mixing * dielectric matrix)
  average eigenvalue GAMMA=   1.6288
  8.1109  5.3448  2.9543  2.5642  1.8886  1.8886  1.3081  1.3081  1.0074  1.0074
  0.7935  0.7935  0.7328  0.7328  0.6174  0.6174  0.4537  0.4877  0.5517  0.5211
  0.5211

 Free energy of the ion-electron system (eV)
  ---------------------------------------------------
  alpha Z        PSCENC =        41.16232785
  Ewald energy   TEWEN  =     16175.94060072
  -Hartree energ DENC   =    -33158.38541377
  -exchange      EXHF   =         0.00000000
  -V(xc)+E(xc)   XCENC  =       615.25200368
  PAW double counting   =     17606.79234602   -19004.68830489
  entropy T*S    EENTRO =         0.00874478
  eigenvalues    EBANDS =      -987.25351230
  atomic energy  EATOM  =     18662.21924712
  Solvation  Ediel_sol  =         0.00000000
  ---------------------------------------------------
  free energy    TOTEN  =       -48.95196080 eV

  energy without entropy =      -48.96070558  energy(sigma->0) =      -48.95487573


--------------------------------------------------------------------------------------------------------




--------------------------------------- Iteration      1(  27)  ---------------------------------------


    POTLOK:  cpu time    1.1760: real time    1.1789
    SETDIJ:  cpu time    0.0200: real time    0.0200
    EDDIAG:  cpu time    1.0929: real time    1.0934
  RMM-DIIS:  cpu time    4.8991: real time    4.9004
    ORTHCH:  cpu time    0.0555: real time    0.0555
       DOS:  cpu time    0.0004: real time    0.0004
    CHARGE:  cpu time    0.6535: real time    0.6537
    MIXING:  cpu time    0.0515: real time    0.0515
    --------------------------------------------
      LOOP:  cpu time    7.9488: real time    7.9538

 eigenvalue-minimisations  :   293
 total energy-change (2. order) :-0.1162653E-04  (-0.1005930E-06)
 number of electron     153.0000003 magnetization       1.0000000
 augmentation part       92.4227663 magnetization       0.0823976

 Broyden mixing:
  rms(total) = 0.75284E-04    rms(broyden)= 0.75283E-04
  rms(prec ) = 0.99289E-04
  weight for this iteration     100.00

 eigenvalues of (default mixing * dielectric matrix)
  average eigenvalue GAMMA=   1.6230
  8.1920  5.5811  3.1560  2.4916  1.9559  1.9559  1.3202  1.3202  1.0319  1.0319
  0.8866  0.8866  0.7519  0.7519  0.6668  0.6289  0.4537  0.5595  0.5595  0.4881
  0.5178  0.5178

 Free energy of the ion-electron system (eV)
  ---------------------------------------------------
  alpha Z        PSCENC =        41.16232785
  Ewald energy   TEWEN  =     16175.94060072
  -Hartree energ DENC   =    -33158.38594708
  -exchange      EXHF   =         0.00000000
  -V(xc)+E(xc)   XCENC  =       615.25203625
  PAW double counting   =     17606.78496709   -19004.68119612
  entropy T*S    EENTRO =         0.00874475
  eigenvalues    EBANDS =      -987.25275301
  atomic energy  EATOM  =     18662.21924712
  Solvation  Ediel_sol  =         0.00000000
  ---------------------------------------------------
  free energy    TOTEN  =       -48.95197243 eV

  energy without entropy =      -48.96071718  energy(sigma->0) =      -48.95488735


--------------------------------------------------------------------------------------------------------




--------------------------------------- Iteration      1(  28)  ---------------------------------------


    POTLOK:  cpu time    1.1759: real time    1.1761
    SETDIJ:  cpu time    0.0195: real time    0.0195
    EDDIAG:  cpu time    1.0933: real time    1.0936
  RMM-DIIS:  cpu time    4.6492: real time    4.6507
    ORTHCH:  cpu time    0.0552: real time    0.0552
       DOS:  cpu time    0.0005: real time    0.0005
    CHARGE:  cpu time    0.6542: real time    0.6542
[...]
     66      -4.9088      1.00000
     67      -4.8931      1.00000
     68      -4.8869      1.00000
     69      -4.8543      1.00000
     70      -4.8297      1.00000
     71      -4.8253      1.00000
     72      -4.7680      1.00000
     73      -4.7213      1.00000
     74      -4.5332      1.00000
     75      -4.1820      1.00000
     76      -4.1521      1.00000
     77      -3.5271      1.00000
     78      -3.0387     -0.00000
     79      -2.8956     -0.00000
     80      -2.5621     -0.00000
     81      -2.3883     -0.00000
     82      -2.0109     -0.00000
     83      -1.8708     -0.00000
     84      -1.7542     -0.00000
     85      -1.3984     -0.00000
     86      -1.0552     -0.00000
     87      -0.9570     -0.00000
     88      -0.7240     -0.00000
     89      -0.3812      0.00000
     90      -0.2625      0.00000
     91      -0.1260      0.00000
     92       0.1285      0.00000

 spin component 2

 k-point     1 :       0.0000    0.0000    0.0000
  band No.  band energies     occupation 
      1     -28.3479      1.00000
      2     -13.8277      1.00000
      3     -11.2634      1.00000
      4     -11.0593      1.00000
      5     -10.9365      1.00000
      6     -10.0302      1.00000
      7      -8.5064      1.00000
      8      -8.1366      1.00000
      9      -7.5944      1.00000
     10      -7.4270      1.00000
     11      -7.3546      1.00000
     12      -7.2273      1.00000
     13      -7.1879      1.00000
     14      -7.0395      1.00000
     15      -7.0098      1.00000
     16      -6.8320      1.00000
     17      -6.7493      1.00000
     18      -6.7246      1.00000
     19      -6.6521      1.00000
     20      -6.5855      1.00000
     21      -6.5695      1.00000
     22      -6.5413      1.00000
     23      -6.4517      1.00000
     24      -6.4310      1.00000
     25      -6.3931      1.00000
     26      -6.3479      1.00000
     27      -6.3418      1.00000
     28      -6.2704      1.00000
     29      -6.2276      1.00000
     30      -6.2032      1.00000
     31      -6.1263      1.00000
     32      -6.1081      1.00000
     33      -6.0493      1.00000
     34      -6.0123      1.00000
     35      -5.8972      1.00000
     36      -5.8246      1.00000
     37      -5.7931      1.00000
     38      -5.6637      1.00000
     39      -5.6126      1.00000
     40      -5.6090      1.00000
     41      -5.5503      1.00000
     42      -5.5096      1.00000
     43      -5.4981      1.00000
     44      -5.4444      1.00000
     45      -5.4068      1.00000
     46      -5.3736      1.00000
     47      -5.3427      1.00000
     48      -5.3407      1.00000
     49      -5.3132      1.00000
     50      -5.3081      1.00000
     51      -5.2821      1.00000
     52      -5.2471      1.00000
     53      -5.2150      1.00000
     54      -5.2121      1.00000
     55      -5.1773      1.00000
     56      -5.1508      1.00000
     57      -5.1345      1.00000
     58      -5.1204      1.00000
     59      -5.1001      1.00000
     60      -5.0434      1.00000
     61      -5.0350      1.00000
     62      -4.9855      1.00000
     63      -4.9825      1.00000
     64      -4.9551      1.00000
     65      -4.9076      1.00000
     66      -4.8808      1.00000
     67      -4.8687      1.00000
     68      -4.8455      1.00000
     69      -4.8257      1.00000
     70      -4.7951      1.00000
     71      -4.7929      1.00000
     72      -4.7434      1.00000
     73      -4.6928      1.00000
     74      -4.4901      1.00000
     75      -4.1217      1.01022
     76      -4.1123      0.98978
     77      -3.3160     -0.00000
     78      -2.9893     -0.00000
     79      -2.8467     -0.00000
     80      -2.4948     -0.00000
     81      -2.2941     -0.00000
     82      -1.9810     -0.00000
     83      -1.7985     -0.00000
     84      -1.6864     -0.00000
     85      -1.2798      0.00000
     86      -0.9321      0.00000
     87      -0.8753      0.00000
     88      -0.6448      0.00000
     89      -0.2799      0.00000
     90      -0.2213      0.00000
     91      -0.0545      0.00000
     92       0.1638      0.00000


--------------------------------------------------------------------------------------------------------


 soft charge-density along one line, spin component           1
         0         1         2         3         4         5         6         7         8         9
 total charge-density along one line
 
 soft charge-density along one line, spin component           2
         0         1         2         3         4         5         6         7         8         9
 total charge-density along one line
 
 pseudopotential strength for first ion, spin component:           1
-10.485   0.004  -0.016   0.001  -0.010   0.995  -0.003   0.014
  0.004 -10.467  -0.007   0.008   0.004  -0.003   0.981   0.005
 -0.016  -0.007 -10.451   0.005  -0.011   0.014   0.005   0.967
  0.001   0.008   0.005 -10.456   0.002  -0.001  -0.008  -0.004
 -0.010   0.004  -0.011   0.002 -10.469   0.008  -0.003   0.010
  0.995  -0.003   0.014  -0.001   0.008   6.309   0.002  -0.012
 -0.003   0.981   0.005  -0.008  -0.003   0.002   6.316  -0.004
  0.014   0.005   0.967  -0.004   0.010  -0.012  -0.004   6.327
 -0.001  -0.008  -0.004   0.971  -0.002   0.001   0.008   0.002
  0.008  -0.003   0.010  -0.002   0.983  -0.005   0.002  -0.007
 -0.007   0.001  -0.004  -0.001  -0.004   0.005   0.000  -0.000
 -0.013   0.001  -0.008  -0.002  -0.007   0.009   0.001  -0.001
 -0.014  -0.001   0.005  -0.000   0.009   0.009   0.001  -0.003
 -0.000  -0.007  -0.001  -0.013  -0.000   0.000   0.004   0.001
 -0.006  -0.000   0.008  -0.002  -0.014   0.003   0.000  -0.006
 -0.015  -0.001   0.005  -0.000   0.010   0.008   0.001  -0.003
 -0.000  -0.008  -0.002  -0.013  -0.000   0.001   0.004   0.001
 -0.006  -0.000   0.009  -0.002  -0.015   0.001   0.001  -0.006
 pseudopotential strength for first ion, spin component:           2
-10.445   0.003  -0.009  -0.009   0.004   0.962  -0.002   0.007
  0.003 -10.454  -0.007   0.008   0.002  -0.002   0.970   0.005
 -0.009  -0.007 -10.437   0.003  -0.008   0.007   0.005   0.956
 -0.009   0.008   0.003 -10.440  -0.001   0.006  -0.007  -0.003
  0.004   0.002  -0.008  -0.001 -10.453  -0.003  -0.002   0.006
  0.962  -0.002   0.007   0.006  -0.003   6.330   0.002  -0.005
 -0.002   0.970   0.005  -0.007  -0.002   0.002   6.322  -0.004
  0.007   0.005   0.956  -0.003   0.006  -0.005  -0.004   6.332
  0.006  -0.007  -0.003   0.957   0.000  -0.004   0.005   0.002
 -0.003  -0.002   0.006   0.000   0.968   0.002   0.001  -0.004
 -0.003   0.002  -0.002  -0.001  -0.002   0.000   0.000  -0.002
 -0.006   0.003  -0.003  -0.002  -0.005   0.001   0.001  -0.003
 -0.015  -0.001   0.005   0.000   0.009   0.012  -0.000  -0.005
  0.000  -0.009  -0.001  -0.014   0.000  -0.000   0.006  -0.001
 -0.009   0.000   0.009  -0.000  -0.015   0.007  -0.000  -0.007
 -0.017  -0.001   0.006   0.001   0.010   0.013  -0.000  -0.005
  0.001  -0.010  -0.001  -0.016   0.000  -0.001   0.006  -0.001
 -0.011   0.001   0.010  -0.000  -0.017   0.007  -0.001  -0.008
 total augmentation occupancy for first ion, spin component:           1
  1.933   0.004  -0.007   0.000  -0.005  -0.014  -0.001   0.007   0.000   0.003  -0.016   0.013   0.033   0.001   0.030  -0.021
  0.004   1.927  -0.006   0.006  -0.001  -0.001  -0.020   0.005  -0.002   0.000  -0.004  -0.001   0.004   0.036  -0.002  -0.001
 -0.007  -0.006   1.947   0.003  -0.004   0.007   0.005  -0.028  -0.004   0.004  -0.009   0.009  -0.011  -0.001  -0.017   0.006
  0.000   0.006   0.003   1.936  -0.004   0.000  -0.002  -0.004  -0.022   0.000   0.002   0.002   0.006   0.061  -0.003  -0.000
 -0.005  -0.001  -0.004  -0.004   1.939   0.003   0.000   0.004   0.000  -0.018  -0.008   0.007  -0.013   0.001   0.035   0.012
 -0.014  -0.001   0.007   0.000   0.003   0.012  -0.000   0.002   0.000   0.001  -0.028   0.000   0.020  -0.000   0.006  -0.001
 -0.001  -0.020   0.005  -0.002   0.000  -0.000   0.007   0.000   0.001  -0.001   0.009  -0.001   0.001   0.011   0.001  -0.000
  0.007   0.005  -0.028  -0.004   0.004   0.002   0.000   0.006  -0.000   0.001  -0.034   0.004  -0.005  -0.001  -0.006   0.000
  0.000  -0.002  -0.004  -0.022   0.000   0.000   0.001  -0.000   0.008  -0.001  -0.009   0.001  -0.001   0.019  -0.003  -0.000
  0.003   0.000   0.004   0.000  -0.018   0.001  -0.001   0.001  -0.001   0.011  -0.015   0.000  -0.019  -0.004   0.020   0.001
 -0.016  -0.004  -0.009   0.002  -0.008  -0.028   0.009  -0.034  -0.009  -0.015   1.603  -0.110   0.108  -0.003   0.174  -0.015
  0.013  -0.001   0.009   0.002   0.007   0.000  -0.001   0.004   0.001   0.000  -0.110   0.013  -0.016   0.001  -0.025   0.002
  0.033   0.004  -0.011   0.006  -0.013   0.020   0.001  -0.005  -0.001  -0.019   0.108  -0.016   0.171   0.003  -0.038  -0.011
  0.001   0.036  -0.001   0.061   0.001  -0.000   0.011  -0.001   0.019  -0.004  -0.003   0.001   0.003   0.082  -0.011  -0.001
  0.030  -0.002  -0.017  -0.003   0.035   0.006   0.001  -0.006  -0.003   0.020   0.174  -0.025  -0.038  -0.011   0.130   0.001
 -0.021  -0.001   0.006  -0.000   0.012  -0.001  -0.000   0.000  -0.000   0.001  -0.015   0.002  -0.011  -0.001   0.001   0.001
  0.000  -0.013  -0.001  -0.022   0.000  -0.000  -0.001   0.000  -0.001   0.000   0.000  -0.000  -0.001  -0.005   0.001   0.000
 -0.013   0.000   0.011  -0.001  -0.020   0.000  -0.000   0.001   0.000  -0.001  -0.024   0.002   0.001   0.000  -0.009   0.000
 total augmentation occupancy for first ion, spin component:           2
  0.017  -0.001   0.002  -0.006   0.008  -0.003  -0.000  -0.002   0.001  -0.002   0.034   0.006  -0.010   0.007  -0.017  -0.001
 -0.001   0.000  -0.000   0.002  -0.001  -0.000   0.001   0.000   0.001   0.000  -0.003  -0.001   0.002  -0.002   0.002   0.000
  0.002  -0.000   0.001  -0.001   0.001  -0.002   0.000   0.002   0.000  -0.001   0.006   0.000  -0.000   0.004  -0.001   0.000
 -0.006   0.002  -0.001   0.004  -0.003   0.001   0.001   0.000   0.002   0.000  -0.012  -0.002   0.002  -0.006   0.007   0.000
  0.008  -0.001   0.001  -0.003   0.003  -0.002   0.000  -0.001   0.000   0.001   0.015   0.003  -0.001   0.003  -0.010  -0.000
 -0.003  -0.000  -0.002   0.001  -0.002   0.001  -0.000   0.000  -0.000   0.000  -0.008  -0.001   0.001  -0.002   0.004   0.000
 -0.000   0.001   0.000   0.001   0.000  -0.000  -0.000   0.000  -0.000  -0.000   0.000   0.000   0.000   0.000  -0.001  -0.000
 -0.002   0.000   0.002   0.000  -0.001   0.000   0.000  -0.000  -0.000   0.000  -0.002  -0.000   0.000  -0.000   0.001   0.000
  0.001   0.001   0.000   0.002   0.000  -0.000  -0.000  -0.000  -0.000  -0.000   0.002   0.000  -0.001   0.001  -0.001  -0.000
 -0.002   0.000  -0.001   0.000   0.001   0.000  -0.000   0.000  -0.000  -0.000  -0.003  -0.000   0.001  -0.001   0.001   0.000
  0.034  -0.003   0.006  -0.012   0.015  -0.008   0.000  -0.002   0.002  -0.003   0.079   0.004  -0.016   0.018  -0.038  -0.000
  0.006  -0.001   0.000  -0.002   0.003  -0.001   0.000  -0.000   0.000  -0.000   0.004   0.001  -0.001   0.001  -0.002  -0.000
 -0.010   0.002  -0.000   0.002  -0.001   0.001   0.000   0.000  -0.001   0.001  -0.016  -0.001   0.003  -0.003   0.004   0.000
  0.007  -0.002   0.004  -0.006   0.003  -0.002   0.000  -0.000   0.001  -0.001   0.018   0.001  -0.003   0.004  -0.006  -0.000
 -0.017   0.002  -0.001   0.007  -0.010   0.004  -0.001   0.001  -0.001   0.001  -0.038  -0.002   0.004  -0.006   0.014   0.000
 -0.001   0.000   0.000   0.000  -0.000   0.000  -0.000   0.000  -0.000   0.000  -0.000  -0.000   0.000  -0.000   0.000   0.000
  0.000  -0.000   0.000  -0.001   0.000   0.000  -0.000  -0.000   0.000   0.000  -0.000   0.000   0.000   0.000   0.000  -0.000
 -0.001   0.000   0.000   0.001  -0.001   0.000   0.000   0.000  -0.000   0.000  -0.000  -0.000   0.000  -0.000   0.000   0.000


------------------------ aborting loop because EDIFF is reached ----------------------------------------


    CHARGE:  cpu time    0.6527: real time    0.6530
    FORLOC:  cpu time    0.0647: real time    0.0647
    FORNL :  cpu time    1.5348: real time    1.5352
    STRESS:  cpu time    6.0407: real time    6.0425
    FORCOR:  cpu time    1.1800: real time    1.1802
    FORHAR:  cpu time    0.1930: real time    0.1929
    MIXING:  cpu time    0.1129: real time    0.1129
    OFIELD:  cpu time    0.0001: real time    0.0001

  FORCE on cell =-STRESS in cart. coord.  units (eV):
  Direction    XX          YY          ZZ          XY          YZ          ZX
  --------------------------------------------------------------------------------------
  Alpha Z    41.16233    41.16233    41.16233
  Ewald   10261.78664  7464.94213 -1550.80413  -858.81945   254.71066   127.10195
  Hartree 15372.88649 12945.95462  4839.55516  -774.87814   235.01922    90.94941
  E(xc)    -875.98861  -877.53233  -879.26540    -0.07923     0.01503     0.16984
  Local  -27028.32783-21841.26689 -4724.84624  1634.93278  -489.36061  -213.81187
  n-local  -331.47679  -323.48960  -329.21736    -1.64810    -0.50606     0.48558
  augment  1222.47627  1226.54281  1232.32853     0.38751    -0.16225    -1.14847
  Kinetic  1334.26658  1362.43614  1369.67569    -0.56420    -0.51019    -2.99665
  Fock        0.00000     0.00000     0.00000     0.00000     0.00000     0.00000
  -------------------------------------------------------------------------------------
  Total      -3.21492    -1.25078    -1.41142    -0.66883    -0.79420     0.74979
  in kB      -1.52618    -0.59377    -0.67003    -0.31751    -0.37702     0.35594
  external pressure =       -0.93 kB  Pullay stress =        0.00 kB


 VOLUME and BASIS-vectors are now :
 -----------------------------------------------------------------------------
  energy-cutoff  :      600.00
  volume of cell :     3375.00
      direct lattice vectors                 reciprocal lattice vectors
    15.000000000  0.000000000  0.000000000     0.066666667  0.000000000  0.000000000
     0.000000000 15.000000000  0.000000000     0.000000000  0.066666667  0.000000000
     0.000000000  0.000000000 15.000000000     0.000000000  0.000000000  0.066666667

  length of vectors
    15.000000000 15.000000000 15.000000000     0.066666667  0.066666667  0.066666667


 FORCES acting on ions
    electron-ion (+dipol)            ewald-force                    non-local-force                 convergence-correction
 -----------------------------------------------------------------------------------------------
   0.108E+04 0.679E+03 -.123E+02   -.107E+04 -.675E+03 0.126E+02   -.495E+01 -.297E+01 -.184E+00   -.793E-05 0.597E-05 0.108E-04
   0.442E+03 -.322E+03 0.925E+03   -.440E+03 0.320E+03 -.925E+03   -.159E+01 0.241E+01 0.789E-01   0.704E-05 0.177E-05 -.171E-04
   0.291E+03 0.125E+04 -.232E+03   -.289E+03 -.124E+04 0.229E+03   -.193E+01 -.877E+01 0.271E+01   0.110E-05 -.740E-05 0.160E-04
   -.851E+03 -.127E+03 0.891E+03   0.849E+03 0.126E+03 -.886E+03   0.241E+01 0.758E-01 -.466E+01   0.258E-05 0.157E-04 0.171E-04
   -.804E+03 0.986E+03 0.202E+03   0.799E+03 -.980E+03 -.200E+03   0.497E+01 -.592E+01 -.194E+01   0.118E-04 0.131E-04 0.133E-04
   -.140E+03 0.492E+03 -.936E+03   0.139E+03 -.489E+03 0.936E+03   0.697E+00 -.341E+01 0.131E+00   0.653E-05 0.167E-04 0.332E-04
   0.180E+03 0.624E+03 0.119E+04   -.179E+03 -.620E+03 -.118E+04   -.671E+00 -.444E+01 -.600E+01   0.742E-05 0.243E-04 0.291E-05
   0.126E+04 -.350E+03 0.169E+03   -.125E+04 0.348E+03 -.166E+03   -.882E+01 0.274E+01 -.322E+01   -.172E-04 -.373E-05 -.812E-05
   0.576E+03 -.171E+03 -.121E+04   -.573E+03 0.171E+03 0.121E+04   -.320E+01 0.710E-01 0.694E+01   0.219E-04 -.699E-05 0.548E-05
   0.442E+03 -.125E+04 -.169E+03   -.439E+03 0.125E+04 0.167E+03   -.254E+01 0.757E+01 0.172E+01   -.704E-07 0.569E-05 0.625E-06
   -.479E+03 -.107E+04 0.696E+03   0.476E+03 0.107E+04 -.690E+03   0.349E+01 0.667E+01 -.636E+01   0.666E-05 -.109E-04 0.809E-05
   -.831E+03 0.440E+02 -.431E+03   0.830E+03 -.444E+02 0.427E+03   0.579E+00 0.320E+00 0.381E+01   0.308E-05 0.484E-05 0.165E-06
   -.565E+03 -.752E+03 -.843E+03   0.563E+03 0.748E+03 0.840E+03   0.278E+01 0.381E+01 0.300E+01   0.114E-04 -.231E-04 -.757E-06
   -.125E+03 -.363E+01 -.120E+03   0.105E+03 0.272E+01 0.120E+03   0.199E+02 0.879E+00 0.336E+00   -.169E-05 0.394E-06 -.119E-05
   -.425E+03 -.145E+02 -.105E+03   0.483E+03 0.172E+02 0.109E+03   -.592E+02 -.261E+01 -.339E+01   0.150E-04 0.149E-05 -.186E-05
 -----------------------------------------------------------------------------------------------
   0.481E+02 0.356E+01 0.703E+01   -.227E-12 0.313E-12 0.156E-12   -.481E+02 -.357E+01 -.703E+01   0.676E-04 0.378E-04 0.787E-04
 
 
 POSITION                                       TOTAL-FORCE (eV/Angst)
 -----------------------------------------------------------------------------------
      4.34006      6.25637      8.29535         0.351851      0.193137      0.097547
      5.64210      8.23238      7.33297        -0.093033     -0.042415      0.194574
      5.94195      4.38571      8.49196        -0.009042      0.089121     -0.009302
      8.04744      7.64411      7.19391        -0.206890     -0.368131      0.204871
      8.21352      5.17015      7.92664         0.003784      0.478867      0.029639
      6.73159      6.58761      9.23453         0.175095     -0.336935     -0.478501
      6.23109      5.98867      6.69044         0.168642      0.006813      0.433917
      3.41723      8.53430      8.22638        -0.402125      0.179724     -0.316887
      4.97273      8.17009      9.85333         0.544829     -0.121823     -0.024732
      5.24268     10.26640      8.57486         0.087292     -0.124003     -0.078742
      7.32301      9.98214      7.16564        -0.081656      0.273548     -0.140304
      9.38385      7.19866      9.13761        -0.688170     -0.090815     -0.225907
      7.25905      8.90081      9.21331         0.080095     -0.119972      0.196517
     11.11360      7.33533      9.65668         0.705246     -0.026477      0.165754
     12.27310      7.38807      9.72255        -0.635916      0.009361     -0.048444
 -----------------------------------------------------------------------------------
    total drift:                                0.000361     -0.003614     -0.002357


--------------------------------------------------------------------------------------------------------



  FREE ENERGIE OF THE ION-ELECTRON SYSTEM (eV)
  ---------------------------------------------------
  free  energy   TOTEN  =       -48.95198824 eV

  energy  without entropy=      -48.96073303  energy(sigma->0) =      -48.95490317
 


--------------------------------------------------------------------------------------------------------


    POTLOK:  cpu time    1.1957: real time    1.1961


--------------------------------------------------------------------------------------------------------


     LOOP+:  cpu time  349.6623: real time  349.9065
    4ORBIT:  cpu time    0.0000: real time    0.0000

 total amount of memory used by VASP MPI-rank0   158680. kBytes
=======================================================================

   base      :      30000. kBytes
   nonl-proj :      12601. kBytes
   fftplans  :      27994. kBytes
   grid      :      74150. kBytes
   one-center:         93. kBytes
   wavefun   :      13842. kBytes
 
  
  
 General timing and accounting informations for this job:
 ========================================================
  
                  Total CPU time used (sec):      353.650
                            User time (sec):      340.803
                          System time (sec):       12.847
                         Elapsed time (sec):      353.931
  
                   Maximum memory used (kb):      281052.
                   Average memory used (kb):           0.
  
                          Minor page faults:       279541
                          Major page faults:            0
                 Voluntary context switches:          691
