<?xml version="1.0" encoding="ISO-8859-1"?>
<modeling>
 <generator>
  <i name="program" type="string">vasp </i>
  <i name="version" type="string">5.4.4.18Apr17-6-g9f103f2a35  </i>
  <i name="subversion" type="string">(build May 08 2019 13:49:07) complex            parallel </i>
  <i name="platform" type="string">LinuxIFC </i>
  <i name="date" type="string">2019 11 13 </i>
  <i name="time" type="string">13:46:47 </i>
 </generator>
 <incar>
  <i type="string" name="SYSTEM"> CuCO</i>
  <i type="int" name="ISTART">     0</i>
  <i type="string" name="PREC">accurate</i>
  <i type="string" name="ALGO"> Fast</i>
  <i type="int" name="ISPIN">     2</i>
  <i type="int" name="INIWAV">     1</i>
  <i type="int" name="NELM">   300</i>
  <i type="int" name="NELMIN">     3</i>
  <i type="int" name="IBRION">    -1</i>
  <i name="EDIFF">      0.00000010</i>
  <i name="EDIFFG">     -0.00100000</i>
  <i type="int" name="NSW">     0</i>
  <i type="int" name="ISYM">     0</i>
  <i name="ENCUT">    600.00000000</i>
  <i name="NUPDOWN">      1.00000000</i>
  <i type="logical" name="LREAL"> F  </i>
  <i type="int" name="ISMEAR">     1</i>
  <i name="SIGMA">      0.10000000</i>
  <i name="KSPACING">      0.50000000</i>
  <i type="logical" name="KGAMMA"> F  </i>
  <i type="logical" name="LWAVE"> F  </i>
  <i type="logical" name="LCHARG"> F  </i>
  <v type="int" name="KPOINT_BSE">    -1     0     0     0</v>
  <i type="int" name="NELM">   300</i>
  <i type="string" name="GGA"> PE</i>
 </incar>
 <structure name="primitive_cell" >
  <crystal>
   <varray name="basis" >
    <v>      15.00000000       0.00000000       0.00000000 </v>
    <v>       0.00000000      15.00000000       0.00000000 </v>
    <v>       0.00000000       0.00000000      15.00000000 </v>
   </varray>
   <i name="volume">   3375.00000000 </i>
   <varray name="rec_basis" >
    <v>       0.06666667       0.00000000       0.00000000 </v>
    <v>       0.00000000       0.06666667       0.00000000 </v>
    <v>       0.00000000       0.00000000       0.06666667 </v>
   </varray>
  </crystal>
  <varray name="positions" >
   <v>       0.28933733       0.41709133      -0.44697667 </v>
   <v>       0.22781533      -0.43104667      -0.45157467 </v>
   <v>       0.39613000       0.29238067      -0.43386933 </v>
   <v>       0.41540600       0.39924467       0.44602933 </v>
   <v>       0.33151533      -0.45532733      -0.34311133 </v>
   <v>       0.37614000      -0.45117467       0.48886467 </v>
   <v>       0.44877267       0.43917400      -0.38436467 </v>
   <v>      -0.45243200       0.34467667      -0.47155733 </v>
   <v>       0.48393667      -0.40661267      -0.38577933 </v>
   <v>      -0.46350400      -0.49039267       0.47959400 </v>
   <v>       0.34951200      -0.31557333      -0.42834267 </v>
   <v>       0.48820067      -0.33452400       0.47770933 </v>
   <v>      -0.37441000       0.47991067      -0.39082600 </v>
   <v>      -0.25909333       0.48902200      -0.35622133 </v>
   <v>      -0.18179333       0.49253800      -0.35183000 </v>
  </varray>
 </structure>
 <varray name="primitive_index" >
  <v type="int" >        1 </v>
  <v type="int" >        8 </v>
  <v type="int" >        3 </v>
  <v type="int" >        7 </v>
  <v type="int" >        9 </v>
  <v type="int" >        2 </v>
  <v type="int" >        6 </v>
  <v type="int" >        5 </v>
  <v type="int" >       13 </v>
  <v type="int" >        4 </v>
  <v type="int" >       10 </v>
  <v type="int" >       11 </v>
  <v type="int" >       12 </v>
  <v type="int" >       14 </v>
  <v type="int" >       15 </v>
 </varray>
 <kpoints>
  <generation param="Monkhorst-Pack">
   <v type="int" name="divisions">       1        1        1 </v>
   <v name="usershift">      0.00000000       0.00000000       0.00000000 </v>
   <v name="genvec1">      1.00000000       0.00000000       0.00000000 </v>
   <v name="genvec2">      0.00000000       1.00000000       0.00000000 </v>
   <v name="genvec3">      0.00000000       0.00000000       1.00000000 </v>
   <v name="shift">      0.00000000       0.00000000       0.00000000 </v>
  </generation>
  <varray name="kpointlist" >
   <v>       0.00000000       0.00000000       0.00000000 </v>
  </varray>
  <varray name="weights" >
   <v>       1.00000000 </v>
  </varray>
 </kpoints>
 <parameters>
  <separator name="general" >
   <i type="string" name="SYSTEM">CuCO</i>
   <i type="logical" name="LCOMPAT"> F  </i>
  </separator>
  <separator name="electronic" >
   <i type="string" name="PREC">accura</i>
   <i name="ENMAX">    600.00000000</i>
   <i name="ENAUG">    644.87300000</i>
   <i name="EDIFF">      0.00000010</i>
   <i type="int" name="IALGO">    68</i>
   <i type="int" name="IWAVPR">    10</i>
   <i type="int" name="NBANDS">    92</i>
   <i name="NELECT">    153.00000000</i>
   <i type="int" name="TURBO">     0</i>
   <i type="int" name="IRESTART">     0</i>
   <i type="int" name="NREBOOT">     0</i>
   <i type="int" name="NMIN">     0</i>
   <i name="EREF">      0.00000000</i>
   <separator name="electronic smearing" >
    <i type="int" name="ISMEAR">     1</i>
    <i name="SIGMA">      0.10000000</i>
    <i name="KSPACING">      0.50000000</i>
    <i type="logical" name="KGAMMA"> F  </i>
   </separator>
   <separator name="electronic projectors" >
    <i type="logical" name="LREAL"> F  </i>
    <v name="ROPT">      0.00000000      0.00000000      0.00000000</v>
    <i type="int" name="LMAXPAW">  -100</i>
    <i type="int" name="LMAXMIX">     2</i>
    <i type="logical" name="NLSPLINE"> F  </i>
   </separator>
   <separator name="electronic startup" >
    <i type="int" name="ISTART">     0</i>
    <i type="int" name="ICHARG">     2</i>
    <i type="int" name="INIWAV">     1</i>
   </separator>
   <separator name="electronic spin" >
    <i type="int" name="ISPIN">     2</i>
    <i type="logical" name="LNONCOLLINEAR"> F  </i>
    <v name="MAGMOM">      0.06666667      0.06666667      0.06666667      0.06666667      0.06666667      0.06666667      0.06666667      0.06666667      0.06666667      0.06666667      0.06666667      0.06666667      0.06666667      0.06666667      0.06666667</v>
    <i name="NUPDOWN">      1.00000000</i>
    <i type="logical" name="LSORBIT"> F  </i>
    <v name="SAXIS">      0.00000000      0.00000000      1.00000000</v>
    <i type="logical" name="LSPIRAL"> F  </i>
    <v name="QSPIRAL">      0.00000000      0.00000000      0.00000000</v>
    <i type="logical" name="LZEROZ"> F  </i>
   </separator>
   <separator name="electronic exchange-correlation" >
    <i type="logical" name="LASPH"> F  </i>
    <i type="logical" name="LMETAGGA"> F  </i>
   </separator>
   <separator name="electronic convergence" >
    <i type="int" name="NELM">   300</i>
    <i type="int" name="NELMDL">    -5</i>
    <i type="int" name="NELMIN">     3</i>
    <i name="ENINI">    600.00000000</i>
    <separator name="electronic convergence detail" >
     <i type="logical" name="LDIAG"> T  </i>
     <i type="logical" name="LSUBROT"> F  </i>
     <i name="WEIMIN">      0.00000000</i>
     <i name="EBREAK">      0.00000000</i>
     <i name="DEPER">      0.30000000</i>
     <i type="int" name="NRMM">     4</i>
     <i name="TIME">      0.40000000</i>
    </separator>
   </separator>
   <separator name="electronic mixer" >
    <i name="AMIX">      0.40000000</i>
    <i name="BMIX">      1.00000000</i>
    <i name="AMIN">      0.10000000</i>
    <i name="AMIX_MAG">      1.60000000</i>
    <i name="BMIX_MAG">      1.00000000</i>
    <separator name="electronic mixer details" >
     <i type="int" name="IMIX">     4</i>
     <i type="logical" name="MIXFIRST"> F  </i>
     <i type="int" name="MAXMIX">   -45</i>
     <i name="WC">    100.00000000</i>
     <i type="int" name="INIMIX">     1</i>
     <i type="int" name="MIXPRE">     1</i>
     <i type="int" name="MREMOVE">     5</i>
    </separator>
   </separator>
   <separator name="electronic dipolcorrection" >
    <i type="logical" name="LDIPOL"> F  </i>
    <i type="logical" name="LMONO"> F  </i>
    <i type="int" name="IDIPOL">     0</i>
    <i name="EPSILON">      1.00000000</i>
    <v name="DIPOL">   -100.00000000   -100.00000000   -100.00000000</v>
    <i name="EFIELD">      0.00000000</i>
   </separator>
  </separator>
  <separator name="grids" >
   <i type="int" name="NGX">   120</i>
   <i type="int" name="NGY">   120</i>
   <i type="int" name="NGZ">   120</i>
   <i type="int" name="NGXF">   240</i>
   <i type="int" name="NGYF">   240</i>
   <i type="int" name="NGZF">   240</i>
   <i type="logical" name="ADDGRID"> F  </i>
  </separator>
  <separator name="ionic" >
   <i type="int" name="NSW">     0</i>
   <i type="int" name="IBRION">    -1</i>
   <i type="int" name="MDALGO">     0</i>
   <i type="int" name="ISIF">     2</i>
   <i name="PSTRESS">      0.00000000</i>
   <i name="EDIFFG">     -0.00100000</i>
   <i type="int" name="NFREE">     0</i>
   <i name="POTIM">      0.50000000</i>
   <i name="SMASS">     -3.00000000</i>
   <i name="SCALEE">      1.00000000</i>
  </separator>
  <separator name="ionic md" >
   <i name="TEBEG">      0.00010000</i>
   <i name="TEEND">      0.00010000</i>
   <i type="int" name="NBLOCK">     1</i>
   <i type="int" name="KBLOCK">     1</i>
   <i type="int" name="NPACO">   256</i>
   <i name="APACO">     16.00000000</i>
  </separator>
  <separator name="symmetry" >
   <i type="int" name="ISYM">     0</i>
   <i name="SYMPREC">      0.00001000</i>
  </separator>
  <separator name="dos" >
   <i type="int" name="LORBIT">     0</i>
   <v name="RWIGS">     -1.00000000     -1.00000000     -1.00000000</v>
   <i type="int" name="NEDOS">   301</i>
   <i name="EMIN">     10.00000000</i>
   <i name="EMAX">    -10.00000000</i>
   <i name="EFERMI">      0.00000000</i>
  </separator>
  <separator name="writing" >
   <i type="int" name="NWRITE">     2</i>
   <i type="logical" name="LWAVE"> F  </i>
   <i type="logical" name="LDOWNSAMPLE"> F  </i>
   <i type="logical" name="LCHARG"> F  </i>
   <i type="logical" name="LPARD"> F  </i>
   <i type="logical" name="LVTOT"> F  </i>
   <i type="logical" name="LVHAR"> F  </i>
   <i type="logical" name="LELF"> F  </i>
   <i type="logical" name="LOPTICS"> F  </i>
   <v name="STM">      0.00000000      0.00000000      0.00000000      0.00000000      0.00000000      0.00000000      0.00000000</v>
  </separator>
  <separator name="performance" >
   <i type="int" name="NPAR">     4</i>
   <i type="int" name="NSIM">     4</i>
   <i type="int" name="NBLK">    -1</i>
   <i type="logical" name="LPLANE"> T  </i>
   <i type="logical" name="LSCALAPACK"> T  </i>
   <i type="logical" name="LSCAAWARE"> F  </i>
   <i type="logical" name="LSCALU"> F  </i>
   <i type="logical" name="LASYNC"> F  </i>
   <i type="logical" name="LORBITALREAL"> F  </i>
  </separator>
  <separator name="miscellaneous" >
   <i type="int" name="IDIOT">     3</i>
   <i type="int" name="ISPECIAL">     0</i>
   <i type="logical" name="LMUSIC"> F  </i>
   <v name="POMASS">     63.54600000     12.01100000     16.00000000</v>
   <v name="DARWINR">      0.00000000      0.00000000      0.00000000</v>
   <v name="DARWINV">      1.00000000      1.00000000      1.00000000</v>
   <i type="logical" name="LCORR"> T  </i>
  </separator>
  <i type="logical" name="GGA_COMPAT"> T  </i>
  <i type="logical" name="LBERRY"> F  </i>
  <i type="int" name="ICORELEVEL">     0</i>
  <i type="logical" name="LDAU"> F  </i>
  <i type="int" name="I_CONSTRAINED_M">     0</i>
  <separator name="electronic exchange-correlation" >
   <i type="string" name="GGA">PE</i>
   <i type="int" name="VOSKOWN">     0</i>
   <i type="logical" name="LHFCALC"> F  </i>
   <i type="string" name="PRECFOCK"></i>
   <i type="logical" name="LSYMGRAD"> F  </i>
   <i type="logical" name="LHFONE"> F  </i>
   <i type="logical" name="LRHFCALC"> F  </i>
   <i type="logical" name="LTHOMAS"> F  </i>
   <i type="logical" name="LMODELHF"> F  </i>
   <i name="ENCUT4O">     -1.00000000</i>
   <i type="int" name="EXXOEP">     0</i>
   <i type="int" name="FOURORBIT">     0</i>
   <i name="AEXX">      0.00000000</i>
   <i name="HFALPHA">      0.00000000</i>
   <i name="MCALPHA">      0.00000000</i>
   <i name="ALDAX">      1.00000000</i>
   <i name="AGGAX">      1.00000000</i>
   <i name="ALDAC">      1.00000000</i>
   <i name="AGGAC">      1.00000000</i>
   <i type="int" name="NKREDX">     1</i>
   <i type="int" name="NKREDY">     1</i>
   <i type="int" name="NKREDZ">     1</i>
   <i type="logical" name="SHIFTRED"> F  </i>
   <i type="logical" name="ODDONLY"> F  </i>
   <i type="logical" name="EVENONLY"> F  </i>
   <i type="int" name="LMAXFOCK">     0</i>
   <i type="int" name="NMAXFOCKAE">     0</i>
   <i type="logical" name="LFOCKAEDFT"> F  </i>
   <i name="HFSCREEN">      0.00000000</i>
   <i name="HFSCREENC">      0.00000000</i>
   <i type="int" name="NBANDSGWLOW">     0</i>
  </separator>
  <separator name="vdW DFT" >
   <i type="logical" name="LUSE_VDW"> F  </i>
   <i name="Zab_VDW">     -0.84910000</i>
   <i name="PARAM1">      0.12340000</i>
   <i name="PARAM2">      1.00000000</i>
   <i name="PARAM3">      0.00000000</i>
  </separator>
  <separator name="model GW" >
   <i type="int" name="MODEL_GW">     0</i>
   <i name="MODEL_EPS0">    135.00000000</i>
   <i name="MODEL_ALPHA">      1.00000000</i>
  </separator>
  <separator name="linear response parameters" >
   <i type="logical" name="LEPSILON"> F  </i>
   <i type="logical" name="LRPA"> F  </i>
   <i type="logical" name="LNABLA"> F  </i>
   <i type="logical" name="LVEL"> F  </i>
   <i type="int" name="KINTER">     0</i>
   <i name="CSHIFT">      0.10000000</i>
   <i name="OMEGAMAX">     -1.00000000</i>
   <i name="DEG_THRESHOLD">      0.00200000</i>
   <i name="RTIME">     -0.10000000</i>
   <i name="WPLASMAI">      0.00000000</i>
   <v name="DFIELD">      0.00000000      0.00000000      0.00000000</v>
   <v name="WPLASMA">      0.00000000      0.00000000      0.00000000      0.00000000      0.00000000      0.00000000      0.00000000      0.00000000      0.00000000</v>
  </separator>
  <separator name="orbital magnetization" >
   <i type="logical" name="NUCIND"> F  </i>
   <v name="MAGPOS">      0.00000000      0.00000000      0.00000000</v>
   <i type="logical" name="LNICSALL"> T  </i>
   <i type="logical" name="ORBITALMAG"> F  </i>
   <i type="logical" name="LMAGBLOCH"> F  </i>
   <i type="logical" name="LCHIMAG"> F  </i>
   <i type="logical" name="LGAUGE"> T  </i>
   <i type="int" name="MAGATOM">     0</i>
   <v name="MAGDIPOL">      0.00000000      0.00000000      0.00000000</v>
   <v name="AVECCONST">      0.00000000      0.00000000      0.00000000</v>
  </separator>
  <separator name="response functions" >
   <i type="logical" name="LADDER"> F  </i>
   <i type="logical" name="LRPAFORCE"> F  </i>
   <i type="logical" name="LFXC"> F  </i>
   <i type="logical" name="LHARTREE"> T  </i>
   <i type="int" name="IBSE">     0</i>
   <v type="int" name="KPOINT">    -1     0     0     0</v>
   <i type="logical" name="LTCTE"> F  </i>
   <i type="logical" name="LTETE"> F  </i>
   <i type="logical" name="LTRIPLET"> F  </i>
   <i type="logical" name="LFXCEPS"> F  </i>
   <i type="logical" name="LFXHEG"> F  </i>
   <i type="int" name="NATURALO">     2</i>
   <i type="logical" name="L2ORDER"> F  </i>
   <i type="logical" name="LMP2LT"> F  </i>
   <i type="logical" name="LUSEW"> F  </i>
   <i name="ENCUTGW">     -2.00000000</i>
   <i name="ENCUTGWSOFT">     -2.00000000</i>
   <i name="ENCUTLF">     -1.00000000</i>
   <i type="int" name="LMAXMP2">    -1</i>
   <i name="SCISSOR">      0.00000000</i>
   <i type="int" name="NOMEGA">     0</i>
   <i type="int" name="NOMEGAR">     0</i>
   <i type="int" name="NBANDSGW">    -1</i>
   <i type="int" name="NBANDSO">    -1</i>
   <i type="int" name="NBANDSV">    -1</i>
   <i type="int" name="NELM">   300</i>
   <i type="int" name="NELMHF">     1</i>
   <i type="int" name="DIM">     3</i>
   <i type="int" name="ANTIRES">     0</i>
   <i name="OMEGAMAX">    -30.00000000</i>
   <i name="OMEGAMIN">    -30.00000000</i>
   <i name="OMEGATL">   -200.00000000</i>
   <i type="int" name="OMEGAGRID">   140</i>
   <i name="CSHIFT">     -0.10000000</i>
   <i type="logical" name="SELFENERGY"> F  </i>
   <i type="logical" name="LSPECTRAL"> F  </i>
   <i type="logical" name="LSPECTRALGW"> F  </i>
   <i type="logical" name="LSINGLES"> F  </i>
   <i type="logical" name="LFERMIGW"> F  </i>
   <i type="logical" name="ODDONLYGW"> F  </i>
   <i type="logical" name="EVENONLYGW"> F  </i>
   <i type="int" name="NKREDLFX">     1</i>
   <i type="int" name="NKREDLFY">     1</i>
   <i type="int" name="NKREDLFZ">     1</i>
   <i type="int" name="MAXMEM">  2800</i>
   <i type="int" name="TELESCOPE">     0</i>
   <i type="int" name="TAUPAR">     1</i>
   <i type="int" name="OMEGAPAR">    -1</i>
   <i name="LAMBDA">      1.00000000</i>
  </separator>
  <separator name="External order field" >
   <i name="OFIELD_KAPPA">      0.00000000</i>
   <v name="OFIELD_K">      0.00000000      0.00000000      0.00000000</v>
   <i name="OFIELD_Q6_NEAR">      0.00000000</i>
   <i name="OFIELD_Q6_FAR">      0.00000000</i>
   <i name="OFIELD_A">      0.00000000</i>
  </separator>
 </parameters>
 <atominfo>
  <atoms>      15 </atoms>
  <types>       3 </types>
  <array name="atoms" >
   <dimension dim="1">ion</dimension>
   <field type="string">element</field>
   <field type="int">atomtype</field>
   <set>
    <rc><c>Cu</c><c>   1</c></rc>
    <rc><c>Cu</c><c>   1</c></rc>
    <rc><c>Cu</c><c>   1</c></rc>
    <rc><c>Cu</c><c>   1</c></rc>
    <rc><c>Cu</c><c>   1</c></rc>
    <rc><c>Cu</c><c>   1</c></rc>
    <rc><c>Cu</c><c>   1</c></rc>
    <rc><c>Cu</c><c>   1</c></rc>
    <rc><c>Cu</c><c>   1</c></rc>
    <rc><c>Cu</c><c>   1</c></rc>
    <rc><c>Cu</c><c>   1</c></rc>
    <rc><c>Cu</c><c>   1</c></rc>
    <rc><c>Cu</c><c>   1</c></rc>
    <rc><c>C </c><c>   2</c></rc>
    <rc><c>O </c><c>   3</c></rc>
   </set>
  </array>
  <array name="atomtypes" >
   <dimension dim="1">type</dimension>
   <field type="int">atomspertype</field>
   <field type="string">element</field>
   <field>mass</field>
   <field>valence</field>
   <field type="string">pseudopotential</field>
   <set>
    <rc><c>  13</c><c>Cu</c><c>     63.54600000</c><c>     11.00000000</c><c>  PAW_PBE Cu 22Jun2005                  </c></rc>
    <rc><c>   1</c><c>C </c><c>     12.01100000</c><c>      4.00000000</c><c>  PAW_PBE C 08Apr2002                   </c></rc>
    <rc><c>   1</c><c>O </c><c>     16.00000000</c><c>      6.00000000</c><c>  PAW_PBE O 08Apr2002                   </c></rc>
   </set>
  </array>
 </atominfo>
 <structure name="initialpos" >
  <crystal>
   <varray name="basis" >
    <v>      15.00000000       0.00000000       0.00000000 </v>
    <v>       0.00000000      15.00000000       0.00000000 </v>
    <v>       0.00000000       0.00000000      15.00000000 </v>
   </varray>
   <i name="volume">   3375.00000000 </i>
   <varray name="rec_basis" >
    <v>       0.06666667       0.00000000       0.00000000 </v>
    <v>       0.00000000       0.06666667       0.00000000 </v>
    <v>       0.00000000       0.00000000       0.06666667 </v>
   </varray>
  </crystal>
  <varray name="positions" >
   <v>       0.28933733       0.41709133       0.55302333 </v>
   <v>       0.37614000       0.54882533       0.48886467 </v>
   <v>       0.39613000       0.29238067       0.56613067 </v>
   <v>       0.53649600       0.50960733       0.47959400 </v>
   <v>       0.54756800       0.34467667       0.52844267 </v>
   <v>       0.44877267       0.43917400       0.61563533 </v>
   <v>       0.41540600       0.39924467       0.44602933 </v>
   <v>       0.22781533       0.56895333       0.54842533 </v>
   <v>       0.33151533       0.54467267       0.65688867 </v>
   <v>       0.34951200       0.68442667       0.57165733 </v>
   <v>       0.48820067       0.66547600       0.47770933 </v>
   <v>       0.62559000       0.47991067       0.60917400 </v>
   <v>       0.48393667       0.59338733       0.61422067 </v>
   <v>       0.74090667       0.48902200       0.64377867 </v>
   <v>       0.81820667       0.49253800       0.64817000 </v>
  </varray>
 </structure>
 <calculation>
  <scstep>
   <time name="dav">    7.48    7.49</time>
   <time name="total">    8.69    8.69</time>
   <energy>
    <i name="alphaZ">     41.16232785 </i>
    <i name="ewald">  16175.94060072 </i>
    <i name="hartreedc"> -33202.58789549 </i>
    <i name="XCdc">    623.18193563 </i>
    <i name="pawpsdc">  16421.75059358 </i>
    <i name="pawaedc"> -17800.06104309 </i>
    <i name="eentropy">      0.00912453 </i>
    <i name="bandstr">    195.47318743 </i>
    <i name="atom">  18662.21924712 </i>
    <i name="e_fr_energy">   1117.08807828 </i>
    <i name="e_wo_entrp">   1117.07895375 </i>
    <i name="e_0_energy">   1117.08503677 </i>
   </energy>
  </scstep>
  <scstep>
   <time name="dav">    7.37    7.38</time>
   <time name="total">    7.37    7.38</time>
   <energy>
    <i name="e_fr_energy">     89.69166176 </i>
    <i name="e_wo_entrp">     89.68271383 </i>
    <i name="e_0_energy">     89.68867912 </i>
   </energy>
  </scstep>
  <scstep>
   <time name="dav">   11.27   11.28</time>
   <time name="total">   11.27   11.28</time>
   <energy>
    <i name="e_fr_energy">    -32.01417291 </i>
    <i name="e_wo_entrp">    -32.02985731 </i>
    <i name="e_0_energy">    -32.01940104 </i>
   </energy>
  </scstep>
  <scstep>
   <time name="dav">   10.10   10.10</time>
   <time name="total">   10.10   10.10</time>
   <energy>
    <i name="e_fr_energy">    -55.59557058 </i>
    <i name="e_wo_entrp">    -55.60575331 </i>
    <i name="e_0_energy">    -55.59896483 </i>
   </energy>
  </scstep>
  <scstep>
   <time name="dav">   12.00   12.01</time>
   <time name="total">   12.72   12.72</time>
   <energy>
    <i name="e_fr_energy">    -57.41253361 </i>
    <i name="e_wo_entrp">    -57.42154050 </i>
    <i name="e_0_energy">    -57.41553590 </i>
   </energy>
  </scstep>
  <scstep>
   <time name="diag">    1.10    1.10</time>
   <time name="diis">    7.19    7.19</time>
   <time name="orth">    0.06    0.06</time>
   <time name="total">   10.21   10.21</time>
   <energy>
    <i name="e_fr_energy">    -57.04040071 </i>
    <i name="e_wo_entrp">    -57.04933211 </i>
    <i name="e_0_energy">    -57.04337784 </i>
   </energy>
  </scstep>
  <scstep>
   <time name="diag">    1.10    1.10</time>
   <time name="diis">    7.29    7.29</time>
   <time name="orth">    0.06    0.06</time>
   <time name="total">   10.32   10.33</time>
   <energy>
    <i name="e_fr_energy">    -49.35032044 </i>
    <i name="e_wo_entrp">    -49.35932126 </i>
    <i name="e_0_energy">    -49.35332071 </i>
   </energy>
  </scstep>
  <scstep>
   <time name="diag">    1.10    1.10</time>
   <time name="diis">    6.99    7.01</time>
   <time name="orth">    0.06    0.06</time>
   <time name="total">   10.02   10.04</time>
   <energy>
    <i name="e_fr_energy">    -49.07341169 </i>
    <i name="e_wo_entrp">    -49.08220902 </i>
    <i name="e_0_energy">    -49.07634414 </i>
   </energy>
  </scstep>
  <scstep>
   <time name="diag">    1.10    1.10</time>
   <time name="diis">    7.09    7.10</time>
   <time name="orth">    0.06    0.06</time>
   <time name="total">   10.13   10.14</time>
   <energy>
    <i name="e_fr_energy">    -49.02452806 </i>
    <i name="e_wo_entrp">    -49.03330388 </i>
    <i name="e_0_energy">    -49.02745333 </i>
   </energy>
  </scstep>
  <scstep>
   <time name="diag">    1.09    1.09</time>
   <time name="diis">    6.83    6.84</time>
   <time name="orth">    0.06    0.06</time>
   <time name="total">    9.85    9.87</time>
   <energy>
    <i name="e_fr_energy">    -48.95709111 </i>
    <i name="e_wo_entrp">    -48.96580850 </i>
    <i name="e_0_energy">    -48.95999690 </i>
   </energy>
  </scstep>
  <scstep>
   <time name="diag">    1.09    1.09</time>
   <time name="diis">    7.12    7.12</time>
   <time name="orth">    0.06    0.06</time>
   <time name="total">   10.14   10.15</time>
   <energy>
    <i name="e_fr_energy">    -48.94737958 </i>
    <i name="e_wo_entrp">    -48.95615617 </i>
    <i name="e_0_energy">    -48.95030511 </i>
   </energy>
  </scstep>
  <scstep>
   <time name="diag">    1.09    1.09</time>
   <time name="diis">    7.14    7.15</time>
   <time name="orth">    0.06    0.06</time>
   <time name="total">   10.17   10.18</time>
   <energy>
    <i name="e_fr_energy">    -48.94473237 </i>
    <i name="e_wo_entrp">    -48.95346640 </i>
    <i name="e_0_energy">    -48.94764372 </i>
   </energy>
  </scstep>
  <scstep>
   <time name="diag">    1.10    1.10</time>
   <time name="diis">    6.96    6.97</time>
   <time name="orth">    0.06    0.06</time>
   <time name="total">   10.00   10.00</time>
   <energy>
    <i name="e_fr_energy">    -48.94349948 </i>
    <i name="e_wo_entrp">    -48.95224478 </i>
    <i name="e_0_energy">    -48.94641458 </i>
   </energy>
  </scstep>
  <scstep>
   <time name="diag">    1.09    1.09</time>
   <time name="diis">    7.24    7.24</time>
   <time name="orth">    0.06    0.06</time>
   <time name="total">   10.27   10.28</time>
   <energy>
    <i name="e_fr_energy">    -48.94453778 </i>
    <i name="e_wo_entrp">    -48.95327454 </i>
    <i name="e_0_energy">    -48.94745003 </i>
   </energy>
  </scstep>
  <scstep>
   <time name="diag">    1.10    1.10</time>
   <time name="diis">    6.83    6.83</time>
   <time name="orth">    0.06    0.06</time>
   <time name="total">    9.87    9.87</time>
   <energy>
    <i name="e_fr_energy">    -48.94572055 </i>
    <i name="e_wo_entrp">    -48.95445884 </i>
    <i name="e_0_energy">    -48.94863331 </i>
   </energy>
  </scstep>
  <scstep>
   <time name="diag">    1.10    1.10</time>
   <time name="diis">    6.71    6.71</time>
   <time name="orth">    0.06    0.06</time>
   <time name="total">    9.74    9.75</time>
   <energy>
    <i name="e_fr_energy">    -48.94718147 </i>
    <i name="e_wo_entrp">    -48.95592624 </i>
    <i name="e_0_energy">    -48.95009640 </i>
   </energy>
  </scstep>
  <scstep>
   <time name="diag">    1.09    1.10</time>
   <time name="diis">    7.00    7.00</time>
   <time name="orth">    0.06    0.06</time>
   <time name="total">   10.03   10.04</time>
   <energy>
    <i name="e_fr_energy">    -48.94881177 </i>
    <i name="e_wo_entrp">    -48.95755948 </i>
    <i name="e_0_energy">    -48.95172767 </i>
   </energy>
  </scstep>
  <scstep>
   <time name="diag">    1.09    1.09</time>
   <time name="diis">    7.35    7.36</time>
   <time name="orth">    0.06    0.06</time>
   <time name="total">   10.38   10.39</time>
   <energy>
    <i name="e_fr_energy">    -48.94971341 </i>
    <i name="e_wo_entrp">    -48.95845898 </i>
    <i name="e_0_energy">    -48.95262860 </i>
   </energy>
  </scstep>
  <scstep>
   <time name="diag">    1.09    1.09</time>
   <time name="diis">    7.14    7.15</time>
   <time name="orth">    0.06    0.06</time>
   <time name="total">   10.18   10.19</time>
   <energy>
    <i name="e_fr_energy">    -48.95045677 </i>
    <i name="e_wo_entrp">    -48.95920174 </i>
    <i name="e_0_energy">    -48.95337176 </i>
   </energy>
  </scstep>
  <scstep>
   <time name="diag">    1.10    1.10</time>
   <time name="diis">    6.77    6.77</time>
   <time name="orth">    0.06    0.06</time>
   <time name="total">    9.81    9.81</time>
   <energy>
    <i name="e_fr_energy">    -48.95098462 </i>
    <i name="e_wo_entrp">    -48.95972871 </i>
    <i name="e_0_energy">    -48.95389931 </i>
   </energy>
  </scstep>
  <scstep>
   <time name="diag">    1.10    1.10</time>
   <time name="diis">    6.74    6.75</time>
   <time name="orth">    0.06    0.06</time>
   <time name="total">    9.79    9.79</time>
   <energy>
    <i name="e_fr_energy">    -48.95137265 </i>
    <i name="e_wo_entrp">    -48.96011711 </i>
    <i name="e_0_energy">    -48.95428747 </i>
   </energy>
  </scstep>
  <scstep>
   <time name="diag">    1.09    1.09</time>
   <time name="diis">    6.69    6.69</time>
   <time name="orth">    0.06    0.06</time>
   <time name="total">    9.73    9.74</time>
   <energy>
    <i name="e_fr_energy">    -48.95164930 </i>
    <i name="e_wo_entrp">    -48.96039421 </i>
    <i name="e_0_energy">    -48.95456427 </i>
   </energy>
  </scstep>
  <scstep>
   <time name="diag">    1.09    1.10</time>
   <time name="diis">    6.86    6.86</time>
   <time name="orth">    0.06    0.06</time>
   <time name="total">    9.91    9.92</time>
   <energy>
    <i name="e_fr_energy">    -48.95176661 </i>
    <i name="e_wo_entrp">    -48.96051145 </i>
    <i name="e_0_energy">    -48.95468155 </i>
   </energy>
  </scstep>
  <scstep>
   <time name="diag">    1.09    1.10</time>
   <time name="diis">    6.53    6.53</time>
   <time name="orth">    0.06    0.06</time>
   <time name="total">    9.57    9.57</time>
   <energy>
    <i name="e_fr_energy">    -48.95186753 </i>
    <i name="e_wo_entrp">    -48.96061236 </i>
    <i name="e_0_energy">    -48.95478248 </i>
   </energy>
  </scstep>
  <scstep>
   <time name="diag">    1.09    1.09</time>
   <time name="diis">    6.68    6.68</time>
   <time name="orth">    0.06    0.06</time>
   <time name="total">    9.72    9.73</time>
   <energy>
    <i name="e_fr_energy">    -48.95193041 </i>
    <i name="e_wo_entrp">    -48.96067519 </i>
    <i name="e_0_energy">    -48.95484533 </i>
   </energy>
  </scstep>
  <scstep>
   <time name="diag">    1.09    1.09</time>
   <time name="diis">    6.20    6.20</time>
   <time name="orth">    0.06    0.06</time>
   <time name="total">    9.24    9.24</time>
   <energy>
    <i name="e_fr_energy">    -48.95196080 </i>
    <i name="e_wo_entrp">    -48.96070558 </i>
    <i name="e_0_energy">    -48.95487573 </i>
   </energy>
  </scstep>
  <scstep>
   <time name="diag">    1.09    1.09</time>
   <time name="diis">    4.90    4.90</time>
   <time name="orth">    0.06    0.06</time>
   <time name="total">    7.95    7.95</time>
   <energy>
    <i name="e_fr_energy">    -48.95197243 </i>
    <i name="e_wo_entrp">    -48.96071718 </i>
    <i name="e_0_energy">    -48.95488735 </i>
   </energy>
  </scstep>
  <scstep>
   <time name="diag">    1.09    1.09</time>
   <time name="diis">    4.65    4.65</time>
   <time name="orth">    0.06    0.06</time>
   <time name="total">    7.70    7.71</time>
   <energy>
    <i name="e_fr_energy">    -48.95197907 </i>
    <i name="e_wo_entrp">    -48.96072386 </i>
    <i name="e_0_energy">    -48.95489400 </i>
   </energy>
  </scstep>
  <scstep>
   <time name="diag">    1.10    1.10</time>
   <time name="diis">    4.47    4.47</time>
   <time name="orth">    0.06    0.06</time>
   <time name="total">    7.53    7.53</time>
   <energy>
    <i name="e_fr_energy">    -48.95198371 </i>
    <i name="e_wo_entrp">    -48.96072849 </i>
    <i name="e_0_energy">    -48.95489863 </i>
   </energy>
  </scstep>
  <scstep>
   <time name="diag">    1.09    1.09</time>
   <time name="diis">    4.37    4.38</time>
   <time name="orth">    0.06    0.06</time>
   <time name="total">    7.43    7.45</time>
   <energy>
    <i name="e_fr_energy">    -48.95198508 </i>
    <i name="e_wo_entrp">    -48.96072986 </i>
    <i name="e_0_energy">    -48.95490001 </i>
   </energy>
  </scstep>
  <scstep>
   <time name="diag">    1.09    1.10</time>
   <time name="diis">    4.51    4.51</time>
   <time name="orth">    0.06    0.06</time>
   <time name="total">    7.58    7.58</time>
   <energy>
    <i name="e_fr_energy">    -48.95198599 </i>
    <i name="e_wo_entrp">    -48.96073079 </i>
    <i name="e_0_energy">    -48.95490092 </i>
   </energy>
  </scstep>
  <scstep>
   <time name="diag">    1.10    1.10</time>
   <time name="diis">    4.16    4.16</time>
   <time name="orth">    0.06    0.06</time>
   <time name="total">    7.24    7.24</time>
   <energy>
    <i name="e_fr_energy">    -48.95198685 </i>
    <i name="e_wo_entrp">    -48.96073163 </i>
    <i name="e_0_energy">    -48.95490177 </i>
   </energy>
  </scstep>
  <scstep>
   <time name="diag">    1.10    1.10</time>
   <time name="diis">    4.30    4.31</time>
   <time name="orth">    0.06    0.06</time>
   <time name="total">    7.39    7.40</time>
   <energy>
    <i name="e_fr_energy">    -48.95198738 </i>
    <i name="e_wo_entrp">    -48.96073217 </i>
    <i name="e_0_energy">    -48.95490231 </i>
   </energy>
  </scstep>
  <scstep>
   <time name="diag">    1.09    1.10</time>
   <time name="diis">    4.08    4.08</time>
   <time name="orth">    0.06    0.06</time>
   <time name="total">    7.17    7.17</time>
   <energy>
    <i name="e_fr_energy">    -48.95198773 </i>
    <i name="e_wo_entrp">    -48.96073251 </i>
    <i name="e_0_energy">    -48.95490266 </i>
   </energy>
  </scstep>
  <scstep>
   <time name="diag">    1.10    1.10</time>
   <time name="diis">    3.91    3.91</time>
   <time name="orth">    0.06    0.06</time>
   <time name="total">    7.00    7.01</time>
   <energy>
    <i name="e_fr_energy">    -48.95198797 </i>
    <i name="e_wo_entrp">    -48.96073275 </i>
    <i name="e_0_energy">    -48.95490289 </i>
   </energy>
  </scstep>
  <scstep>
   <time name="diag">    1.09    1.10</time>
   <time name="diis">    3.56    3.56</time>
   <time name="orth">    0.05    0.05</time>
   <time name="total">    6.65    6.67</time>
   <energy>
    <i name="e_fr_energy">    -48.95198817 </i>
    <i name="e_wo_entrp">    -48.96073296 </i>
    <i name="e_0_energy">    -48.95490310 </i>
   </energy>
  </scstep>
  <scstep>
   <time name="diag">    1.09    1.09</time>
   <time name="diis">    3.42    3.42</time>
   <time name="orth">    0.06    0.06</time>
   <time name="total">    5.77    5.77</time>
   <energy>
    <i name="alphaZ">     41.16232785 </i>
    <i name="ewald">  16175.94060072 </i>
    <i name="hartreedc"> -33158.39638981 </i>
    <i name="XCdc">    615.25211180 </i>
    <i name="pawpsdc">  17606.80073827 </i>
    <i name="pawaedc"> -19004.69896552 </i>
    <i name="eentropy">      0.00874478 </i>
    <i name="bandstr">   -987.24040346 </i>
    <i name="atom">  18662.21924712 </i>
    <i name="e_fr_energy">    -48.95198824 </i>
    <i name="e_wo_entrp">    -48.96073303 </i>
    <i name="e_0_energy">    -48.95490317 </i>
   </energy>
  </scstep>
  <structure>
   <crystal>
    <varray name="basis" >
     <v>      15.00000000       0.00000000       0.00000000 </v>
     <v>       0.00000000      15.00000000       0.00000000 </v>
     <v>       0.00000000       0.00000000      15.00000000 </v>
    </varray>
    <i name="volume">   3375.00000000 </i>
    <varray name="rec_basis" >
     <v>       0.06666667       0.00000000       0.00000000 </v>
     <v>       0.00000000       0.06666667       0.00000000 </v>
     <v>       0.00000000       0.00000000       0.06666667 </v>
    </varray>
   </crystal>
   <varray name="positions" >
    <v>       0.28933733       0.41709133       0.55302333 </v>
    <v>       0.37614000       0.54882533       0.48886467 </v>
    <v>       0.39613000       0.29238067       0.56613067 </v>
    <v>       0.53649600       0.50960733       0.47959400 </v>
    <v>       0.54756800       0.34467667       0.52844267 </v>
    <v>       0.44877267       0.43917400       0.61563533 </v>
    <v>       0.41540600       0.39924467       0.44602933 </v>
    <v>       0.22781533       0.56895333       0.54842533 </v>
    <v>       0.33151533       0.54467267       0.65688867 </v>
    <v>       0.34951200       0.68442667       0.57165733 </v>
    <v>       0.48820067       0.66547600       0.47770933 </v>
    <v>       0.62559000       0.47991067       0.60917400 </v>
    <v>       0.48393667       0.59338733       0.61422067 </v>
    <v>       0.74090667       0.48902200       0.64377867 </v>
    <v>       0.81820667       0.49253800       0.64817000 </v>
   </varray>
  </structure>
  <varray name="forces" >
   <v>       0.35185079       0.19313735       0.09754667 </v>
   <v>      -0.09303322      -0.04241476       0.19457352 </v>
   <v>      -0.00904218       0.08912112      -0.00930187 </v>
   <v>      -0.20689034      -0.36813131       0.20487142 </v>
   <v>       0.00378399       0.47886659       0.02963883 </v>
   <v>       0.17509475      -0.33693544      -0.47850143 </v>
   <v>       0.16864210       0.00681341       0.43391719 </v>
   <v>      -0.40212532       0.17972352      -0.31688730 </v>
   <v>       0.54482862      -0.12182280      -0.02473188 </v>
   <v>       0.08729245      -0.12400297      -0.07874176 </v>
   <v>      -0.08165639       0.27354775      -0.14030440 </v>
   <v>      -0.68817047      -0.09081482      -0.22590655 </v>
   <v>       0.08009530      -0.11997189       0.19651737 </v>
   <v>       0.70524595      -0.02647668       0.16575436 </v>
   <v>      -0.63591602       0.00936093      -0.04844418 </v>
  </varray>
  <varray name="stress" >
   <v>      -1.52618278      -0.31750539       0.35594074 </v>
   <v>      -0.31750538      -0.59376832      -0.37702207 </v>
   <v>       0.35594074      -0.37702207      -0.67002861 </v>
  </varray>
  <energy>
   <i name="e_fr_energy">    -48.95198824 </i>
   <i name="e_wo_entrp">    -48.95490317 </i>
   <i name="e_0_energy">      0.00874478 </i>
  </energy>
  <time name="totalsc">  349.66  349.91</time>
  <eigenvalues>
   <array>
    <dimension dim="1">band</dimension>
    <dimension dim="2">kpoint</dimension>
    <dimension dim="3">spin</dimension>
    <field>eigene</field>
    <field>occ</field>
    <set>
     <set comment="spin 1">
      <set comment="kpoint 1">
       <r>  -28.3695    1.0000 </r>
       <r>  -13.8685    1.0000 </r>
       <r>  -11.2913    1.0000 </r>
       <r>  -11.0869    1.0000 </r>
       <r>  -10.9944    1.0000 </r>
       <r>  -10.0734    1.0000 </r>
       <r>   -8.5272    1.0000 </r>
       <r>   -8.1853    1.0000 </r>
       <r>   -7.6382    1.0000 </r>
       <r>   -7.4506    1.0000 </r>
       <r>   -7.3803    1.0000 </r>
       <r>   -7.2578    1.0000 </r>
       <r>   -7.2351    1.0000 </r>
       <r>   -7.0646    1.0000 </r>
       <r>   -7.0365    1.0000 </r>
       <r>   -6.8693    1.0000 </r>
       <r>   -6.7708    1.0000 </r>
       <r>   -6.7552    1.0000 </r>
       <r>   -6.6904    1.0000 </r>
       <r>   -6.6053    1.0000 </r>
       <r>   -6.5883    1.0000 </r>
       <r>   -6.5610    1.0000 </r>
       <r>   -6.4780    1.0000 </r>
       <r>   -6.4562    1.0000 </r>
       <r>   -6.4170    1.0000 </r>
       <r>   -6.3781    1.0000 </r>
       <r>   -6.3729    1.0000 </r>
       <r>   -6.2933    1.0000 </r>
       <r>   -6.2497    1.0000 </r>
       <r>   -6.2290    1.0000 </r>
       <r>   -6.1509    1.0000 </r>
       <r>   -6.1375    1.0000 </r>
       <r>   -6.0775    1.0000 </r>
       <r>   -6.0342    1.0000 </r>
       <r>   -5.9176    1.0000 </r>
       <r>   -5.8483    1.0000 </r>
       <r>   -5.8269    1.0000 </r>
       <r>   -5.6831    1.0000 </r>
       <r>   -5.6417    1.0000 </r>
       <r>   -5.6309    1.0000 </r>
       <r>   -5.5738    1.0000 </r>
       <r>   -5.5360    1.0000 </r>
       <r>   -5.5243    1.0000 </r>
       <r>   -5.4731    1.0000 </r>
       <r>   -5.4287    1.0000 </r>
       <r>   -5.4147    1.0000 </r>
       <r>   -5.3668    1.0000 </r>
       <r>   -5.3623    1.0000 </r>
       <r>   -5.3365    1.0000 </r>
       <r>   -5.3350    1.0000 </r>
       <r>   -5.3122    1.0000 </r>
       <r>   -5.2685    1.0000 </r>
       <r>   -5.2400    1.0000 </r>
       <r>   -5.2343    1.0000 </r>
       <r>   -5.2053    1.0000 </r>
       <r>   -5.1758    1.0000 </r>
       <r>   -5.1531    1.0000 </r>
       <r>   -5.1367    1.0000 </r>
       <r>   -5.1236    1.0000 </r>
       <r>   -5.0768    1.0000 </r>
       <r>   -5.0588    1.0000 </r>
       <r>   -5.0082    1.0000 </r>
       <r>   -5.0022    1.0000 </r>
       <r>   -4.9850    1.0000 </r>
       <r>   -4.9337    1.0000 </r>
       <r>   -4.9088    1.0000 </r>
       <r>   -4.8931    1.0000 </r>
       <r>   -4.8869    1.0000 </r>
       <r>   -4.8543    1.0000 </r>
       <r>   -4.8297    1.0000 </r>
       <r>   -4.8253    1.0000 </r>
       <r>   -4.7680    1.0000 </r>
       <r>   -4.7213    1.0000 </r>
       <r>   -4.5332    1.0000 </r>
       <r>   -4.1820    1.0000 </r>
       <r>   -4.1521    1.0000 </r>
       <r>   -3.5271    1.0000 </r>
       <r>   -3.0387   -0.0000 </r>
       <r>   -2.8956   -0.0000 </r>
       <r>   -2.5621   -0.0000 </r>
       <r>   -2.3883   -0.0000 </r>
       <r>   -2.0109   -0.0000 </r>
       <r>   -1.8708   -0.0000 </r>
       <r>   -1.7542   -0.0000 </r>
       <r>   -1.3984   -0.0000 </r>
       <r>   -1.0552   -0.0000 </r>
       <r>   -0.9570   -0.0000 </r>
       <r>   -0.7240   -0.0000 </r>
       <r>   -0.3812    0.0000 </r>
       <r>   -0.2625    0.0000 </r>
       <r>   -0.1260    0.0000 </r>
       <r>    0.1285    0.0000 </r>
      </set>
     </set>
     <set comment="spin 2">
      <set comment="kpoint 1">
       <r>  -28.3479    1.0000 </r>
       <r>  -13.8277    1.0000 </r>
       <r>  -11.2634    1.0000 </r>
       <r>  -11.0593    1.0000 </r>
       <r>  -10.9365    1.0000 </r>
       <r>  -10.0302    1.0000 </r>
       <r>   -8.5064    1.0000 </r>
       <r>   -8.1366    1.0000 </r>
       <r>   -7.5944    1.0000 </r>
       <r>   -7.4270    1.0000 </r>
       <r>   -7.3546    1.0000 </r>
       <r>   -7.2273    1.0000 </r>
       <r>   -7.1879    1.0000 </r>
       <r>   -7.0395    1.0000 </r>
       <r>   -7.0098    1.0000 </r>
       <r>   -6.8320    1.0000 </r>
       <r>   -6.7493    1.0000 </r>
       <r>   -6.7246    1.0000 </r>
       <r>   -6.6521    1.0000 </r>
       <r>   -6.5855    1.0000 </r>
       <r>   -6.5695    1.0000 </r>
       <r>   -6.5413    1.0000 </r>
       <r>   -6.4517    1.0000 </r>
       <r>   -6.4310    1.0000 </r>
       <r>   -6.3931    1.0000 </r>
       <r>   -6.3479    1.0000 </r>
       <r>   -6.3418    1.0000 </r>
       <r>   -6.2704    1.0000 </r>
       <r>   -6.2276    1.0000 </r>
       <r>   -6.2032    1.0000 </r>
       <r>   -6.1263    1.0000 </r>
       <r>   -6.1081    1.0000 </r>
       <r>   -6.0493    1.0000 </r>
       <r>   -6.0123    1.0000 </r>
       <r>   -5.8972    1.0000 </r>
       <r>   -5.8246    1.0000 </r>
       <r>   -5.7931    1.0000 </r>
       <r>   -5.6637    1.0000 </r>
       <r>   -5.6126    1.0000 </r>
       <r>   -5.6090    1.0000 </r>
       <r>   -5.5503    1.0000 </r>
       <r>   -5.5096    1.0000 </r>
       <r>   -5.4981    1.0000 </r>
       <r>   -5.4444    1.0000 </r>
       <r>   -5.4068    1.0000 </r>
       <r>   -5.3736    1.0000 </r>
       <r>   -5.3427    1.0000 </r>
       <r>   -5.3407    1.0000 </r>
       <r>   -5.3132    1.0000 </r>
       <r>   -5.3081    1.0000 </r>
       <r>   -5.2821    1.0000 </r>
       <r>   -5.2471    1.0000 </r>
       <r>   -5.2150    1.0000 </r>
       <r>   -5.2121    1.0000 </r>
       <r>   -5.1773    1.0000 </r>
       <r>   -5.1508    1.0000 </r>
       <r>   -5.1345    1.0000 </r>
       <r>   -5.1204    1.0000 </r>
       <r>   -5.1001    1.0000 </r>
       <r>   -5.0434    1.0000 </r>
       <r>   -5.0350    1.0000 </r>
       <r>   -4.9855    1.0000 </r>
       <r>   -4.9825    1.0000 </r>
       <r>   -4.9551    1.0000 </r>
       <r>   -4.9076    1.0000 </r>
       <r>   -4.8808    1.0000 </r>
       <r>   -4.8687    1.0000 </r>
       <r>   -4.8455    1.0000 </r>
       <r>   -4.8257    1.0000 </r>
       <r>   -4.7951    1.0000 </r>
       <r>   -4.7929    1.0000 </r>
       <r>   -4.7434    1.0000 </r>
       <r>   -4.6928    1.0000 </r>
       <r>   -4.4901    1.0000 </r>
       <r>   -4.1217    1.0102 </r>
       <r>   -4.1123    0.9898 </r>
       <r>   -3.3160   -0.0000 </r>
       <r>   -2.9893   -0.0000 </r>
       <r>   -2.8467   -0.0000 </r>
       <r>   -2.4948   -0.0000 </r>
       <r>   -2.2941   -0.0000 </r>
       <r>   -1.9810   -0.0000 </r>
       <r>   -1.7985   -0.0000 </r>
       <r>   -1.6864   -0.0000 </r>
       <r>   -1.2798    0.0000 </r>
       <r>   -0.9321    0.0000 </r>
       <r>   -0.8753    0.0000 </r>
       <r>   -0.6448    0.0000 </r>
       <r>   -0.2799    0.0000 </r>
       <r>   -0.2213    0.0000 </r>
       <r>   -0.0545    0.0000 </r>
       <r>    0.1638    0.0000 </r>
      </set>
     </set>
    </set>
   </array>
  </eigenvalues>
  <separator name="orbital magnetization" >
   <v name="MAGDIPOLOUT">      0.00000000      0.00000000      0.00000000</v>
  </separator>
  <dos>
   <i name="efermi">     -4.03236095 </i>
   <total>
    <array>
     <dimension dim="1">gridpoints</dimension>
     <dimension dim="2">spin</dimension>
     <field>energy</field>
     <field>total</field>
     <field>integrated</field>
     <set>
      <set comment="spin 1">
       <r>   -29.7962     0.0000     0.0000 </r>
       <r>   -29.6915     0.0000     0.0000 </r>
       <r>   -29.5869     0.0000     0.0000 </r>
       <r>   -29.4823     0.0000     0.0000 </r>
       <r>   -29.3777     0.0000     0.0000 </r>
       <r>   -29.2730    -0.0000    -0.0000 </r>
       <r>   -29.1684    -0.0000    -0.0000 </r>
       <r>   -29.0638    -0.0000    -0.0000 </r>
       <r>   -28.9592    -0.0000    -0.0000 </r>
       <r>   -28.8546    -0.0000    -0.0000 </r>
       <r>   -28.7499    -0.0000    -0.0000 </r>
       <r>   -28.6453    -0.0065    -0.0007 </r>
       <r>   -28.5407    -0.3382    -0.0361 </r>
       <r>   -28.4361     1.3510     0.1053 </r>
       <r>   -28.3314    14.2405     1.5952 </r>
       <r>   -28.2268     4.4575     2.0615 </r>
       <r>   -28.1222    -0.5630     2.0026 </r>
       <r>   -28.0176    -0.0249     2.0000 </r>
       <r>   -27.9130    -0.0001     2.0000 </r>
       <r>   -27.8083    -0.0000     2.0000 </r>
       <r>   -27.7037    -0.0000     2.0000 </r>
       <r>   -27.5991     0.0000     2.0000 </r>
       <r>   -27.4945     0.0000     2.0000 </r>
       <r>   -27.3898     0.0000     2.0000 </r>
       <r>   -27.2852     0.0000     2.0000 </r>
       <r>   -27.1806     0.0000     2.0000 </r>
       <r>   -27.0760     0.0000     2.0000 </r>
       <r>   -26.9714     0.0000     2.0000 </r>
       <r>   -26.8667     0.0000     2.0000 </r>
       <r>   -26.7621     0.0000     2.0000 </r>
       <r>   -26.6575     0.0000     2.0000 </r>
       <r>   -26.5529     0.0000     2.0000 </r>
       <r>   -26.4482     0.0000     2.0000 </r>
       <r>   -26.3436     0.0000     2.0000 </r>
       <r>   -26.2390     0.0000     2.0000 </r>
       <r>   -26.1344     0.0000     2.0000 </r>
       <r>   -26.0298     0.0000     2.0000 </r>
       <r>   -25.9251     0.0000     2.0000 </r>
       <r>   -25.8205     0.0000     2.0000 </r>
       <r>   -25.7159     0.0000     2.0000 </r>
       <r>   -25.6113     0.0000     2.0000 </r>
       <r>   -25.5066     0.0000     2.0000 </r>
       <r>   -25.4020     0.0000     2.0000 </r>
       <r>   -25.2974     0.0000     2.0000 </r>
       <r>   -25.1928     0.0000     2.0000 </r>
       <r>   -25.0882     0.0000     2.0000 </r>
       <r>   -24.9835     0.0000     2.0000 </r>
       <r>   -24.8789     0.0000     2.0000 </r>
       <r>   -24.7743     0.0000     2.0000 </r>
       <r>   -24.6697     0.0000     2.0000 </r>
       <r>   -24.5650     0.0000     2.0000 </r>
       <r>   -24.4604     0.0000     2.0000 </r>
       <r>   -24.3558     0.0000     2.0000 </r>
       <r>   -24.2512     0.0000     2.0000 </r>
       <r>   -24.1466     0.0000     2.0000 </r>
       <r>   -24.0419     0.0000     2.0000 </r>
       <r>   -23.9373     0.0000     2.0000 </r>
       <r>   -23.8327     0.0000     2.0000 </r>
       <r>   -23.7281     0.0000     2.0000 </r>
       <r>   -23.6234     0.0000     2.0000 </r>
       <r>   -23.5188     0.0000     2.0000 </r>
       <r>   -23.4142     0.0000     2.0000 </r>
       <r>   -23.3096     0.0000     2.0000 </r>
       <r>   -23.2050     0.0000     2.0000 </r>
       <r>   -23.1003     0.0000     2.0000 </r>
       <r>   -22.9957     0.0000     2.0000 </r>
       <r>   -22.8911     0.0000     2.0000 </r>
       <r>   -22.7865     0.0000     2.0000 </r>
       <r>   -22.6818     0.0000     2.0000 </r>
       <r>   -22.5772     0.0000     2.0000 </r>
       <r>   -22.4726     0.0000     2.0000 </r>
       <r>   -22.3680     0.0000     2.0000 </r>
       <r>   -22.2634     0.0000     2.0000 </r>
       <r>   -22.1587     0.0000     2.0000 </r>
       <r>   -22.0541     0.0000     2.0000 </r>
       <r>   -21.9495     0.0000     2.0000 </r>
       <r>   -21.8449     0.0000     2.0000 </r>
       <r>   -21.7402     0.0000     2.0000 </r>
       <r>   -21.6356     0.0000     2.0000 </r>
       <r>   -21.5310     0.0000     2.0000 </r>
       <r>   -21.4264     0.0000     2.0000 </r>
       <r>   -21.3218     0.0000     2.0000 </r>
       <r>   -21.2171     0.0000     2.0000 </r>
       <r>   -21.1125     0.0000     2.0000 </r>
       <r>   -21.0079     0.0000     2.0000 </r>
       <r>   -20.9033     0.0000     2.0000 </r>
       <r>   -20.7986     0.0000     2.0000 </r>
       <r>   -20.6940     0.0000     2.0000 </r>
       <r>   -20.5894     0.0000     2.0000 </r>
       <r>   -20.4848     0.0000     2.0000 </r>
       <r>   -20.3802     0.0000     2.0000 </r>
       <r>   -20.2755     0.0000     2.0000 </r>
       <r>   -20.1709     0.0000     2.0000 </r>
       <r>   -20.0663     0.0000     2.0000 </r>
       <r>   -19.9617     0.0000     2.0000 </r>
       <r>   -19.8570     0.0000     2.0000 </r>
       <r>   -19.7524     0.0000     2.0000 </r>
       <r>   -19.6478     0.0000     2.0000 </r>
       <r>   -19.5432     0.0000     2.0000 </r>
       <r>   -19.4386     0.0000     2.0000 </r>
       <r>   -19.3339     0.0000     2.0000 </r>
       <r>   -19.2293     0.0000     2.0000 </r>
       <r>   -19.1247     0.0000     2.0000 </r>
       <r>   -19.0201     0.0000     2.0000 </r>
       <r>   -18.9154     0.0000     2.0000 </r>
       <r>   -18.8108     0.0000     2.0000 </r>
       <r>   -18.7062     0.0000     2.0000 </r>
       <r>   -18.6016     0.0000     2.0000 </r>
       <r>   -18.4970     0.0000     2.0000 </r>
       <r>   -18.3923     0.0000     2.0000 </r>
       <r>   -18.2877     0.0000     2.0000 </r>
       <r>   -18.1831     0.0000     2.0000 </r>
       <r>   -18.0785     0.0000     2.0000 </r>
       <r>   -17.9738     0.0000     2.0000 </r>
       <r>   -17.8692     0.0000     2.0000 </r>
       <r>   -17.7646     0.0000     2.0000 </r>
       <r>   -17.6600     0.0000     2.0000 </r>
       <r>   -17.5554     0.0000     2.0000 </r>
       <r>   -17.4507     0.0000     2.0000 </r>
       <r>   -17.3461     0.0000     2.0000 </r>
       <r>   -17.2415     0.0000     2.0000 </r>
       <r>   -17.1369     0.0000     2.0000 </r>
       <r>   -17.0322     0.0000     2.0000 </r>
       <r>   -16.9276     0.0000     2.0000 </r>
       <r>   -16.8230     0.0000     2.0000 </r>
       <r>   -16.7184     0.0000     2.0000 </r>
       <r>   -16.6138     0.0000     2.0000 </r>
       <r>   -16.5091     0.0000     2.0000 </r>
       <r>   -16.4045     0.0000     2.0000 </r>
       <r>   -16.2999     0.0000     2.0000 </r>
       <r>   -16.1953     0.0000     2.0000 </r>
       <r>   -16.0906     0.0000     2.0000 </r>
       <r>   -15.9860     0.0000     2.0000 </r>
       <r>   -15.8814     0.0000     2.0000 </r>
       <r>   -15.7768     0.0000     2.0000 </r>
       <r>   -15.6722     0.0000     2.0000 </r>
       <r>   -15.5675     0.0000     2.0000 </r>
       <r>   -15.4629     0.0000     2.0000 </r>
       <r>   -15.3583     0.0000     2.0000 </r>
       <r>   -15.2537     0.0000     2.0000 </r>
       <r>   -15.1490     0.0000     2.0000 </r>
       <r>   -15.0444     0.0000     2.0000 </r>
       <r>   -14.9398     0.0000     2.0000 </r>
       <r>   -14.8352     0.0000     2.0000 </r>
       <r>   -14.7306    -0.0000     2.0000 </r>
       <r>   -14.6259    -0.0000     2.0000 </r>
       <r>   -14.5213    -0.0000     2.0000 </r>
       <r>   -14.4167    -0.0000     2.0000 </r>
       <r>   -14.3121    -0.0000     2.0000 </r>
       <r>   -14.2074    -0.0002     2.0000 </r>
       <r>   -14.1028    -0.0431     1.9955 </r>
       <r>   -13.9982    -0.6205     1.9306 </r>
       <r>   -13.8936     6.2963     2.5893 </r>
       <r>   -13.7890    13.2689     3.9775 </r>
       <r>   -13.6843     0.4616     4.0258 </r>
       <r>   -13.5797    -0.2433     4.0003 </r>
       <r>   -13.4751    -0.0033     4.0000 </r>
       <r>   -13.3705    -0.0000     4.0000 </r>
       <r>   -13.2658    -0.0000     4.0000 </r>
       <r>   -13.1612    -0.0000     4.0000 </r>
       <r>   -13.0566     0.0000     4.0000 </r>
       <r>   -12.9520     0.0000     4.0000 </r>
       <r>   -12.8474     0.0000     4.0000 </r>
       <r>   -12.7427     0.0000     4.0000 </r>
       <r>   -12.6381     0.0000     4.0000 </r>
       <r>   -12.5335     0.0000     4.0000 </r>
       <r>   -12.4289     0.0000     4.0000 </r>
       <r>   -12.3242     0.0000     4.0000 </r>
       <r>   -12.2196     0.0000     4.0000 </r>
       <r>   -12.1150    -0.0000     4.0000 </r>
       <r>   -12.0104    -0.0000     4.0000 </r>
       <r>   -11.9058    -0.0000     4.0000 </r>
       <r>   -11.8011    -0.0000     4.0000 </r>
       <r>   -11.6965    -0.0000     4.0000 </r>
       <r>   -11.5919    -0.0017     3.9998 </r>
       <r>   -11.4873    -0.1717     3.9819 </r>
       <r>   -11.3826    -0.0913     3.9723 </r>
       <r>   -11.2780    11.7372     5.2003 </r>
       <r>   -11.1734     7.9381     6.0308 </r>
       <r>   -11.0688    12.7031     7.3598 </r>
       <r>   -10.9642    21.0111     9.5580 </r>
       <r>   -10.8595     4.9214    10.0729 </r>
       <r>   -10.7549    -0.6619    10.0037 </r>
       <r>   -10.6503    -0.0351    10.0000 </r>
       <r>   -10.5457    -0.0001    10.0000 </r>
       <r>   -10.4410    -0.0000    10.0000 </r>
       <r>   -10.3364    -0.0121     9.9987 </r>
       <r>   -10.2318    -0.4429     9.9524 </r>
       <r>   -10.1272     2.5543    10.2196 </r>
       <r>   -10.0226    14.6209    11.7493 </r>
       <r>    -9.9179     2.8773    12.0503 </r>
       <r>    -9.8133    -0.4672    12.0015 </r>
       <r>    -9.7087    -0.0139    12.0000 </r>
       <r>    -9.6041    -0.0000    12.0000 </r>
       <r>    -9.4994    -0.0000    12.0000 </r>
       <r>    -9.3948    -0.0000    12.0000 </r>
       <r>    -9.2902    -0.0000    12.0000 </r>
       <r>    -9.1856    -0.0000    12.0000 </r>
       <r>    -9.0810    -0.0000    12.0000 </r>
       <r>    -8.9763    -0.0000    12.0000 </r>
       <r>    -8.8717    -0.0001    12.0000 </r>
       <r>    -8.7671    -0.0342    11.9964 </r>
       <r>    -8.6625    -0.6032    11.9333 </r>
       <r>    -8.5578     5.4851    12.5072 </r>
       <r>    -8.4532    13.7423    13.9449 </r>
       <r>    -8.3486     0.4008    13.9868 </r>
       <r>    -8.2440     1.7761    14.1727 </r>
       <r>    -8.1394    14.5438    15.6943 </r>
       <r>    -8.0347     3.4458    16.0548 </r>
       <r>    -7.9301    -0.5089    16.0015 </r>
       <r>    -7.8255    -0.2398    15.9764 </r>
       <r>    -7.7209     0.2804    16.0058 </r>
       <r>    -7.6162    12.5235    17.3160 </r>
       <r>    -7.5116     7.9703    18.1499 </r>
       <r>    -7.4070    19.0744    20.1455 </r>
       <r>    -7.3024    21.9644    22.4435 </r>
       <r>    -7.1978    27.7098    25.3425 </r>
       <r>    -7.0931    14.1842    26.8265 </r>
       <r>    -6.9885    26.4713    29.5960 </r>
       <r>    -6.8839    10.3447    30.6783 </r>
       <r>    -6.7793    26.0708    33.4059 </r>
       <r>    -6.6746    37.0884    37.2861 </r>
       <r>    -6.5700    41.5319    41.6313 </r>
       <r>    -6.4654    45.7850    46.4214 </r>
       <r>    -6.3608    56.9033    52.3748 </r>
       <r>    -6.2562    44.9267    57.0751 </r>
       <r>    -6.1515    45.3760    61.8224 </r>
       <r>    -6.0469    42.9101    66.3118 </r>
       <r>    -5.9423    22.0328    68.6169 </r>
       <r>    -5.8377    31.5182    71.9144 </r>
       <r>    -5.7330    22.1330    74.2300 </r>
       <r>    -5.6284    37.2033    78.1223 </r>
       <r>    -5.5238    57.3931    84.1269 </r>
       <r>    -5.4192    59.0923    90.3093 </r>
       <r>    -5.3146    87.5498    99.4689 </r>
       <r>    -5.2099    86.2463   108.4922 </r>
       <r>    -5.1053    84.1201   117.2930 </r>
       <r>    -5.0007    71.0523   124.7267 </r>
       <r>    -4.8961    81.6212   133.2661 </r>
       <r>    -4.7914    83.0930   141.9594 </r>
       <r>    -4.6868    35.6078   145.6848 </r>
       <r>    -4.5822     6.5114   146.3661 </r>
       <r>    -4.4776    13.7200   147.8015 </r>
       <r>    -4.3730     2.0608   148.0171 </r>
       <r>    -4.2683    -0.9032   147.9226 </r>
       <r>    -4.1637    20.9015   150.1093 </r>
       <r>    -4.0591    19.0608   152.1035 </r>
       <r>    -3.9545    -0.7677   152.0232 </r>
       <r>    -3.8498    -0.2203   152.0001 </r>
       <r>    -3.7452    -0.0828   151.9915 </r>
       <r>    -3.6406    -0.5698   151.9319 </r>
       <r>    -3.5360     8.7762   152.8501 </r>
       <r>    -3.4314    11.3757   154.0402 </r>
       <r>    -3.3267    -0.2366   154.0155 </r>
       <r>    -3.2221    -0.3984   153.9738 </r>
       <r>    -3.1175     0.4320   154.0190 </r>
       <r>    -3.0129    12.7405   155.3519 </r>
       <r>    -2.9082    14.3922   156.8577 </r>
       <r>    -2.8036    11.2104   158.0305 </r>
       <r>    -2.6990    -0.7500   157.9520 </r>
       <r>    -2.5944     4.9568   158.4706 </r>
       <r>    -2.4898    13.4920   159.8822 </r>
       <r>    -2.3851    11.4915   161.0845 </r>
       <r>    -2.2805     9.3476   162.0624 </r>
       <r>    -2.1759    -0.8945   161.9688 </r>
       <r>    -2.0713     1.6418   162.1406 </r>
       <r>    -1.9666    14.1620   163.6223 </r>
       <r>    -1.8620    14.5138   165.1407 </r>
       <r>    -1.7574    17.9294   167.0165 </r>
       <r>    -1.6528     9.9719   168.0598 </r>
       <r>    -1.5482    -0.9771   167.9576 </r>
       <r>    -1.4435     3.4220   168.3156 </r>
       <r>    -1.3389    14.5217   169.8349 </r>
       <r>    -1.2343     1.6944   170.0122 </r>
       <r>    -1.1297     0.0452   170.0169 </r>
       <r>    -1.0250    14.9355   171.5795 </r>
       <r>    -0.9204    19.5532   173.6252 </r>
       <r>    -0.8158     3.9418   174.0376 </r>
       <r>    -0.7112    11.2851   175.2183 </r>
       <r>    -0.6066     8.0799   176.0636 </r>
       <r>    -0.5019    -1.2497   175.9329 </r>
       <r>    -0.3973     6.9818   176.6633 </r>
       <r>    -0.2927    17.4702   178.4911 </r>
       <r>    -0.1881    15.4807   180.1107 </r>
       <r>    -0.0834    14.9300   181.6727 </r>
       <r>     0.0212     3.0892   181.9959 </r>
       <r>     0.1258     9.1859   182.9570 </r>
       <r>     0.2304    10.4863   184.0541 </r>
       <r>     0.3350    -0.3940   184.0129 </r>
       <r>     0.4397    -0.1219   184.0001 </r>
       <r>     0.5443    -0.0009   184.0000 </r>
       <r>     0.6489    -0.0000   184.0000 </r>
       <r>     0.7535    -0.0000   184.0000 </r>
       <r>     0.8582     0.0000   184.0000 </r>
       <r>     0.9628     0.0000   184.0000 </r>
       <r>     1.0674     0.0000   184.0000 </r>
       <r>     1.1720     0.0000   184.0000 </r>
       <r>     1.2766     0.0000   184.0000 </r>
       <r>     1.3813     0.0000   184.0000 </r>
       <r>     1.4859     0.0000   184.0000 </r>
       <r>     1.5905     0.0000   184.0000 </r>
      </set>
      <set comment="spin 2">
       <r>   -29.7962     0.0000     0.0000 </r>
       <r>   -29.6915     0.0000     0.0000 </r>
       <r>   -29.5869     0.0000     0.0000 </r>
       <r>   -29.4823     0.0000     0.0000 </r>
       <r>   -29.3777     0.0000     0.0000 </r>
       <r>   -29.2730     0.0000     0.0000 </r>
       <r>   -29.1684    -0.0000    -0.0000 </r>
       <r>   -29.0638    -0.0000    -0.0000 </r>
       <r>   -28.9592    -0.0000    -0.0000 </r>
       <r>   -28.8546    -0.0000    -0.0000 </r>
       <r>   -28.7499    -0.0000    -0.0000 </r>
       <r>   -28.6453    -0.0021    -0.0002 </r>
       <r>   -28.5407    -0.1893    -0.0200 </r>
       <r>   -28.4361     0.0351    -0.0163 </r>
       <r>   -28.3314    12.3305     1.2737 </r>
       <r>   -28.2268     7.6193     2.0709 </r>
       <r>   -28.1222    -0.6160     2.0064 </r>
       <r>   -28.0176    -0.0609     2.0000 </r>
       <r>   -27.9130    -0.0003     2.0000 </r>
       <r>   -27.8083    -0.0000     2.0000 </r>
       <r>   -27.7037    -0.0000     2.0000 </r>
       <r>   -27.5991     0.0000     2.0000 </r>
       <r>   -27.4945     0.0000     2.0000 </r>
       <r>   -27.3898     0.0000     2.0000 </r>
       <r>   -27.2852     0.0000     2.0000 </r>
       <r>   -27.1806     0.0000     2.0000 </r>
       <r>   -27.0760     0.0000     2.0000 </r>
       <r>   -26.9714     0.0000     2.0000 </r>
       <r>   -26.8667     0.0000     2.0000 </r>
       <r>   -26.7621     0.0000     2.0000 </r>
       <r>   -26.6575     0.0000     2.0000 </r>
       <r>   -26.5529     0.0000     2.0000 </r>
       <r>   -26.4482     0.0000     2.0000 </r>
       <r>   -26.3436     0.0000     2.0000 </r>
       <r>   -26.2390     0.0000     2.0000 </r>
       <r>   -26.1344     0.0000     2.0000 </r>
       <r>   -26.0298     0.0000     2.0000 </r>
       <r>   -25.9251     0.0000     2.0000 </r>
       <r>   -25.8205     0.0000     2.0000 </r>
       <r>   -25.7159     0.0000     2.0000 </r>
       <r>   -25.6113     0.0000     2.0000 </r>
       <r>   -25.5066     0.0000     2.0000 </r>
       <r>   -25.4020     0.0000     2.0000 </r>
       <r>   -25.2974     0.0000     2.0000 </r>
       <r>   -25.1928     0.0000     2.0000 </r>
       <r>   -25.0882     0.0000     2.0000 </r>
       <r>   -24.9835     0.0000     2.0000 </r>
       <r>   -24.8789     0.0000     2.0000 </r>
       <r>   -24.7743     0.0000     2.0000 </r>
       <r>   -24.6697     0.0000     2.0000 </r>
       <r>   -24.5650     0.0000     2.0000 </r>
       <r>   -24.4604     0.0000     2.0000 </r>
       <r>   -24.3558     0.0000     2.0000 </r>
       <r>   -24.2512     0.0000     2.0000 </r>
       <r>   -24.1466     0.0000     2.0000 </r>
       <r>   -24.0419     0.0000     2.0000 </r>
       <r>   -23.9373     0.0000     2.0000 </r>
       <r>   -23.8327     0.0000     2.0000 </r>
       <r>   -23.7281     0.0000     2.0000 </r>
       <r>   -23.6234     0.0000     2.0000 </r>
       <r>   -23.5188     0.0000     2.0000 </r>
       <r>   -23.4142     0.0000     2.0000 </r>
       <r>   -23.3096     0.0000     2.0000 </r>
       <r>   -23.2050     0.0000     2.0000 </r>
       <r>   -23.1003     0.0000     2.0000 </r>
       <r>   -22.9957     0.0000     2.0000 </r>
       <r>   -22.8911     0.0000     2.0000 </r>
       <r>   -22.7865     0.0000     2.0000 </r>
       <r>   -22.6818     0.0000     2.0000 </r>
       <r>   -22.5772     0.0000     2.0000 </r>
       <r>   -22.4726     0.0000     2.0000 </r>
       <r>   -22.3680     0.0000     2.0000 </r>
       <r>   -22.2634     0.0000     2.0000 </r>
       <r>   -22.1587     0.0000     2.0000 </r>
       <r>   -22.0541     0.0000     2.0000 </r>
       <r>   -21.9495     0.0000     2.0000 </r>
       <r>   -21.8449     0.0000     2.0000 </r>
       <r>   -21.7402     0.0000     2.0000 </r>
       <r>   -21.6356     0.0000     2.0000 </r>
       <r>   -21.5310     0.0000     2.0000 </r>
       <r>   -21.4264     0.0000     2.0000 </r>
       <r>   -21.3218     0.0000     2.0000 </r>
       <r>   -21.2171     0.0000     2.0000 </r>
       <r>   -21.1125     0.0000     2.0000 </r>
       <r>   -21.0079     0.0000     2.0000 </r>
       <r>   -20.9033     0.0000     2.0000 </r>
       <r>   -20.7986     0.0000     2.0000 </r>
       <r>   -20.6940     0.0000     2.0000 </r>
       <r>   -20.5894     0.0000     2.0000 </r>
       <r>   -20.4848     0.0000     2.0000 </r>
       <r>   -20.3802     0.0000     2.0000 </r>
       <r>   -20.2755     0.0000     2.0000 </r>
       <r>   -20.1709     0.0000     2.0000 </r>
       <r>   -20.0663     0.0000     2.0000 </r>
       <r>   -19.9617     0.0000     2.0000 </r>
       <r>   -19.8570     0.0000     2.0000 </r>
       <r>   -19.7524     0.0000     2.0000 </r>
       <r>   -19.6478     0.0000     2.0000 </r>
       <r>   -19.5432     0.0000     2.0000 </r>
       <r>   -19.4386     0.0000     2.0000 </r>
       <r>   -19.3339     0.0000     2.0000 </r>
       <r>   -19.2293     0.0000     2.0000 </r>
       <r>   -19.1247     0.0000     2.0000 </r>
       <r>   -19.0201     0.0000     2.0000 </r>
       <r>   -18.9154     0.0000     2.0000 </r>
       <r>   -18.8108     0.0000     2.0000 </r>
       <r>   -18.7062     0.0000     2.0000 </r>
       <r>   -18.6016     0.0000     2.0000 </r>
       <r>   -18.4970     0.0000     2.0000 </r>
       <r>   -18.3923     0.0000     2.0000 </r>
       <r>   -18.2877     0.0000     2.0000 </r>
       <r>   -18.1831     0.0000     2.0000 </r>
       <r>   -18.0785     0.0000     2.0000 </r>
       <r>   -17.9738     0.0000     2.0000 </r>
       <r>   -17.8692     0.0000     2.0000 </r>
       <r>   -17.7646     0.0000     2.0000 </r>
       <r>   -17.6600     0.0000     2.0000 </r>
       <r>   -17.5554     0.0000     2.0000 </r>
       <r>   -17.4507     0.0000     2.0000 </r>
       <r>   -17.3461     0.0000     2.0000 </r>
       <r>   -17.2415     0.0000     2.0000 </r>
       <r>   -17.1369     0.0000     2.0000 </r>
       <r>   -17.0322     0.0000     2.0000 </r>
       <r>   -16.9276     0.0000     2.0000 </r>
       <r>   -16.8230     0.0000     2.0000 </r>
       <r>   -16.7184     0.0000     2.0000 </r>
       <r>   -16.6138     0.0000     2.0000 </r>
       <r>   -16.5091     0.0000     2.0000 </r>
       <r>   -16.4045     0.0000     2.0000 </r>
       <r>   -16.2999     0.0000     2.0000 </r>
       <r>   -16.1953     0.0000     2.0000 </r>
       <r>   -16.0906     0.0000     2.0000 </r>
       <r>   -15.9860     0.0000     2.0000 </r>
       <r>   -15.8814     0.0000     2.0000 </r>
       <r>   -15.7768     0.0000     2.0000 </r>
       <r>   -15.6722     0.0000     2.0000 </r>
       <r>   -15.5675     0.0000     2.0000 </r>
       <r>   -15.4629     0.0000     2.0000 </r>
       <r>   -15.3583     0.0000     2.0000 </r>
       <r>   -15.2537     0.0000     2.0000 </r>
       <r>   -15.1490     0.0000     2.0000 </r>
       <r>   -15.0444     0.0000     2.0000 </r>
       <r>   -14.9398     0.0000     2.0000 </r>
       <r>   -14.8352     0.0000     2.0000 </r>
       <r>   -14.7306    -0.0000     2.0000 </r>
       <r>   -14.6259    -0.0000     2.0000 </r>
       <r>   -14.5213    -0.0000     2.0000 </r>
       <r>   -14.4167    -0.0000     2.0000 </r>
       <r>   -14.3121    -0.0000     2.0000 </r>
       <r>   -14.2074    -0.0000     2.0000 </r>
       <r>   -14.1028    -0.0067     1.9993 </r>
       <r>   -13.9982    -0.3438     1.9633 </r>
       <r>   -13.8936     1.4096     2.1108 </r>
       <r>   -13.7890    14.2776     3.6046 </r>
       <r>   -13.6843     4.3623     4.0609 </r>
       <r>   -13.5797    -0.5584     4.0025 </r>
       <r>   -13.4751    -0.0241     4.0000 </r>
       <r>   -13.3705    -0.0001     4.0000 </r>
       <r>   -13.2658    -0.0000     4.0000 </r>
       <r>   -13.1612    -0.0000     4.0000 </r>
       <r>   -13.0566     0.0000     4.0000 </r>
       <r>   -12.9520     0.0000     4.0000 </r>
       <r>   -12.8474     0.0000     4.0000 </r>
       <r>   -12.7427     0.0000     4.0000 </r>
       <r>   -12.6381     0.0000     4.0000 </r>
       <r>   -12.5335     0.0000     4.0000 </r>
       <r>   -12.4289     0.0000     4.0000 </r>
       <r>   -12.3242     0.0000     4.0000 </r>
       <r>   -12.2196     0.0000     4.0000 </r>
       <r>   -12.1150    -0.0000     4.0000 </r>
       <r>   -12.0104    -0.0000     4.0000 </r>
       <r>   -11.9058    -0.0000     4.0000 </r>
       <r>   -11.8011    -0.0000     4.0000 </r>
       <r>   -11.6965    -0.0000     4.0000 </r>
       <r>   -11.5919    -0.0003     4.0000 </r>
       <r>   -11.4873    -0.0654     3.9931 </r>
       <r>   -11.3826    -0.6093     3.9294 </r>
       <r>   -11.2780     7.8191     4.7474 </r>
       <r>   -11.1734    11.4972     5.9503 </r>
       <r>   -11.0688     8.0346     6.7909 </r>
       <r>   -10.9642    17.1968     8.5901 </r>
       <r>   -10.8595    13.2842     9.9799 </r>
       <r>   -10.7549     0.4580    10.0278 </r>
       <r>   -10.6503    -0.2619    10.0004 </r>
       <r>   -10.5457    -0.0038    10.0000 </r>
       <r>   -10.4410    -0.0000    10.0000 </r>
       <r>   -10.3364    -0.0013     9.9999 </r>
       <r>   -10.2318    -0.1440     9.9848 </r>
       <r>   -10.1272    -0.2687     9.9567 </r>
       <r>   -10.0226    11.2107    11.1296 </r>
       <r>    -9.9179     8.9627    12.0673 </r>
       <r>    -9.8133    -0.5578    12.0089 </r>
       <r>    -9.7087    -0.0847    12.0001 </r>
       <r>    -9.6041    -0.0005    12.0000 </r>
       <r>    -9.4994    -0.0000    12.0000 </r>
       <r>    -9.3948    -0.0000    12.0000 </r>
       <r>    -9.2902    -0.0000    12.0000 </r>
       <r>    -9.1856    -0.0000    12.0000 </r>
       <r>    -9.0810    -0.0000    12.0000 </r>
       <r>    -8.9763    -0.0000    12.0000 </r>
       <r>    -8.8717    -0.0000    12.0000 </r>
       <r>    -8.7671    -0.0135    11.9986 </r>
       <r>    -8.6625    -0.4625    11.9502 </r>
       <r>    -8.5578     2.8136    12.2446 </r>
       <r>    -8.4532    14.6228    13.7744 </r>
       <r>    -8.3486     2.5143    14.0375 </r>
       <r>    -8.2440    -0.9417    13.9390 </r>
       <r>    -8.1394     9.6992    14.9537 </r>
       <r>    -8.0347    10.5164    16.0539 </r>
       <r>    -7.9301    -0.3927    16.0129 </r>
       <r>    -7.8255    -0.1713    15.9949 </r>
       <r>    -7.7209    -0.6274    15.9293 </r>
       <r>    -7.6162     6.5608    16.6157 </r>
       <r>    -7.5116    12.6791    17.9422 </r>
       <r>    -7.4070    15.3788    19.5512 </r>
       <r>    -7.3024    21.6081    21.8119 </r>
       <r>    -7.1978    23.7292    24.2945 </r>
       <r>    -7.0931    19.4513    26.3295 </r>
       <r>    -6.9885    26.1680    29.0673 </r>
       <r>    -6.8839    11.2156    30.2407 </r>
       <r>    -6.7793    20.6221    32.3982 </r>
       <r>    -6.6746    36.4305    36.2096 </r>
       <r>    -6.5700    42.7079    40.6778 </r>
       <r>    -6.4654    43.5796    45.2372 </r>
       <r>    -6.3608    53.5040    50.8349 </r>
       <r>    -6.2562    49.5107    56.0148 </r>
       <r>    -6.1515    44.1506    60.6340 </r>
       <r>    -6.0469    44.9784    65.3397 </r>
       <r>    -5.9423    27.7157    68.2394 </r>
       <r>    -5.8377    25.7942    70.9380 </r>
       <r>    -5.7330    27.5126    73.8165 </r>
       <r>    -5.6284    29.3436    76.8865 </r>
       <r>    -5.5238    55.3779    82.6802 </r>
       <r>    -5.4192    54.9991    88.4344 </r>
       <r>    -5.3146    82.2504    97.0396 </r>
       <r>    -5.2099    90.0566   106.4615 </r>
       <r>    -5.1053    86.4633   115.5075 </r>
       <r>    -5.0007    71.3126   122.9684 </r>
       <r>    -4.8961    73.5037   130.6585 </r>
       <r>    -4.7914    87.2942   139.7914 </r>
       <r>    -4.6868    51.5389   145.1835 </r>
       <r>    -4.5822     8.8317   146.1075 </r>
       <r>    -4.4776    10.6401   147.2207 </r>
       <r>    -4.3730     8.0838   148.0664 </r>
       <r>    -4.2683    -1.5960   147.8994 </r>
       <r>    -4.1637     6.6733   148.5976 </r>
       <r>    -4.0591    29.0473   151.6366 </r>
       <r>    -3.9545     4.3119   152.0877 </r>
       <r>    -3.8498    -0.8182   152.0021 </r>
       <r>    -3.7452    -0.0204   152.0000 </r>
       <r>    -3.6406    -0.0005   152.0000 </r>
       <r>    -3.5360    -0.0756   151.9920 </r>
       <r>    -3.4314    -0.5854   151.9308 </r>
       <r>    -3.3267     8.4930   152.8194 </r>
       <r>    -3.2221    11.5744   154.0303 </r>
       <r>    -3.1175    -0.8065   153.9459 </r>
       <r>    -3.0129     5.9938   154.5730 </r>
       <r>    -2.9082    14.9014   156.1320 </r>
       <r>    -2.8036    14.8375   157.6843 </r>
       <r>    -2.6990     3.4348   158.0437 </r>
       <r>    -2.5944    -0.8712   157.9526 </r>
       <r>    -2.4898    10.6525   159.0670 </r>
       <r>    -2.3851     9.2880   160.0388 </r>
       <r>    -2.2805    11.4609   161.2378 </r>
       <r>    -2.1759     7.7781   162.0516 </r>
       <r>    -2.0713    -0.6588   161.9827 </r>
       <r>    -1.9666    11.6465   163.2012 </r>
       <r>    -1.8620     9.2396   164.1678 </r>
       <r>    -1.7574    14.7882   165.7150 </r>
       <r>    -1.6528    17.9583   167.5938 </r>
       <r>    -1.5482     4.5140   168.0661 </r>
       <r>    -1.4435    -1.0091   167.9605 </r>
       <r>    -1.3389     1.9790   168.1676 </r>
       <r>    -1.2343    14.5339   169.6881 </r>
       <r>    -1.1297     3.3253   170.0360 </r>
       <r>    -1.0250    -1.1670   169.9140 </r>
       <r>    -0.9204    15.2690   171.5114 </r>
       <r>    -0.8158    22.5360   173.8692 </r>
       <r>    -0.7112     2.7477   174.1567 </r>
       <r>    -0.6066    13.7813   175.5985 </r>
       <r>    -0.5019     4.3488   176.0535 </r>
       <r>    -0.3973    -1.4619   175.9005 </r>
       <r>    -0.2927     9.0988   176.8525 </r>
       <r>    -0.1881    25.2123   179.4902 </r>
       <r>    -0.0834    10.7286   180.6127 </r>
       <r>     0.0212    12.2879   181.8983 </r>
       <r>     0.1258     5.1156   182.4335 </r>
       <r>     0.2304    13.9708   183.8951 </r>
       <r>     0.3350     1.3470   184.0361 </r>
       <r>     0.4397    -0.3382   184.0007 </r>
       <r>     0.5443    -0.0065   184.0000 </r>
       <r>     0.6489    -0.0000   184.0000 </r>
       <r>     0.7535    -0.0000   184.0000 </r>
       <r>     0.8582    -0.0000   184.0000 </r>
       <r>     0.9628     0.0000   184.0000 </r>
       <r>     1.0674     0.0000   184.0000 </r>
       <r>     1.1720     0.0000   184.0000 </r>
       <r>     1.2766     0.0000   184.0000 </r>
       <r>     1.3813     0.0000   184.0000 </r>
       <r>     1.4859     0.0000   184.0000 </r>
       <r>     1.5905     0.0000   184.0000 </r>
      </set>
     </set>
    </array>
   </total>
  </dos>
 </calculation>
 <structure name="finalpos" >
  <crystal>
   <varray name="basis" >
    <v>      15.00000000       0.00000000       0.00000000 </v>
    <v>       0.00000000      15.00000000       0.00000000 </v>
    <v>       0.00000000       0.00000000      15.00000000 </v>
   </varray>
   <i name="volume">   3375.00000000 </i>
   <varray name="rec_basis" >
    <v>       0.06666667       0.00000000       0.00000000 </v>
    <v>       0.00000000       0.06666667       0.00000000 </v>
    <v>       0.00000000       0.00000000       0.06666667 </v>
   </varray>
  </crystal>
  <varray name="positions" >
   <v>       0.28933733       0.41709133       0.55302333 </v>
   <v>       0.37614000       0.54882533       0.48886467 </v>
   <v>       0.39613000       0.29238067       0.56613067 </v>
   <v>       0.53649600       0.50960733       0.47959400 </v>
   <v>       0.54756800       0.34467667       0.52844267 </v>
   <v>       0.44877267       0.43917400       0.61563533 </v>
   <v>       0.41540600       0.39924467       0.44602933 </v>
   <v>       0.22781533       0.56895333       0.54842533 </v>
   <v>       0.33151533       0.54467267       0.65688867 </v>
   <v>       0.34951200       0.68442667       0.57165733 </v>
   <v>       0.48820067       0.66547600       0.47770933 </v>
   <v>       0.62559000       0.47991067       0.60917400 </v>
   <v>       0.48393667       0.59338733       0.61422067 </v>
   <v>       0.74090667       0.48902200       0.64377867 </v>
   <v>       0.81820667       0.49253800       0.64817000 </v>
  </varray>
 </structure>
</modeling>
