 vasp.5.4.4.18Apr17-6-g9f103f2a35 (build May 08 2019 13:49:07) complex          
  
 executed on             LinuxIFC date 2019.11.13  14:07:06
 running on   24 total cores
 distrk:  each k-point on   24 cores,    1 groups
 distr:  one band on NCORES_PER_BAND=   6 cores,    4 groups


--------------------------------------------------------------------------------------------------------


 INCAR:
 POTCAR:    PAW_PBE Cu 22Jun2005                  
 POTCAR:    PAW_PBE C 08Apr2002                   
 POTCAR:    PAW_PBE O 08Apr2002                   
 POTCAR:    PAW_PBE Cu 22Jun2005                  
   VRHFIN =Cu: d10 p1                                                           
   LEXCH  = PE                                                                  
   EATOM  =  1390.9808 eV,  102.2342 Ry                                         
                                                                                
   TITEL  = PAW_PBE Cu 22Jun2005                                                
   LULTRA =        F    use ultrasoft PP ?                                      
   IUNSCR =        1    unscreen: 0-lin 1-nonlin 2-no                           
   RPACOR =    2.000    partial core radius                                     
   POMASS =   63.546; ZVAL   =   11.000    mass and valenz                      
   RCORE  =    2.300    outmost cutoff radius                                   
   RWIGS  =    2.200; RWIGS  =    1.164    wigner-seitz radius (au A)           
   ENMAX  =  295.446; ENMIN  =  221.585 eV                                      
   ICORE  =        3    local potential                                         
   LCOR   =        T    correct aug charges                                     
   LPAW   =        T    paw PP                                                  
   EAUG   =  586.980                                                            
   DEXC   =    0.000                                                            
   RMAX   =    2.344    core radius for proj-oper                               
   RAUG   =    1.300    factor for augmentation sphere                          
   RDEP   =    2.302    radius for radial grids                                 
   RDEPT  =    1.771    core radius for aug-charge                              
                                                                                
   Atomic configuration                                                         
    9 entries                                                                   
     n  l   j            E        occ.                                          
     1  0  0.50     -8850.2468   2.0000                                         
     2  0  0.50     -1062.3498   2.0000                                         
     2  1  1.50      -916.8226   6.0000                                         
     3  0  0.50      -114.6929   2.0000                                         
     3  1  1.50       -72.1325   6.0000                                         
     3  2  2.50        -5.0394  10.0000                                         
     4  0  0.50        -4.6097   1.0000                                         
     4  1  0.50        -4.0817   0.0000                                         
     4  3  2.50        -1.3606   0.0000                                         
   Description                                                                  
     l       E           TYP  RCUT    TYP  RCUT                                 
     2     -5.0393973     23  2.200                                             
     2     10.8846608     23  2.200                                             
     0     -4.6097109     23  2.200                                             
     0      8.2520465     23  2.200                                             
     1     -2.7211652     23  2.200                                             
     1     21.7055443     23  2.200                                             
     3      2.7211652     23  2.300                                             
  local pseudopotential read in
  partial core-charges read in
  partial kinetic energy density read in
  atomic valenz-charges read in
  non local Contribution for L=           2  read in
    real space projection operators read in
  non local Contribution for L=           2  read in
    real space projection operators read in
  non local Contribution for L=           0  read in
    real space projection operators read in
  non local Contribution for L=           0  read in
    real space projection operators read in
  non local Contribution for L=           1  read in
    real space projection operators read in
  non local Contribution for L=           1  read in
    real space projection operators read in
    PAW grid and wavefunctions read in
 
   number of l-projection  operators is LMAX  =           6
   number of lm-projection operators is LMMAX =          18
 
 POTCAR:    PAW_PBE C 08Apr2002                   
   VRHFIN =C: s2p2                                                              
   LEXCH  = PE                                                                  
   EATOM  =   147.1560 eV,   10.8157 Ry                                         
                                                                                
   TITEL  = PAW_PBE C 08Apr2002                                                 
   LULTRA =        F    use ultrasoft PP ?                                      
   IUNSCR =        1    unscreen: 0-lin 1-nonlin 2-no                           
   RPACOR =    1.200    partial core radius                                     
   POMASS =   12.011; ZVAL   =    4.000    mass and valenz                      
   RCORE  =    1.500    outmost cutoff radius                                   
   RWIGS  =    1.630; RWIGS  =    0.863    wigner-seitz radius (au A)           
   ENMAX  =  400.000; ENMIN  =  300.000 eV                                      
   ICORE  =        2    local potential                                         
   LCOR   =        T    correct aug charges                                     
   LPAW   =        T    paw PP                                                  
   EAUG   =  644.873                                                            
   DEXC   =    0.000                                                            
   RMAX   =    1.529    core radius for proj-oper                               
   RAUG   =    1.300    factor for augmentation sphere                          
   RDEP   =    1.501    radius for radial grids                                 
   RDEPT  =    1.300    core radius for aug-charge                              
                                                                                
   Atomic configuration                                                         
    4 entries                                                                   
     n  l   j            E        occ.                                          
     1  0  0.50      -273.3789   2.0000                                         
     2  0  0.50       -13.7508   2.0000                                         
     2  1  0.50        -5.2854   2.0000                                         
     3  2  1.50        -5.4423   0.0000                                         
   Description                                                                  
     l       E           TYP  RCUT    TYP  RCUT                                 
     0    -13.7508458     23  1.200                                             
     0     -8.2022199     23  1.200                                             
     1     -5.2854383     23  1.500                                             
     1     34.0145650     23  1.500                                             
     2     -5.4423304      7  1.500                                             
  local pseudopotential read in
  partial core-charges read in
  partial kinetic energy density read in
  atomic valenz-charges read in
  non local Contribution for L=           0  read in
    real space projection operators read in
  non local Contribution for L=           0  read in
    real space projection operators read in
  non local Contribution for L=           1  read in
    real space projection operators read in
  non local Contribution for L=           1  read in
    real space projection operators read in
    PAW grid and wavefunctions read in
 
   number of l-projection  operators is LMAX  =           4
   number of lm-projection operators is LMMAX =           8
 
 POTCAR:    PAW_PBE O 08Apr2002                   
   VRHFIN =O: s2p4                                                              
   LEXCH  = PE                                                                  
   EATOM  =   432.3788 eV,   31.7789 Ry                                         
                                                                                
   TITEL  = PAW_PBE O 08Apr2002                                                 
   LULTRA =        F    use ultrasoft PP ?                                      
   IUNSCR =        1    unscreen: 0-lin 1-nonlin 2-no                           
   RPACOR =    1.200    partial core radius                                     
   POMASS =   16.000; ZVAL   =    6.000    mass and valenz                      
   RCORE  =    1.520    outmost cutoff radius                                   
   RWIGS  =    1.550; RWIGS  =    0.820    wigner-seitz radius (au A)           
   ENMAX  =  400.000; ENMIN  =  300.000 eV                                      
   ICORE  =        2    local potential                                         
   LCOR   =        T    correct aug charges                                     
   LPAW   =        T    paw PP                                                  
   EAUG   =  605.392                                                            
   DEXC   =    0.000                                                            
   RMAX   =    1.553    core radius for proj-oper                               
   RAUG   =    1.300    factor for augmentation sphere                          
   RDEP   =    1.550    radius for radial grids                                 
   RDEPT  =    1.329    core radius for aug-charge                              
                                                                                
   Atomic configuration                                                         
    4 entries                                                                   
     n  l   j            E        occ.                                          
     1  0  0.50      -514.6923   2.0000                                         
     2  0  0.50       -23.9615   2.0000                                         
     2  1  0.50        -9.0305   4.0000                                         
     3  2  1.50        -9.5241   0.0000                                         
   Description                                                                  
     l       E           TYP  RCUT    TYP  RCUT                                 
     0    -23.9615318     23  1.200                                             
     0     -9.5240782     23  1.200                                             
     1     -9.0304911     23  1.520                                             
     1      8.1634956     23  1.520                                             
     2     -9.5240782      7  1.500                                             
  local pseudopotential read in
  partial core-charges read in
  partial kinetic energy density read in
  kinetic energy density of atom read in
  atomic valenz-charges read in
  non local Contribution for L=           0  read in
    real space projection operators read in
  non local Contribution for L=           0  read in
    real space projection operators read in
  non local Contribution for L=           1  read in
    real space projection operators read in
  non local Contribution for L=           1  read in
    real space projection operators read in
    PAW grid and wavefunctions read in
 
   number of l-projection  operators is LMAX  =           4
   number of lm-projection operators is LMMAX =           8
 
  PAW_PBE Cu 22Jun2005                  :
 energy of atom  1       EATOM=-1390.9808
 kinetic energy error for atom=    0.0033 (will be added to EATOM!!)
  PAW_PBE C 08Apr2002                   :
 energy of atom  2       EATOM= -147.1560
 kinetic energy error for atom=    0.0057 (will be added to EATOM!!)
  PAW_PBE O 08Apr2002                   :
 energy of atom  3       EATOM= -432.3788
 kinetic energy error for atom=    0.0168 (will be added to EATOM!!)
 
 
 POSCAR: Cu13 C1 O1                              
  positions in cartesian coordinates
  No initial velocities read in
 exchange correlation table for  LEXCH =        8
   RHO(1)=    0.500       N(1)  =     2000
   RHO(2)=  100.500       N(2)  =     4000
 


--------------------------------------------------------------------------------------------------------


 ion  position               nearest neighbor table
   1  0.285  0.418  0.551-   8 2.46   7 2.51   6 2.54   9 2.58   3 2.59   2 2.60
   2  0.373  0.552  0.485-   8 2.31  10 2.33   7 2.42   4 2.52   9 2.56  11 2.58   1 2.60  13 2.74

   3  0.396  0.287  0.565-   7 2.45   5 2.45   6 2.46   1 2.59
   4  0.534  0.504  0.486-  12 2.35   7 2.42   5 2.43  13 2.49   2 2.52  11 2.57   6 2.65
   5  0.543  0.347  0.525-   7 2.35   4 2.43   3 2.45   6 2.49  12 2.67
   6  0.439  0.436  0.619-  13 2.39   9 2.39   3 2.46   5 2.49   1 2.54   7 2.62   4 2.65
   7  0.416  0.400  0.449-   5 2.35   4 2.42   2 2.42   3 2.45   1 2.51   6 2.62
   8  0.231  0.573  0.543-   9 2.26   2 2.31   1 2.46  10 2.52
   9  0.333  0.550  0.651-   8 2.26  10 2.38   6 2.39  13 2.44   2 2.56   1 2.58
  10  0.357  0.682  0.567-   2 2.33   9 2.38  11 2.43   8 2.52  13 2.57
  11  0.496  0.671  0.484-  13 2.42  10 2.43   4 2.57   2 2.58
  12  0.624  0.479  0.612-  14 1.87   4 2.35  13 2.60   5 2.67
  13  0.488  0.587  0.622-   6 2.39  11 2.42   9 2.44   4 2.49  10 2.57  12 2.60   2 2.74
  14  0.746  0.478  0.635-  15 1.15  12 1.87
  15  0.817  0.508  0.636-  14 1.15
 

IMPORTANT INFORMATION: All symmetrisations will be switched off!
NOSYMM: (Re-)initialisation of all symmetry stuff for point group C_1.

 
 

Automatic generation of k-mesh.
 generate k-points for:    1    1    1
Space group operators:
 irot       det(A)        alpha          n_x          n_y          n_z        tau_x        tau_y        tau_z
    1     1.000000     0.000000     1.000000     0.000000     0.000000     0.000000     0.000000     0.000000
 
 Subroutine IBZKPT returns following result:
 ===========================================
 
 Found      1 irreducible k-points:
 
 Following reciprocal coordinates:
            Coordinates               Weight
  0.000000  0.000000  0.000000      1.000000
 
 Following cartesian coordinates:
            Coordinates               Weight
  0.000000  0.000000  0.000000      1.000000
 


--------------------------------------------------------------------------------------------------------




 Dimension of arrays:
   k-points           NKPTS =      1   k-points in BZ     NKDIM =      1   number of bands    NBANDS=     92
   number of dos      NEDOS =    301   number of ions     NIONS =     15
   non local maximal  LDIM  =      6   non local SUM 2l+1 LMDIM =     18
   total plane-waves  NPLWV = ******
   max r-space proj   IRMAX =      1   max aug-charges    IRDMAX=  15028
   dimension x,y,z NGX =   120 NGY =  120 NGZ =  120
   dimension x,y,z NGXF=   240 NGYF=  240 NGZF=  240
   support grid    NGXF=   240 NGYF=  240 NGZF=  240
   ions per type =              13   1   1
   NGX,Y,Z   is equivalent  to a cutoff of  13.30, 13.30, 13.30 a.u.
   NGXF,Y,Z  is equivalent  to a cutoff of  26.60, 26.60, 26.60 a.u.

 SYSTEM =  CuCO                                    
 POSCAR =  Cu13 C1 O1                              

 Startparameter for this run:
   NWRITE =      2    write-flag & timer
   PREC   = accura    normal or accurate (medium, high low for compatibility)
   ISTART =      0    job   : 0-new  1-cont  2-samecut
   ICHARG =      2    charge: 1-file 2-atom 10-const
   ISPIN  =      2    spin polarized calculation?
   LNONCOLLINEAR =      F non collinear calculations
   LSORBIT =      F    spin-orbit coupling
   INIWAV =      1    electr: 0-lowe 1-rand  2-diag
   LASPH  =      F    aspherical Exc in radial PAW
   METAGGA=      F    non-selfconsistent MetaGGA calc.

 Electronic Relaxation 1
   ENCUT  =  600.0 eV  44.10 Ry    6.64 a.u.  29.96 29.96 29.96*2*pi/ulx,y,z
   ENINI  =  600.0     initial cutoff
   ENAUG  =  644.9 eV  augmentation charge cutoff
   NELM   =    300;   NELMIN=  3; NELMDL= -5     # of ELM steps 
   EDIFF  = 0.1E-06   stopping-criterion for ELM
   LREAL  =      F    real-space projection
   NLSPLINE    = F    spline interpolate recip. space projectors
   LCOMPAT=      F    compatible to vasp.4.4
   GGA_COMPAT  = T    GGA compatible to vasp.4.4-vasp.4.6
   LMAXPAW     = -100 max onsite density
   LMAXMIX     =    2 max onsite mixed and CHGCAR
   VOSKOWN=      0    Vosko Wilk Nusair interpolation
   ROPT   =    0.00000   0.00000   0.00000
 Ionic relaxation
   EDIFFG = -.1E-02   stopping-criterion for IOM
   NSW    =      0    number of steps for IOM
   NBLOCK =      1;   KBLOCK =      1    inner block; outer block 
   IBRION =     -1    ionic relax: 0-MD 1-quasi-New 2-CG
   NFREE  =      0    steps in history (QN), initial steepest desc. (CG)
   ISIF   =      2    stress and relaxation
   IWAVPR =     10    prediction:  0-non 1-charg 2-wave 3-comb
   ISYM   =      0    0-nonsym 1-usesym 2-fastsym
   LCORR  =      T    Harris-Foulkes like correction to forces

   POTIM  = 0.5000    time-step for ionic-motion
   TEIN   =    0.0    initial temperature
   TEBEG  =    0.0;   TEEND  =   0.0 temperature during run
   SMASS  =  -3.00    Nose mass-parameter (am)
   estimated Nose-frequenzy (Omega)   =  0.10E-29 period in steps =****** mass=  -0.514E-26a.u.
   SCALEE = 1.0000    scale energy and forces
   NPACO  =    256;   APACO  = 16.0  distance and # of slots for P.C.
   PSTRESS=    0.0 pullay stress

  Mass of Ions in am
   POMASS =  63.55 12.01 16.00
  Ionic Valenz
   ZVAL   =  11.00  4.00  6.00
  Atomic Wigner-Seitz radii
   RWIGS  =  -1.00 -1.00 -1.00
  virtual crystal weights 
   VCA    =   1.00  1.00  1.00
   NELECT =     153.0000    total number of electrons
   NUPDOWN=       1.0000    fix difference up-down

 DOS related values:
   EMIN   =  10.00;   EMAX   =-10.00  energy-range for DOS
   EFERMI =   0.00
   ISMEAR =     1;   SIGMA  =   0.10  broadening in eV -4-tet -1-fermi 0-gaus

 Electronic relaxation 2 (details)
   IALGO  =     68    algorithm
   LDIAG  =      T    sub-space diagonalisation (order eigenvalues)
   LSUBROT=      F    optimize rotation matrix (better conditioning)
   TURBO    =      0    0=normal 1=particle mesh
   IRESTART =      0    0=no restart 2=restart with 2 vectors
   NREBOOT  =      0    no. of reboots
   NMIN     =      0    reboot dimension
   EREF     =   0.00    reference energy to select bands
   IMIX   =      4    mixing-type and parameters
     AMIX     =   0.40;   BMIX     =  1.00
     AMIX_MAG =   1.60;   BMIX_MAG =  1.00
     AMIN     =   0.10
     WC   =   100.;   INIMIX=   1;  MIXPRE=   1;  MAXMIX= -45

 Intra band minimization:
   WEIMIN = 0.0000     energy-eigenvalue tresh-hold
   EBREAK =  0.27E-09  absolut break condition
   DEPER  =   0.30     relativ break condition  

   TIME   =   0.40     timestep for ELM

  volume/ion in A,a.u.               =     225.00      1518.37
  Fermi-wavevector in a.u.,A,eV,Ry     =   0.583733  1.103095  4.636102  0.340744
  Thomas-Fermi vector in A             =   1.629149
 
 Write flags
   LWAVE        =      F    write WAVECAR
   LDOWNSAMPLE  =      F    k-point downsampling of WAVECAR
   LCHARG       =      F    write CHGCAR
   LVTOT        =      F    write LOCPOT, total local potential
   LVHAR        =      F    write LOCPOT, Hartree potential only
   LELF         =      F    write electronic localiz. function (ELF)
   LORBIT       =      0    0 simple, 1 ext, 2 COOP (PROOUT), +10 PAW based schemes


 Dipole corrections
   LMONO  =      F    monopole corrections only (constant potential shift)
   LDIPOL =      F    correct potential (dipole corrections)
   IDIPOL =      0    1-x, 2-y, 3-z, 4-all directions 
   EPSILON=  1.0000000 bulk dielectric constant

 Exchange correlation treatment:
   GGA     =    PE    GGA type
   LEXCH   =     8    internal setting for exchange type
   VOSKOWN=      0    Vosko Wilk Nusair interpolation
   LHFCALC =     F    Hartree Fock is set to
   LHFONE  =     F    Hartree Fock one center treatment
   AEXX    =    0.0000 exact exchange contribution

 Linear response parameters
   LEPSILON=     F    determine dielectric tensor
   LRPA    =     F    only Hartree local field effects (RPA)
   LNABLA  =     F    use nabla operator in PAW spheres
   LVEL    =     F    velocity operator in full k-point grid
   LINTERFAST=   F  fast interpolation
   KINTER  =     0    interpolate to denser k-point grid
   CSHIFT  =0.1000    complex shift for real part using Kramers Kronig
   OMEGAMAX=  -1.0    maximum frequency
   DEG_THRESHOLD= 0.2000000E-02 threshold for treating states as degnerate
   RTIME   =   -0.100 relaxation time in fs
  (WPLASMAI=    0.000 imaginary part of plasma frequency in eV, 0.658/RTIME)
   DFIELD  = 0.0000000 0.0000000 0.0000000 field for delta impulse in time
 
 Orbital magnetization related:
   ORBITALMAG=     F  switch on orbital magnetization
   LCHIMAG   =     F  perturbation theory with respect to B field
   DQ        =  0.001000  dq finite difference perturbation B field
   LLRAUG    =     F  two centre corrections for induced B field



--------------------------------------------------------------------------------------------------------


 Static calculation
 charge density and potential will be updated during run
 spin polarized calculation
 RMM-DIIS sequential band-by-band and
  variant of blocked Davidson during initial phase
 perform sub-space diagonalisation
    before iterative eigenvector-optimisation
 modified Broyden-mixing scheme, WC =      100.0
 initial mixing is a Kerker type mixing with AMIX =  0.4000 and BMIX =      1.0000
 Hartree-type preconditioning will be used
 using additional bands           15
 reciprocal scheme for non local part
 use partial core corrections
 calculate Harris-corrections to forces 
   (improved forces if not selfconsistent)
 use gradient corrections 
 use of overlap-Matrix (Vanderbilt PP)
 Methfessel and Paxton  Order N= 1 SIGMA  =   0.10


--------------------------------------------------------------------------------------------------------


  energy-cutoff  :      600.00
  volume of cell :     3375.00
      direct lattice vectors                 reciprocal lattice vectors
    15.000000000  0.000000000  0.000000000     0.066666667  0.000000000  0.000000000
     0.000000000 15.000000000  0.000000000     0.000000000  0.066666667  0.000000000
     0.000000000  0.000000000 15.000000000     0.000000000  0.000000000  0.066666667

  length of vectors
    15.000000000 15.000000000 15.000000000     0.066666667  0.066666667  0.066666667


 
 k-points in units of 2pi/SCALE and weight: read from INCAR                         
   0.00000000  0.00000000  0.00000000       1.000
 
 k-points in reciprocal lattice and weights: read from INCAR                         
   0.00000000  0.00000000  0.00000000       1.000
 
 position of ions in fractional coordinates (direct lattice) 
   0.28467733  0.41816200  0.55129933
   0.37293000  0.55153667  0.48524200
   0.39640133  0.28705533  0.56512000
   0.53409733  0.50371467  0.48607267
   0.54268133  0.34685000  0.52466600
   0.43924533  0.43598600  0.61890467
   0.41593933  0.40035733  0.44943267
   0.23141600  0.57324533  0.54275667
   0.33287867  0.54973067  0.65118333
   0.35700067  0.68227333  0.56700733
   0.49628200  0.67095333  0.48448067
   0.62374733  0.47917333  0.61198133
   0.48839267  0.58716267  0.62227467
   0.74639333  0.47752267  0.63526600
   0.81698000  0.50764667  0.63618800
 
 position of ions in cartesian coordinates  (Angst):
   4.27016000  6.27243000  8.26949000
   5.59395000  8.27305000  7.27863000
   5.94602000  4.30583000  8.47680000
   8.01146000  7.55572000  7.29109000
   8.14022000  5.20275000  7.86999000
   6.58868000  6.53979000  9.28357000
   6.23909000  6.00536000  6.74149000
   3.47124000  8.59868000  8.14135000
   4.99318000  8.24596000  9.76775000
   5.35501000 10.23410000  8.50511000
   7.44423000 10.06430000  7.26721000
   9.35621000  7.18760000  9.17972000
   7.32589000  8.80744000  9.33412000
  11.19590000  7.16284000  9.52899000
  12.25470000  7.61470000  9.54282000
 


--------------------------------------------------------------------------------------------------------


 k-point  1 :   0.0000 0.0000 0.0000  plane waves:  112451

 maximum and minimum number of plane-waves per node :     18753    18726

 maximum number of plane-waves:    112451
 maximum index in each direction: 
   IXMAX=   29   IYMAX=   29   IZMAX=   29
   IXMIN=  -29   IYMIN=  -29   IZMIN=  -29


 parallel 3D FFT for wavefunctions:
    minimum data exchange during FFTs selected (reduces bandwidth)
 parallel 3D FFT for charge:
    minimum data exchange during FFTs selected (reduces bandwidth)


 total amount of memory used by VASP MPI-rank0   158680. kBytes
=======================================================================

   base      :      30000. kBytes
   nonl-proj :      12601. kBytes
   fftplans  :      27994. kBytes
   grid      :      74150. kBytes
   one-center:         93. kBytes
   wavefun   :      13842. kBytes
 
     INWAV:  cpu time    0.0000: real time    0.0000
 Broyden mixing: mesh for mixing (old mesh)
   NGX = 59   NGY = 59   NGZ = 59
  (NGX  =240   NGY  =240   NGZ  =240)
  gives a total of 205379 points

 initial charge density was supplied:
 charge density of overlapping atoms calculated
 number of electron     153.0000000 magnetization       1.0000000
 keeping initial charge density in first step


--------------------------------------------------------------------------------------------------------


 Maximum index for augmentation-charges          713 (set IRDMAX)


--------------------------------------------------------------------------------------------------------


 First call to EWALD:  gamma=   0.118
 Maximum number of real-space cells 3x 3x 3
 Maximum number of reciprocal cells 3x 3x 3

    FEWALD:  cpu time    0.0017: real time    0.0018


--------------------------------------- Iteration      1(   1)  ---------------------------------------


    POTLOK:  cpu time    1.1912: real time    1.1988
    SETDIJ:  cpu time    0.0164: real time    0.0164
     EDDAV:  cpu time    7.4399: real time    7.4592
       DOS:  cpu time    0.0004: real time    0.0004
    --------------------------------------------
      LOOP:  cpu time    8.6480: real time    8.6749

 eigenvalue-minimisations  :   376
 total energy-change (2. order) : 0.1117242E+04  (-0.4462327E+04)
 number of electron     153.0000000 magnetization       1.0000000
 augmentation part      153.0000000 magnetization       1.0000000

 Free energy of the ion-electron system (eV)
  ---------------------------------------------------
  alpha Z        PSCENC =        41.16232785
  Ewald energy   TEWEN  =     16241.80113852
  -Hartree energ DENC   =    -33265.92431193
  -exchange      EXHF   =         0.00000000
  -V(xc)+E(xc)   XCENC  =       623.28808922
  PAW double counting   =     16421.75059358   -17800.06104309
  entropy T*S    EENTRO =        -0.00638577
  eigenvalues    EBANDS =       193.01194351
  atomic energy  EATOM  =     18662.21924712
  Solvation  Ediel_sol  =         0.00000000
  ---------------------------------------------------
  free energy    TOTEN  =      1117.24159901 eV

  energy without entropy =     1117.24798478  energy(sigma->0) =     1117.24372760


--------------------------------------------------------------------------------------------------------




--------------------------------------- Iteration      1(   2)  ---------------------------------------


     EDDAV:  cpu time    7.3103: real time    7.3151
       DOS:  cpu time    0.0004: real time    0.0004
    --------------------------------------------
      LOOP:  cpu time    7.3107: real time    7.3155

 eigenvalue-minimisations  :   368
 total energy-change (2. order) :-0.1029527E+04  (-0.9773089E+03)
 number of electron     153.0000000 magnetization       1.0000000
 augmentation part      153.0000000 magnetization       1.0000000

 Free energy of the ion-electron system (eV)
  ---------------------------------------------------
  alpha Z        PSCENC =        41.16232785
  Ewald energy   TEWEN  =     16241.80113852
  -Hartree energ DENC   =    -33265.92431193
  -exchange      EXHF   =         0.00000000
  -V(xc)+E(xc)   XCENC  =       623.28808922
  PAW double counting   =     16421.75059358   -17800.06104309
  entropy T*S    EENTRO =         0.01068653
  eigenvalues    EBANDS =      -836.53186693
  atomic energy  EATOM  =     18662.21924712
  Solvation  Ediel_sol  =         0.00000000
  ---------------------------------------------------
  free energy    TOTEN  =        87.71486086 eV

  energy without entropy =       87.70417433  energy(sigma->0) =       87.71129869


--------------------------------------------------------------------------------------------------------




--------------------------------------- Iteration      1(   3)  ---------------------------------------


     EDDAV:  cpu time   11.4387: real time   11.4433
       DOS:  cpu time    0.0003: real time    0.0003
    --------------------------------------------
      LOOP:  cpu time   11.4391: real time   11.4436

 eigenvalue-minimisations  :   648
 total energy-change (2. order) :-0.1201382E+03  (-0.1124725E+03)
 number of electron     153.0000000 magnetization       1.0000000
 augmentation part      153.0000000 magnetization       1.0000000

 Free energy of the ion-electron system (eV)
  ---------------------------------------------------
  alpha Z        PSCENC =        41.16232785
  Ewald energy   TEWEN  =     16241.80113852
  -Hartree energ DENC   =    -33265.92431193
  -exchange      EXHF   =         0.00000000
  -V(xc)+E(xc)   XCENC  =       623.28808922
  PAW double counting   =     16421.75059358   -17800.06104309
  entropy T*S    EENTRO =         0.01631189
  eigenvalues    EBANDS =      -956.67569296
  atomic energy  EATOM  =     18662.21924712
  Solvation  Ediel_sol  =         0.00000000
  ---------------------------------------------------
  free energy    TOTEN  =       -32.42333980 eV

  energy without entropy =      -32.43965169  energy(sigma->0) =      -32.42877710


--------------------------------------------------------------------------------------------------------




--------------------------------------- Iteration      1(   4)  ---------------------------------------


     EDDAV:  cpu time   10.0426: real time   10.0476
       DOS:  cpu time    0.0003: real time    0.0003
    --------------------------------------------
      LOOP:  cpu time   10.0429: real time   10.0479

 eigenvalue-minimisations  :   552
 total energy-change (2. order) :-0.2283631E+02  (-0.2237594E+02)
 number of electron     153.0000000 magnetization       1.0000000
 augmentation part      153.0000000 magnetization       1.0000000

 Free energy of the ion-electron system (eV)
  ---------------------------------------------------
  alpha Z        PSCENC =        41.16232785
  Ewald energy   TEWEN  =     16241.80113852
  -Hartree energ DENC   =    -33265.92431193
  -exchange      EXHF   =         0.00000000
  -V(xc)+E(xc)   XCENC  =       623.28808922
  PAW double counting   =     16421.75059358   -17800.06104309
  entropy T*S    EENTRO =         0.00934866
  eigenvalues    EBANDS =      -979.50503590
  atomic energy  EATOM  =     18662.21924712
  Solvation  Ediel_sol  =         0.00000000
  ---------------------------------------------------
  free energy    TOTEN  =       -55.25964597 eV

  energy without entropy =      -55.26899463  energy(sigma->0) =      -55.26276219


--------------------------------------------------------------------------------------------------------




--------------------------------------- Iteration      1(   5)  ---------------------------------------


     EDDAV:  cpu time   12.0209: real time   12.0258
       DOS:  cpu time    0.0004: real time    0.0004
    CHARGE:  cpu time    0.6704: real time    0.6708
    MIXING:  cpu time    0.0239: real time    0.0239
    --------------------------------------------
      LOOP:  cpu time   12.7156: real time   12.7209

 eigenvalue-minimisations  :   688
 total energy-change (2. order) :-0.1729574E+01  (-0.1591523E+01)
 number of electron     153.0000023 magnetization       1.0000000
 augmentation part       87.4962984 magnetization       0.4098229

 Broyden mixing:
  rms(total) = 0.23403E+01    rms(broyden)= 0.23402E+01
  rms(prec ) = 0.26855E+01
  weight for this iteration     100.00

 Free energy of the ion-electron system (eV)
  ---------------------------------------------------
  alpha Z        PSCENC =        41.16232785
  Ewald energy   TEWEN  =     16241.80113852
  -Hartree energ DENC   =    -33265.92431193
  -exchange      EXHF   =         0.00000000
  -V(xc)+E(xc)   XCENC  =       623.28808922
  PAW double counting   =     16421.75059358   -17800.06104309
  entropy T*S    EENTRO =         0.00961575
  eigenvalues    EBANDS =      -981.23487696
  atomic energy  EATOM  =     18662.21924712
  Solvation  Ediel_sol  =         0.00000000
  ---------------------------------------------------
  free energy    TOTEN  =       -56.98921995 eV

  energy without entropy =      -56.99883569  energy(sigma->0) =      -56.99242520


--------------------------------------------------------------------------------------------------------




--------------------------------------- Iteration      1(   6)  ---------------------------------------


    POTLOK:  cpu time    1.1814: real time    1.1825
    SETDIJ:  cpu time    0.0163: real time    0.0163
    EDDIAG:  cpu time    1.1013: real time    1.1017
  RMM-DIIS:  cpu time    7.4588: real time    7.4615
    ORTHCH:  cpu time    0.0552: real time    0.0552
       DOS:  cpu time    0.0004: real time    0.0004
    CHARGE:  cpu time    0.6278: real time    0.6281
    MIXING:  cpu time    0.0249: real time    0.0250
    --------------------------------------------
      LOOP:  cpu time   10.4661: real time   10.4707

 eigenvalue-minimisations  :   423
 total energy-change (2. order) : 0.1036955E+01  (-0.1187679E+02)
 number of electron     153.0000025 magnetization       1.0000000
 augmentation part       95.7229180 magnetization       0.0888632

 Broyden mixing:
  rms(total) = 0.15306E+01    rms(broyden)= 0.15305E+01
  rms(prec ) = 0.17640E+01
  weight for this iteration     100.00

 eigenvalues of (default mixing * dielectric matrix)
  average eigenvalue GAMMA=   0.6148
  0.6148

 Free energy of the ion-electron system (eV)
  ---------------------------------------------------
  alpha Z        PSCENC =        41.16232785
  Ewald energy   TEWEN  =     16241.80113852
  -Hartree energ DENC   =    -33015.20569871
  -exchange      EXHF   =         0.00000000
  -V(xc)+E(xc)   XCENC  =       611.12607057
  PAW double counting   =     16694.16658515   -18018.22579184
  entropy T*S    EENTRO =         0.00891950
  eigenvalues    EBANDS =     -1273.00506330
  atomic energy  EATOM  =     18662.21924712
  Solvation  Ediel_sol  =         0.00000000
  ---------------------------------------------------
  free energy    TOTEN  =       -55.95226513 eV

  energy without entropy =      -55.96118464  energy(sigma->0) =      -55.95523830


--------------------------------------------------------------------------------------------------------




--------------------------------------- Iteration      1(   7)  ---------------------------------------


    POTLOK:  cpu time    1.1821: real time    1.1857
    SETDIJ:  cpu time    0.0161: real time    0.0161
    EDDIAG:  cpu time    1.1020: real time    1.1025
  RMM-DIIS:  cpu time    7.1662: real time    7.1685
    ORTHCH:  cpu time    0.0553: real time    0.0553
       DOS:  cpu time    0.0004: real time    0.0004
    CHARGE:  cpu time    0.6823: real time    0.6825
    MIXING:  cpu time    0.0244: real time    0.0244
    --------------------------------------------
      LOOP:  cpu time   10.2288: real time   10.2353

 eigenvalue-minimisations  :   381
 total energy-change (2. order) : 0.6885700E+01  (-0.2422359E+01)
 number of electron     153.0000024 magnetization       1.0000000
 augmentation part       92.8740714 magnetization       0.1170734

 Broyden mixing:
  rms(total) = 0.37824E+00    rms(broyden)= 0.37822E+00
  rms(prec ) = 0.46929E+00
  weight for this iteration     100.00

 eigenvalues of (default mixing * dielectric matrix)
  average eigenvalue GAMMA=   0.9396
  1.2135  0.6656

 Free energy of the ion-electron system (eV)
  ---------------------------------------------------
  alpha Z        PSCENC =        41.16232785
  Ewald energy   TEWEN  =     16241.80113852
  -Hartree energ DENC   =    -33150.74922902
  -exchange      EXHF   =         0.00000000
  -V(xc)+E(xc)   XCENC  =       615.59652796
  PAW double counting   =     17034.43593926   -18408.23471946
  entropy T*S    EENTRO =         0.00918608
  eigenvalues    EBANDS =     -1085.30698381
  atomic energy  EATOM  =     18662.21924712
  Solvation  Ediel_sol  =         0.00000000
  ---------------------------------------------------
  free energy    TOTEN  =       -49.06656552 eV

  energy without entropy =      -49.07575160  energy(sigma->0) =      -49.06962754


--------------------------------------------------------------------------------------------------------




--------------------------------------- Iteration      1(   8)  ---------------------------------------


    POTLOK:  cpu time    1.1770: real time    1.1790
    SETDIJ:  cpu time    0.0161: real time    0.0161
    EDDIAG:  cpu time    1.1012: real time    1.1018
  RMM-DIIS:  cpu time    6.7964: real time    6.8002
    ORTHCH:  cpu time    0.0554: real time    0.0554
       DOS:  cpu time    0.0005: real time    0.0005
    CHARGE:  cpu time    0.6907: real time    0.6909
    MIXING:  cpu time    0.0249: real time    0.0249
    --------------------------------------------
      LOOP:  cpu time    9.8620: real time    9.8688

 eigenvalue-minimisations  :   420
 total energy-change (2. order) : 0.2322575E+00  (-0.3995772E+00)
 number of electron     153.0000024 magnetization       1.0000000
 augmentation part       92.0898416 magnetization       0.1207846

 Broyden mixing:
  rms(total) = 0.29674E+00    rms(broyden)= 0.29671E+00
  rms(prec ) = 0.33526E+00
  weight for this iteration     100.00

 eigenvalues of (default mixing * dielectric matrix)
  average eigenvalue GAMMA=   0.9442
  1.4063  0.7131  0.7131

 Free energy of the ion-electron system (eV)
  ---------------------------------------------------
  alpha Z        PSCENC =        41.16232785
  Ewald energy   TEWEN  =     16241.80113852
  -Hartree energ DENC   =    -33199.94755620
  -exchange      EXHF   =         0.00000000
  -V(xc)+E(xc)   XCENC  =       615.99712214
  PAW double counting   =     17393.59076061   -18787.04092849
  entropy T*S    EENTRO =         0.00904067
  eigenvalues    EBANDS =     -1016.62546019
  atomic energy  EATOM  =     18662.21924712
  Solvation  Ediel_sol  =         0.00000000
  ---------------------------------------------------
  free energy    TOTEN  =       -48.83430797 eV

  energy without entropy =      -48.84334864  energy(sigma->0) =      -48.83732152


--------------------------------------------------------------------------------------------------------




--------------------------------------- Iteration      1(   9)  ---------------------------------------


    POTLOK:  cpu time    1.1785: real time    1.1791
    SETDIJ:  cpu time    0.0166: real time    0.0166
    EDDIAG:  cpu time    1.1024: real time    1.1036
  RMM-DIIS:  cpu time    6.9465: real time    6.9492
    ORTHCH:  cpu time    0.0553: real time    0.0553
       DOS:  cpu time    0.0004: real time    0.0004
    CHARGE:  cpu time    0.6917: real time    0.6921
    MIXING:  cpu time    0.0252: real time    0.0252
    --------------------------------------------
      LOOP:  cpu time   10.0166: real time   10.0215

 eigenvalue-minimisations  :   419
 total energy-change (2. order) : 0.4601633E-01  (-0.9832385E-01)
 number of electron     153.0000024 magnetization       1.0000000
 augmentation part       92.3040332 magnetization       0.1022177

 Broyden mixing:
  rms(total) = 0.18053E+00    rms(broyden)= 0.18052E+00
  rms(prec ) = 0.21418E+00
  weight for this iteration     100.00

 eigenvalues of (default mixing * dielectric matrix)
  average eigenvalue GAMMA=   1.0314
  2.0697  0.7760  0.7760  0.5036

 Free energy of the ion-electron system (eV)
  ---------------------------------------------------
  alpha Z        PSCENC =        41.16232785
  Ewald energy   TEWEN  =     16241.80113852
  -Hartree energ DENC   =    -33196.97895899
  -exchange      EXHF   =         0.00000000
  -V(xc)+E(xc)   XCENC  =       615.51626146
  PAW double counting   =     17498.30713809   -18893.25778200
  entropy T*S    EENTRO =         0.00934730
  eigenvalues    EBANDS =     -1017.56701098
  atomic energy  EATOM  =     18662.21924712
  Solvation  Ediel_sol  =         0.00000000
  ---------------------------------------------------
  free energy    TOTEN  =       -48.78829163 eV

  energy without entropy =      -48.79763893  energy(sigma->0) =      -48.79140740


--------------------------------------------------------------------------------------------------------




--------------------------------------- Iteration      1(  10)  ---------------------------------------


    POTLOK:  cpu time    1.1802: real time    1.1821
    SETDIJ:  cpu time    0.0162: real time    0.0162
    EDDIAG:  cpu time    1.1021: real time    1.1023
  RMM-DIIS:  cpu time    7.0826: real time    7.0854
    ORTHCH:  cpu time    0.0556: real time    0.0556
       DOS:  cpu time    0.0004: real time    0.0004
    CHARGE:  cpu time    0.6931: real time    0.6930
    MIXING:  cpu time    0.0254: real time    0.0254
    --------------------------------------------
      LOOP:  cpu time   10.1555: real time   10.1604

 eigenvalue-minimisations  :   415
 total energy-change (2. order) : 0.6002950E-01  (-0.2105482E-01)
 number of electron     153.0000024 magnetization       1.0000000
 augmentation part       92.4732308 magnetization       0.0917411

 Broyden mixing:
  rms(total) = 0.58210E-01    rms(broyden)= 0.58206E-01
  rms(prec ) = 0.76474E-01
  weight for this iteration     100.00

 eigenvalues of (default mixing * dielectric matrix)
  average eigenvalue GAMMA=   1.0620
  2.0997  1.1879  0.7689  0.7689  0.4845

 Free energy of the ion-electron system (eV)
  ---------------------------------------------------
  alpha Z        PSCENC =        41.16232785
  Ewald energy   TEWEN  =     16241.80113852
  -Hartree energ DENC   =    -33195.57269232
  -exchange      EXHF   =         0.00000000
  -V(xc)+E(xc)   XCENC  =       615.13799490
  PAW double counting   =     17592.66512833   -18989.05809509
  entropy T*S    EENTRO =         0.00932409
  eigenvalues    EBANDS =     -1017.09263553
  atomic energy  EATOM  =     18662.21924712
  Solvation  Ediel_sol  =         0.00000000
  ---------------------------------------------------
  free energy    TOTEN  =       -48.72826213 eV

  energy without entropy =      -48.73758622  energy(sigma->0) =      -48.73137016


--------------------------------------------------------------------------------------------------------




--------------------------------------- Iteration      1(  11)  ---------------------------------------


    POTLOK:  cpu time    1.1799: real time    1.1806
    SETDIJ:  cpu time    0.0167: real time    0.0167
    EDDIAG:  cpu time    1.1016: real time    1.1021
  RMM-DIIS:  cpu time    7.2638: real time    7.2665
    ORTHCH:  cpu time    0.0544: real time    0.0544
       DOS:  cpu time    0.0004: real time    0.0004
    CHARGE:  cpu time    0.6870: real time    0.6873
    MIXING:  cpu time    0.0262: real time    0.0262
    --------------------------------------------
      LOOP:  cpu time   10.3300: real time   10.3341

 eigenvalue-minimisations  :   425
 total energy-change (2. order) : 0.1172683E-01  (-0.7079351E-02)
 number of electron     153.0000024 magnetization       1.0000000
 augmentation part       92.4049164 magnetization       0.0965506

 Broyden mixing:
  rms(total) = 0.37267E-01    rms(broyden)= 0.37264E-01
  rms(prec ) = 0.48608E-01
  weight for this iteration     100.00

 eigenvalues of (default mixing * dielectric matrix)
  average eigenvalue GAMMA=   1.0632
  2.1632  1.5315  0.7507  0.7507  0.6931  0.4896

 Free energy of the ion-electron system (eV)
  ---------------------------------------------------
  alpha Z        PSCENC =        41.16232785
  Ewald energy   TEWEN  =     16241.80113852
  -Hartree energ DENC   =    -33203.81469494
  -exchange      EXHF   =         0.00000000
  -V(xc)+E(xc)   XCENC  =       615.27521455
  PAW double counting   =     17642.16195647   -19040.68982213
  entropy T*S    EENTRO =         0.00929489
  eigenvalues    EBANDS =     -1006.84119764
  atomic energy  EATOM  =     18662.21924712
  Solvation  Ediel_sol  =         0.00000000
  ---------------------------------------------------
  free energy    TOTEN  =       -48.71653531 eV

  energy without entropy =      -48.72583020  energy(sigma->0) =      -48.71963360


--------------------------------------------------------------------------------------------------------




--------------------------------------- Iteration      1(  12)  ---------------------------------------


    POTLOK:  cpu time    1.1804: real time    1.1806
    SETDIJ:  cpu time    0.0162: real time    0.0162
    EDDIAG:  cpu time    1.1012: real time    1.1017
  RMM-DIIS:  cpu time    6.8267: real time    6.8296
    ORTHCH:  cpu time    0.0540: real time    0.0540
       DOS:  cpu time    0.0004: real time    0.0004
    CHARGE:  cpu time    0.6907: real time    0.6910
    MIXING:  cpu time    0.0271: real time    0.0271
    --------------------------------------------
      LOOP:  cpu time    9.8967: real time    9.9006

 eigenvalue-minimisations  :   420
 total energy-change (2. order) : 0.1815656E-02  (-0.1664977E-02)
 number of electron     153.0000024 magnetization       1.0000000
 augmentation part       92.4132063 magnetization       0.0963382

 Broyden mixing:
  rms(total) = 0.17579E-01    rms(broyden)= 0.17579E-01
  rms(prec ) = 0.29380E-01
  weight for this iteration     100.00

 eigenvalues of (default mixing * dielectric matrix)
  average eigenvalue GAMMA=   1.0933
  2.3993  1.7156  1.0560  0.7241  0.7241  0.5594  0.4745

 Free energy of the ion-electron system (eV)
  ---------------------------------------------------
  alpha Z        PSCENC =        41.16232785
  Ewald energy   TEWEN  =     16241.80113852
  -Hartree energ DENC   =    -33206.44927573
  -exchange      EXHF   =         0.00000000
  -V(xc)+E(xc)   XCENC  =       615.30043404
  PAW double counting   =     17648.57317931   -19047.28079413
  entropy T*S    EENTRO =         0.00931614
  eigenvalues    EBANDS =     -1004.05029278
  atomic energy  EATOM  =     18662.21924712
  Solvation  Ediel_sol  =         0.00000000
  ---------------------------------------------------
  free energy    TOTEN  =       -48.71471965 eV

  energy without entropy =      -48.72403580  energy(sigma->0) =      -48.71782503


--------------------------------------------------------------------------------------------------------




--------------------------------------- Iteration      1(  13)  ---------------------------------------


    POTLOK:  cpu time    1.1807: real time    1.1843
    SETDIJ:  cpu time    0.0166: real time    0.0166
    EDDIAG:  cpu time    1.1042: real time    1.1048
  RMM-DIIS:  cpu time    6.8836: real time    6.8862
    ORTHCH:  cpu time    0.0538: real time    0.0538
       DOS:  cpu time    0.0004: real time    0.0004
    CHARGE:  cpu time    0.6860: real time    0.6863
    MIXING:  cpu time    0.0279: real time    0.0279
    --------------------------------------------
      LOOP:  cpu time    9.9532: real time    9.9604

 eigenvalue-minimisations  :   428
 total energy-change (2. order) : 0.9254258E-03  (-0.5016664E-03)
 number of electron     153.0000024 magnetization       1.0000000
 augmentation part       92.4249255 magnetization       0.0966488

 Broyden mixing:
  rms(total) = 0.93666E-02    rms(broyden)= 0.93663E-02
  rms(prec ) = 0.19117E-01
  weight for this iteration     100.00

 eigenvalues of (default mixing * dielectric matrix)
  average eigenvalue GAMMA=   1.1258
  2.4366  1.8792  1.4118  0.7637  0.7637  0.7578  0.5349  0.4592

 Free energy of the ion-electron system (eV)
  ---------------------------------------------------
  alpha Z        PSCENC =        41.16232785
  Ewald energy   TEWEN  =     16241.80113852
  -Hartree energ DENC   =    -33210.42886425
  -exchange      EXHF   =         0.00000000
  -V(xc)+E(xc)   XCENC  =       615.31348229
  PAW double counting   =     17652.55865348   -19051.26974739
  entropy T*S    EENTRO =         0.00932099
  eigenvalues    EBANDS =     -1000.07935284
  atomic energy  EATOM  =     18662.21924712
  Solvation  Ediel_sol  =         0.00000000
  ---------------------------------------------------
  free energy    TOTEN  =       -48.71379423 eV

  energy without entropy =      -48.72311521  energy(sigma->0) =      -48.71690122


--------------------------------------------------------------------------------------------------------




--------------------------------------- Iteration      1(  14)  ---------------------------------------


    POTLOK:  cpu time    1.1807: real time    1.1817
    SETDIJ:  cpu time    0.0165: real time    0.0165
    EDDIAG:  cpu time    1.1043: real time    1.1049
  RMM-DIIS:  cpu time    7.1182: real time    7.1224
    ORTHCH:  cpu time    0.0538: real time    0.0540
       DOS:  cpu time    0.0004: real time    0.0004
    CHARGE:  cpu time    0.6800: real time    0.6800
    MIXING:  cpu time    0.0289: real time    0.0289
    --------------------------------------------
      LOOP:  cpu time   10.1829: real time   10.1888

 eigenvalue-minimisations  :   429
 total energy-change (2. order) :-0.1195901E-02  (-0.3090228E-03)
 number of electron     153.0000024 magnetization       1.0000000
 augmentation part       92.4280689 magnetization       0.0970171

 Broyden mixing:
  rms(total) = 0.93267E-02    rms(broyden)= 0.93265E-02
  rms(prec ) = 0.15022E-01
  weight for this iteration     100.00

 eigenvalues of (default mixing * dielectric matrix)
  average eigenvalue GAMMA=   1.1645
  2.4621  2.4621  1.1924  1.1924  0.7527  0.7527  0.6978  0.5056  0.4622

 Free energy of the ion-electron system (eV)
  ---------------------------------------------------
  alpha Z        PSCENC =        41.16232785
  Ewald energy   TEWEN  =     16241.80113852
  -Hartree energ DENC   =    -33215.80224864
  -exchange      EXHF   =         0.00000000
  -V(xc)+E(xc)   XCENC  =       615.35353649
  PAW double counting   =     17645.32600080   -19043.76981205
  entropy T*S    EENTRO =         0.00932807
  eigenvalues    EBANDS =      -995.01450828
  atomic energy  EATOM  =     18662.21924712
  Solvation  Ediel_sol  =         0.00000000
  ---------------------------------------------------
  free energy    TOTEN  =       -48.71499013 eV

  energy without entropy =      -48.72431820  energy(sigma->0) =      -48.71809948


--------------------------------------------------------------------------------------------------------




--------------------------------------- Iteration      1(  15)  ---------------------------------------


    POTLOK:  cpu time    1.1815: real time    1.1823
    SETDIJ:  cpu time    0.0166: real time    0.0166
    EDDIAG:  cpu time    1.1052: real time    1.1055
  RMM-DIIS:  cpu time    6.6537: real time    6.6567
    ORTHCH:  cpu time    0.0546: real time    0.0546
       DOS:  cpu time    0.0004: real time    0.0004
    CHARGE:  cpu time    0.6815: real time    0.6819
    MIXING:  cpu time    0.0293: real time    0.0293
    --------------------------------------------
      LOOP:  cpu time    9.7229: real time    9.7274

 eigenvalue-minimisations  :   400
 total energy-change (2. order) :-0.1259845E-02  (-0.1263912E-03)
 number of electron     153.0000024 magnetization       1.0000000
 augmentation part       92.4247081 magnetization       0.0975844

 Broyden mixing:
  rms(total) = 0.50459E-02    rms(broyden)= 0.50458E-02
  rms(prec ) = 0.92898E-02
  weight for this iteration     100.00

 eigenvalues of (default mixing * dielectric matrix)
  average eigenvalue GAMMA=   1.2017
  2.7225  2.7225  1.3699  1.3699  0.7484  0.7484  0.7785  0.6036  0.4895  0.4636

 Free energy of the ion-electron system (eV)
  ---------------------------------------------------
  alpha Z        PSCENC =        41.16232785
  Ewald energy   TEWEN  =     16241.80113852
  -Hartree energ DENC   =    -33219.18148634
  -exchange      EXHF   =         0.00000000
  -V(xc)+E(xc)   XCENC  =       615.38922042
  PAW double counting   =     17639.20790038   -19037.51321822
  entropy T*S    EENTRO =         0.00932328
  eigenvalues    EBANDS =      -991.81070298
  atomic energy  EATOM  =     18662.21924712
  Solvation  Ediel_sol  =         0.00000000
  ---------------------------------------------------
  free energy    TOTEN  =       -48.71624997 eV

  energy without entropy =      -48.72557325  energy(sigma->0) =      -48.71935773


--------------------------------------------------------------------------------------------------------




--------------------------------------- Iteration      1(  16)  ---------------------------------------


    POTLOK:  cpu time    1.1810: real time    1.1815
    SETDIJ:  cpu time    0.0166: real time    0.0166
    EDDIAG:  cpu time    1.1050: real time    1.1057
  RMM-DIIS:  cpu time    6.7445: real time    6.7469
    ORTHCH:  cpu time    0.0548: real time    0.0548
       DOS:  cpu time    0.0004: real time    0.0004
    CHARGE:  cpu time    0.6801: real time    0.6802
    MIXING:  cpu time    0.0303: real time    0.0303
    --------------------------------------------
      LOOP:  cpu time    9.8126: real time    9.8163

 eigenvalue-minimisations  :   395
 total energy-change (2. order) :-0.1541978E-02  (-0.9320639E-04)
 number of electron     153.0000024 magnetization       1.0000000
 augmentation part       92.4197533 magnetization       0.0977839

 Broyden mixing:
  rms(total) = 0.54748E-02    rms(broyden)= 0.54745E-02
  rms(prec ) = 0.77846E-02
  weight for this iteration     100.00

 eigenvalues of (default mixing * dielectric matrix)
  average eigenvalue GAMMA=   1.2579
  3.3583  2.6077  1.5775  1.5775  0.9594  0.7646  0.7646  0.7391  0.4591  0.5280
  0.5008

 Free energy of the ion-electron system (eV)
  ---------------------------------------------------
  alpha Z        PSCENC =        41.16232785
  Ewald energy   TEWEN  =     16241.80113852
  -Hartree energ DENC   =    -33221.76836080
  -exchange      EXHF   =         0.00000000
  -V(xc)+E(xc)   XCENC  =       615.41418579
  PAW double counting   =     17636.14391861   -19034.42544485
  entropy T*S    EENTRO =         0.00931992
  eigenvalues    EBANDS =      -989.27412411
  atomic energy  EATOM  =     18662.21924712
  Solvation  Ediel_sol  =         0.00000000
  ---------------------------------------------------
  free energy    TOTEN  =       -48.71779195 eV

  energy without entropy =      -48.72711187  energy(sigma->0) =      -48.72089859


--------------------------------------------------------------------------------------------------------




--------------------------------------- Iteration      1(  17)  ---------------------------------------


    POTLOK:  cpu time    1.1824: real time    1.1847
    SETDIJ:  cpu time    0.0164: real time    0.0163
    EDDIAG:  cpu time    1.1051: real time    1.1059
  RMM-DIIS:  cpu time    6.6903: real time    6.6926
    ORTHCH:  cpu time    0.0548: real time    0.0548
       DOS:  cpu time    0.0004: real time    0.0004
    CHARGE:  cpu time    0.6779: real time    0.6782
    MIXING:  cpu time    0.0314: real time    0.0314
    --------------------------------------------
      LOOP:  cpu time    9.7586: real time    9.7643

 eigenvalue-minimisations  :   393
 total energy-change (2. order) :-0.1722459E-02  (-0.5594836E-04)
 number of electron     153.0000024 magnetization       1.0000000
 augmentation part       92.4222740 magnetization       0.0976286

 Broyden mixing:
  rms(total) = 0.19330E-02    rms(broyden)= 0.19329E-02
  rms(prec ) = 0.34904E-02
  weight for this iteration     100.00

 eigenvalues of (default mixing * dielectric matrix)
  average eigenvalue GAMMA=   1.3704
  4.6426  2.6042  2.1820  1.2704  1.2704  0.7729  0.7729  0.7647  0.6948  0.5212
  0.4599  0.4891

 Free energy of the ion-electron system (eV)
  ---------------------------------------------------
  alpha Z        PSCENC =        41.16232785
  Ewald energy   TEWEN  =     16241.80113852
  -Hartree energ DENC   =    -33223.70537619
  -exchange      EXHF   =         0.00000000
  -V(xc)+E(xc)   XCENC  =       615.42038502
  PAW double counting   =     17634.21561298   -19032.46325914
  entropy T*S    EENTRO =         0.00932129
  eigenvalues    EBANDS =      -987.37891186
  atomic energy  EATOM  =     18662.21924712
  Solvation  Ediel_sol  =         0.00000000
  ---------------------------------------------------
  free energy    TOTEN  =       -48.71951441 eV

  energy without entropy =      -48.72883570  energy(sigma->0) =      -48.72262151


--------------------------------------------------------------------------------------------------------




--------------------------------------- Iteration      1(  18)  ---------------------------------------


    POTLOK:  cpu time    1.1823: real time    1.1826
    SETDIJ:  cpu time    0.0164: real time    0.0164
    EDDIAG:  cpu time    1.1049: real time    1.1053
  RMM-DIIS:  cpu time    8.1054: real time    8.1082
    ORTHCH:  cpu time    0.0551: real time    0.0553
       DOS:  cpu time    0.0004: real time    0.0004
    CHARGE:  cpu time    0.6769: real time    0.6769
    MIXING:  cpu time    0.0326: real time    0.0326
    --------------------------------------------
      LOOP:  cpu time   11.1741: real time   11.1778

 eigenvalue-minimisations  :   497
 total energy-change (2. order) :-0.8180738E-03  (-0.1948498E-04)
 number of electron     153.0000024 magnetization       1.0000000
 augmentation part       92.4200904 magnetization       0.0977737

 Broyden mixing:
  rms(total) = 0.13867E-02    rms(broyden)= 0.13866E-02
  rms(prec ) = 0.24693E-02
  weight for this iteration     100.00

 eigenvalues of (default mixing * dielectric matrix)
  average eigenvalue GAMMA=   1.4072
  5.3212  2.6609  2.2154  1.3674  1.3674  0.8899  0.8899  0.7399  0.7399  0.6314
  0.5214  0.4608  0.4880

 Free energy of the ion-electron system (eV)
  ---------------------------------------------------
  alpha Z        PSCENC =        41.16232785
  Ewald energy   TEWEN  =     16241.80113852
  -Hartree energ DENC   =    -33224.65086684
  -exchange      EXHF   =         0.00000000
  -V(xc)+E(xc)   XCENC  =       615.42344447
  PAW double counting   =     17634.30703248   -19032.58442502
  entropy T*S    EENTRO =         0.00932216
  eigenvalues    EBANDS =      -986.40755322
  atomic energy  EATOM  =     18662.21924712
  Solvation  Ediel_sol  =         0.00000000
  ---------------------------------------------------
  free energy    TOTEN  =       -48.72033248 eV

  energy without entropy =      -48.72965465  energy(sigma->0) =      -48.72343987


--------------------------------------------------------------------------------------------------------




--------------------------------------- Iteration      1(  19)  ---------------------------------------


    POTLOK:  cpu time    1.1824: real time    1.1843
    SETDIJ:  cpu time    0.0167: real time    0.0167
    EDDIAG:  cpu time    1.1032: real time    1.1037
  RMM-DIIS:  cpu time    7.1374: real time    7.1402
    ORTHCH:  cpu time    0.0545: real time    0.0545
       DOS:  cpu time    0.0004: real time    0.0004
    CHARGE:  cpu time    0.6729: real time    0.6732
    MIXING:  cpu time    0.0340: real time    0.0340
    --------------------------------------------
      LOOP:  cpu time   10.2016: real time   10.2070

 eigenvalue-minimisations  :   410
 total energy-change (2. order) :-0.7167881E-03  (-0.7661514E-05)
 number of electron     153.0000024 magnetization       1.0000000
 augmentation part       92.4203313 magnetization       0.0977985

 Broyden mixing:
  rms(total) = 0.10829E-02    rms(broyden)= 0.10829E-02
  rms(prec ) = 0.18300E-02
  weight for this iteration     100.00

 eigenvalues of (default mixing * dielectric matrix)
  average eigenvalue GAMMA=   1.4503
  6.0167  2.7466  2.2185  1.5937  1.5937  1.0657  0.8638  0.7516  0.7516  0.6783
  0.4600  0.4865  0.5165  0.5618

 Free energy of the ion-electron system (eV)
  ---------------------------------------------------
  alpha Z        PSCENC =        41.16232785
  Ewald energy   TEWEN  =     16241.80113852
  -Hartree energ DENC   =    -33224.96417140
  -exchange      EXHF   =         0.00000000
  -V(xc)+E(xc)   XCENC  =       615.42190807
  PAW double counting   =     17634.50108011   -19032.78528946
  entropy T*S    EENTRO =         0.00932222
  eigenvalues    EBANDS =      -986.08661230
  atomic energy  EATOM  =     18662.21924712
  Solvation  Ediel_sol  =         0.00000000
  ---------------------------------------------------
  free energy    TOTEN  =       -48.72104927 eV

  energy without entropy =      -48.73037149  energy(sigma->0) =      -48.72415668


--------------------------------------------------------------------------------------------------------




--------------------------------------- Iteration      1(  20)  ---------------------------------------


    POTLOK:  cpu time    1.1831: real time    1.1854
    SETDIJ:  cpu time    0.0164: real time    0.0164
    EDDIAG:  cpu time    1.1022: real time    1.1025
  RMM-DIIS:  cpu time    6.5694: real time    6.5717
    ORTHCH:  cpu time    0.0545: real time    0.0547
       DOS:  cpu time    0.0004: real time    0.0004
    CHARGE:  cpu time    0.6789: real time    0.6788
    MIXING:  cpu time    0.0355: real time    0.0355
    --------------------------------------------
      LOOP:  cpu time    9.6403: real time    9.6455

 eigenvalue-minimisations  :   402
 total energy-change (2. order) :-0.4567259E-03  (-0.3601622E-05)
 number of electron     153.0000024 magnetization       1.0000000
 augmentation part       92.4213688 magnetization       0.0977519

 Broyden mixing:
  rms(total) = 0.67576E-03    rms(broyden)= 0.67572E-03
  rms(prec ) = 0.11998E-02
  weight for this iteration     100.00

 eigenvalues of (default mixing * dielectric matrix)
  average eigenvalue GAMMA=   1.4658
  6.3878  2.8406  2.3328  2.0005  1.2991  1.2991  0.8551  0.8551  0.7375  0.7375
  0.6428  0.4603  0.4854  0.5263  0.5263

 Free energy of the ion-electron system (eV)
  ---------------------------------------------------
  alpha Z        PSCENC =        41.16232785
  Ewald energy   TEWEN  =     16241.80113852
  -Hartree energ DENC   =    -33225.02720166
  -exchange      EXHF   =         0.00000000
  -V(xc)+E(xc)   XCENC  =       615.41996145
  PAW double counting   =     17634.72788880   -19033.01018843
  entropy T*S    EENTRO =         0.00932239
  eigenvalues    EBANDS =      -986.02400202
  atomic energy  EATOM  =     18662.21924712
  Solvation  Ediel_sol  =         0.00000000
  ---------------------------------------------------
  free energy    TOTEN  =       -48.72150600 eV

  energy without entropy =      -48.73082838  energy(sigma->0) =      -48.72461346


--------------------------------------------------------------------------------------------------------




--------------------------------------- Iteration      1(  21)  ---------------------------------------


    POTLOK:  cpu time    1.1806: real time    1.1812
    SETDIJ:  cpu time    0.0165: real time    0.0165
    EDDIAG:  cpu time    1.1034: real time    1.1037
  RMM-DIIS:  cpu time    6.8672: real time    6.8699
    ORTHCH:  cpu time    0.0552: real time    0.0552
       DOS:  cpu time    0.0004: real time    0.0004
    CHARGE:  cpu time    0.6764: real time    0.6764
    MIXING:  cpu time    0.0368: real time    0.0368
    --------------------------------------------
      LOOP:  cpu time    9.9363: real time    9.9401

 eigenvalue-minimisations  :   398
 total energy-change (2. order) :-0.3549684E-03  (-0.2810354E-05)
 number of electron     153.0000024 magnetization       1.0000000
 augmentation part       92.4220313 magnetization       0.0977329

 Broyden mixing:
  rms(total) = 0.54407E-03    rms(broyden)= 0.54407E-03
  rms(prec ) = 0.87378E-03
  weight for this iteration     100.00

 eigenvalues of (default mixing * dielectric matrix)
  average eigenvalue GAMMA=   1.5286
  6.6906  3.4194  2.4600  2.1378  1.4693  1.4693  0.9612  0.9612  0.7554  0.7554
  0.7454  0.6520  0.4606  0.4844  0.5179  0.5179

 Free energy of the ion-electron system (eV)
  ---------------------------------------------------
  alpha Z        PSCENC =        41.16232785
  Ewald energy   TEWEN  =     16241.80113852
  -Hartree energ DENC   =    -33225.03535555
  -exchange      EXHF   =         0.00000000
  -V(xc)+E(xc)   XCENC  =       615.41839305
  PAW double counting   =     17634.98439717   -19033.26576310
  entropy T*S    EENTRO =         0.00932196
  eigenvalues    EBANDS =      -986.01556799
  atomic energy  EATOM  =     18662.21924712
  Solvation  Ediel_sol  =         0.00000000
  ---------------------------------------------------
  free energy    TOTEN  =       -48.72186097 eV

  energy without entropy =      -48.73118292  energy(sigma->0) =      -48.72496828


--------------------------------------------------------------------------------------------------------




--------------------------------------- Iteration      1(  22)  ---------------------------------------


    POTLOK:  cpu time    1.1792: real time    1.1799
    SETDIJ:  cpu time    0.0164: real time    0.0163
    EDDIAG:  cpu time    1.1031: real time    1.1034
  RMM-DIIS:  cpu time    6.5020: real time    6.5046
    ORTHCH:  cpu time    0.0557: real time    0.0557
       DOS:  cpu time    0.0004: real time    0.0004
    CHARGE:  cpu time    0.6752: real time    0.6755
    MIXING:  cpu time    0.0386: real time    0.0386
    --------------------------------------------
      LOOP:  cpu time    9.5705: real time    9.5745

 eigenvalue-minimisations  :   398
 total energy-change (2. order) :-0.2588191E-03  (-0.1799305E-05)
 number of electron     153.0000024 magnetization       1.0000000
 augmentation part       92.4215642 magnetization       0.0977292

 Broyden mixing:
  rms(total) = 0.34196E-03    rms(broyden)= 0.34193E-03
  rms(prec ) = 0.53378E-03
  weight for this iteration     100.00

 eigenvalues of (default mixing * dielectric matrix)
  average eigenvalue GAMMA=   1.5513
  7.0514  3.9932  2.5067  2.1227  1.5463  1.3185  1.3185  0.8456  0.8456  0.7582
  0.7582  0.7048  0.6285  0.4604  0.4834  0.5171  0.5120

 Free energy of the ion-electron system (eV)
  ---------------------------------------------------
  alpha Z        PSCENC =        41.16232785
  Ewald energy   TEWEN  =     16241.80113852
  -Hartree energ DENC   =    -33225.15136385
  -exchange      EXHF   =         0.00000000
  -V(xc)+E(xc)   XCENC  =       615.41809177
  PAW double counting   =     17635.16466235   -19033.45038267
  entropy T*S    EENTRO =         0.00932206
  eigenvalues    EBANDS =      -985.89516294
  atomic energy  EATOM  =     18662.21924712
  Solvation  Ediel_sol  =         0.00000000
  ---------------------------------------------------
  free energy    TOTEN  =       -48.72211978 eV

  energy without entropy =      -48.73144185  energy(sigma->0) =      -48.72522714


--------------------------------------------------------------------------------------------------------




--------------------------------------- Iteration      1(  23)  ---------------------------------------


    POTLOK:  cpu time    1.1803: real time    1.1806
    SETDIJ:  cpu time    0.0164: real time    0.0164
    EDDIAG:  cpu time    1.1020: real time    1.1025
  RMM-DIIS:  cpu time    6.8555: real time    6.8580
    ORTHCH:  cpu time    0.0579: real time    0.0579
       DOS:  cpu time    0.0004: real time    0.0004
    CHARGE:  cpu time    0.6749: real time    0.6752
    MIXING:  cpu time    0.0421: real time    0.0421
    --------------------------------------------
      LOOP:  cpu time    9.9294: real time    9.9331

 eigenvalue-minimisations  :   401
 total energy-change (2. order) :-0.1085893E-03  (-0.6436420E-06)
 number of electron     153.0000024 magnetization       1.0000000
 augmentation part       92.4209976 magnetization       0.0977237

 Broyden mixing:
  rms(total) = 0.23760E-03    rms(broyden)= 0.23759E-03
  rms(prec ) = 0.36698E-03
  weight for this iteration     100.00

 eigenvalues of (default mixing * dielectric matrix)
  average eigenvalue GAMMA=   1.5843
  7.4456  4.3601  2.4931  2.2636  1.7648  1.3640  1.3640  0.9762  0.9762  0.7667
  0.7667  0.7383  0.6793  0.5890  0.4605  0.4835  0.5132  0.5132

 Free energy of the ion-electron system (eV)
  ---------------------------------------------------
  alpha Z        PSCENC =        41.16232785
  Ewald energy   TEWEN  =     16241.80113852
  -Hartree energ DENC   =    -33225.21315593
  -exchange      EXHF   =         0.00000000
  -V(xc)+E(xc)   XCENC  =       615.41865357
  PAW double counting   =     17635.17661239   -19033.46644707
  entropy T*S    EENTRO =         0.00932200
  eigenvalues    EBANDS =      -985.82992682
  atomic energy  EATOM  =     18662.21924712
  Solvation  Ediel_sol  =         0.00000000
  ---------------------------------------------------
  free energy    TOTEN  =       -48.72222837 eV

  energy without entropy =      -48.73155037  energy(sigma->0) =      -48.72533571


--------------------------------------------------------------------------------------------------------




--------------------------------------- Iteration      1(  24)  ---------------------------------------


    POTLOK:  cpu time    1.1816: real time    1.1836
    SETDIJ:  cpu time    0.0167: real time    0.0167
    EDDIAG:  cpu time    1.1036: real time    1.1050
  RMM-DIIS:  cpu time    6.8007: real time    6.8261
    ORTHCH:  cpu time    0.0565: real time    0.0565
       DOS:  cpu time    0.0004: real time    0.0004
    CHARGE:  cpu time    0.6758: real time    0.6761
    MIXING:  cpu time    0.0425: real time    0.0425
    --------------------------------------------
      LOOP:  cpu time    9.8778: real time    9.9070

 eigenvalue-minimisations  :   393
 total energy-change (2. order) :-0.1023431E-03  (-0.7778770E-06)
 number of electron     153.0000024 magnetization       1.0000000
 augmentation part       92.4209800 magnetization       0.0977267

 Broyden mixing:
  rms(total) = 0.20545E-03    rms(broyden)= 0.20544E-03
  rms(prec ) = 0.28613E-03
  weight for this iteration     100.00

 eigenvalues of (default mixing * dielectric matrix)
  average eigenvalue GAMMA=   1.5910
  7.7045  4.5994  2.4589  2.4589  1.8216  1.4388  1.4388  0.9023  0.9023  0.8898
  0.8898  0.7572  0.7572  0.6332  0.6031  0.4604  0.4837  0.5146  0.5146

 Free energy of the ion-electron system (eV)
  ---------------------------------------------------
  alpha Z        PSCENC =        41.16232785
  Ewald energy   TEWEN  =     16241.80113852
  -Hartree energ DENC   =    -33225.22723896
  -exchange      EXHF   =         0.00000000
  -V(xc)+E(xc)   XCENC  =       615.41882572
  PAW double counting   =     17635.06913474   -19033.35687441
  entropy T*S    EENTRO =         0.00932205
  eigenvalues    EBANDS =      -985.81821334
  atomic energy  EATOM  =     18662.21924712
  Solvation  Ediel_sol  =         0.00000000
  ---------------------------------------------------
  free energy    TOTEN  =       -48.72233072 eV

  energy without entropy =      -48.73165276  energy(sigma->0) =      -48.72543807


--------------------------------------------------------------------------------------------------------




--------------------------------------- Iteration      1(  25)  ---------------------------------------


    POTLOK:  cpu time    1.1686: real time    1.1806
    SETDIJ:  cpu time    0.0166: real time    0.0166
    EDDIAG:  cpu time    1.1038: real time    1.1049
  RMM-DIIS:  cpu time    6.3754: real time    6.3789
    ORTHCH:  cpu time    0.0561: real time    0.0561
       DOS:  cpu time    0.0004: real time    0.0004
    CHARGE:  cpu time    0.6748: real time    0.6750
    MIXING:  cpu time    0.0454: real time    0.0454
    --------------------------------------------
      LOOP:  cpu time    9.4410: real time    9.4579

 eigenvalue-minimisations  :   395
 total energy-change (2. order) :-0.5673126E-04  (-0.4606242E-06)
 number of electron     153.0000024 magnetization       1.0000000
 augmentation part       92.4214327 magnetization       0.0977354

 Broyden mixing:
  rms(total) = 0.12766E-03    rms(broyden)= 0.12765E-03
  rms(prec ) = 0.17957E-03
  weight for this iteration     100.00

 eigenvalues of (default mixing * dielectric matrix)
  average eigenvalue GAMMA=   1.6298
  7.9542  5.0070  2.6323  2.6323  1.8249  1.8249  1.2896  1.2896  0.9816  0.9816
  0.7708  0.7708  0.7196  0.7196  0.6223  0.6043  0.4604  0.4828  0.5138  0.5138

 Free energy of the ion-electron system (eV)
  ---------------------------------------------------
  alpha Z        PSCENC =        41.16232785
  Ewald energy   TEWEN  =     16241.80113852
  -Hartree energ DENC   =    -33225.20581195
  -exchange      EXHF   =         0.00000000
  -V(xc)+E(xc)   XCENC  =       615.41823056
  PAW double counting   =     17634.95584376   -19033.23710611
  entropy T*S    EENTRO =         0.00932209
  eigenvalues    EBANDS =      -985.84557928
  atomic energy  EATOM  =     18662.21924712
  Solvation  Ediel_sol  =         0.00000000
  ---------------------------------------------------
  free energy    TOTEN  =       -48.72238745 eV

  energy without entropy =      -48.73170954  energy(sigma->0) =      -48.72549481


--------------------------------------------------------------------------------------------------------




--------------------------------------- Iteration      1(  26)  ---------------------------------------


    POTLOK:  cpu time    1.1798: real time    1.1817
    SETDIJ:  cpu time    0.0167: real time    0.0167
    EDDIAG:  cpu time    1.1044: real time    1.1049
  RMM-DIIS:  cpu time    6.4015: real time    6.4046
    ORTHCH:  cpu time    0.0561: real time    0.0561
       DOS:  cpu time    0.0004: real time    0.0004
    CHARGE:  cpu time    0.6741: real time    0.6745
    MIXING:  cpu time    0.0482: real time    0.0482
    --------------------------------------------
      LOOP:  cpu time    9.4812: real time    9.4870

 eigenvalue-minimisations  :   380
 total energy-change (2. order) :-0.2750326E-04  (-0.2472421E-06)
 number of electron     153.0000024 magnetization       1.0000000
 augmentation part       92.4214244 magnetization       0.0977363

 Broyden mixing:
  rms(total) = 0.69821E-04    rms(broyden)= 0.69814E-04
  rms(prec ) = 0.10257E-03
  weight for this iteration     100.00

 eigenvalues of (default mixing * dielectric matrix)
  average eigenvalue GAMMA=   1.6408
  8.1175  5.3727  3.0439  2.5204  2.0706  1.7317  1.3433  1.3433  0.9662  0.9662
  0.8440  0.8440  0.7445  0.7445  0.6373  0.6373  0.4604  0.5562  0.4829  0.5192
  0.5097

 Free energy of the ion-electron system (eV)
  ---------------------------------------------------
  alpha Z        PSCENC =        41.16232785
  Ewald energy   TEWEN  =     16241.80113852
  -Hartree energ DENC   =    -33225.20905557
  -exchange      EXHF   =         0.00000000
  -V(xc)+E(xc)   XCENC  =       615.41819485
  PAW double counting   =     17634.93019224   -19033.21102610
  entropy T*S    EENTRO =         0.00932208
  eigenvalues    EBANDS =      -985.84275594
  atomic energy  EATOM  =     18662.21924712
  Solvation  Ediel_sol  =         0.00000000
  ---------------------------------------------------
  free energy    TOTEN  =       -48.72241495 eV

  energy without entropy =      -48.73173703  energy(sigma->0) =      -48.72552231


--------------------------------------------------------------------------------------------------------




--------------------------------------- Iteration      1(  27)  ---------------------------------------


    POTLOK:  cpu time    1.1801: real time    1.1806
    SETDIJ:  cpu time    0.0167: real time    0.0167
    EDDIAG:  cpu time    1.1048: real time    1.1054
  RMM-DIIS:  cpu time    4.6834: real time    4.6856
    ORTHCH:  cpu time    0.0557: real time    0.0557
       DOS:  cpu time    0.0004: real time    0.0004
    CHARGE:  cpu time    0.6729: real time    0.6732
    MIXING:  cpu time    0.0517: real time    0.0518
    --------------------------------------------
      LOOP:  cpu time    7.7657: real time    7.7695

 eigenvalue-minimisations  :   270
 total energy-change (2. order) :-0.1236108E-04  (-0.9763247E-07)
 number of electron     153.0000024 magnetization       1.0000000
 augmentation part       92.4213095 magnetization       0.0977280

 Broyden mixing:
  rms(total) = 0.57012E-04    rms(broyden)= 0.57010E-04
  rms(prec ) = 0.80553E-04
  weight for this iteration     100.00

 eigenvalues of (default mixing * dielectric matrix)
  average eigenvalue GAMMA=   1.6476
  8.1753  5.6798  3.2448  2.5339  2.0900  1.7774  1.3424  1.3424  1.0325  1.0325
  1.0447  0.7601  0.7601  0.8261  0.7572  0.6498  0.6498  0.5746  0.4604  0.4833
  0.5147  0.5147

 Free energy of the ion-electron system (eV)
  ---------------------------------------------------
  alpha Z        PSCENC =        41.16232785
  Ewald energy   TEWEN  =     16241.80113852
  -Hartree energ DENC   =    -33225.21492419
  -exchange      EXHF   =         0.00000000
  -V(xc)+E(xc)   XCENC  =       615.41833366
  PAW double counting   =     17634.93204208   -19033.21433608
  entropy T*S    EENTRO =         0.00932208
  eigenvalues    EBANDS =      -985.83557835
  atomic energy  EATOM  =     18662.21924712
  Solvation  Ediel_sol  =         0.00000000
  ---------------------------------------------------
  free energy    TOTEN  =       -48.72242731 eV

  energy without entropy =      -48.73174939  energy(sigma->0) =      -48.72553467


--------------------------------------------------------------------------------------------------------




--------------------------------------- Iteration      1(  28)  ---------------------------------------


    POTLOK:  cpu time    1.1811: real time    1.1831
    SETDIJ:  cpu time    0.0161: real time    0.0160
    EDDIAG:  cpu time    1.1038: real time    1.1043
  RMM-DIIS:  cpu time    4.5720: real time    4.5738
    ORTHCH:  cpu time    0.0561: real time    0.0561
       DOS:  cpu time    0.0004: real time    0.0004
    CHARGE:  cpu time    0.6733: real time    0.6737
    MIXING:  cpu time    0.0563: real time    0.0563
[...]
     66      -4.9172      1.00000
     67      -4.8875      1.00000
     68      -4.8726      1.00000
     69      -4.8506      1.00000
     70      -4.8232      1.00000
     71      -4.7739      1.00000
     72      -4.7510      1.00000
     73      -4.7246      1.00000
     74      -4.5427      1.00000
     75      -4.1787      1.00000
     76      -4.1223      1.00000
     77      -3.5922      1.00000
     78      -2.9858     -0.00000
     79      -2.9589     -0.00000
     80      -2.4235     -0.00000
     81      -2.3299     -0.00000
     82      -1.9818     -0.00000
     83      -1.8718     -0.00000
     84      -1.7620     -0.00000
     85      -1.4583     -0.00000
     86      -1.0379     -0.00000
     87      -0.9707     -0.00000
     88      -0.6873      0.00000
     89      -0.3659      0.00000
     90      -0.3056      0.00000
     91      -0.0569      0.00000
     92       0.1506      0.00000

 spin component 2

 k-point     1 :       0.0000    0.0000    0.0000
  band No.  band energies     occupation 
      1     -28.5387      1.00000
      2     -13.7464      1.00000
      3     -11.3291      1.00000
      4     -11.1751      1.00000
      5     -10.7285      1.00000
      6     -10.0028      1.00000
      7      -8.5742      1.00000
      8      -8.0809      1.00000
      9      -7.5938      1.00000
     10      -7.4214      1.00000
     11      -7.3689      1.00000
     12      -7.1676      1.00000
     13      -7.1105      1.00000
     14      -7.0073      1.00000
     15      -6.9483      1.00000
     16      -6.9071      1.00000
     17      -6.7940      1.00000
     18      -6.6442      1.00000
     19      -6.6362      1.00000
     20      -6.6055      1.00000
     21      -6.5763      1.00000
     22      -6.5167      1.00000
     23      -6.4873      1.00000
     24      -6.4418      1.00000
     25      -6.3920      1.00000
     26      -6.3410      1.00000
     27      -6.2912      1.00000
     28      -6.2431      1.00000
     29      -6.2007      1.00000
     30      -6.1655      1.00000
     31      -6.1228      1.00000
     32      -6.0721      1.00000
     33      -6.0397      1.00000
     34      -5.9676      1.00000
     35      -5.9231      1.00000
     36      -5.7995      1.00000
     37      -5.7278      1.00000
     38      -5.6318      1.00000
     39      -5.6155      1.00000
     40      -5.5880      1.00000
     41      -5.5603      1.00000
     42      -5.4919      1.00000
     43      -5.4503      1.00000
     44      -5.4467      1.00000
     45      -5.4125      1.00000
     46      -5.3658      1.00000
     47      -5.3320      1.00000
     48      -5.3247      1.00000
     49      -5.2923      1.00000
     50      -5.2793      1.00000
     51      -5.2681      1.00000
     52      -5.2353      1.00000
     53      -5.2132      1.00000
     54      -5.1979      1.00000
     55      -5.1861      1.00000
     56      -5.1596      1.00000
     57      -5.1550      1.00000
     58      -5.0987      1.00000
     59      -5.0737      1.00000
     60      -5.0348      1.00000
     61      -5.0060      1.00000
     62      -4.9821      1.00000
     63      -4.9702      1.00000
     64      -4.9449      1.00000
     65      -4.9075      1.00000
     66      -4.8904      1.00000
     67      -4.8603      1.00000
     68      -4.8280      1.00000
     69      -4.8241      1.00000
     70      -4.7905      1.00000
     71      -4.7410      1.00000
     72      -4.7246      1.00000
     73      -4.6934      1.00000
     74      -4.5013      1.00000
     75      -4.1288      1.03494
     76      -4.0718      0.96506
     77      -3.3987     -0.00000
     78      -2.9339     -0.00000
     79      -2.9029     -0.00000
     80      -2.3448     -0.00000
     81      -2.2199     -0.00000
     82      -1.9407     -0.00000
     83      -1.7911     -0.00000
     84      -1.7024     -0.00000
     85      -1.3430     -0.00000
     86      -0.9382      0.00000
     87      -0.8839      0.00000
     88      -0.6144      0.00000
     89      -0.2846      0.00000
     90      -0.2111      0.00000
     91      -0.0121      0.00000
     92       0.1944      0.00000


--------------------------------------------------------------------------------------------------------


 soft charge-density along one line, spin component           1
         0         1         2         3         4         5         6         7         8         9
 total charge-density along one line
 
 soft charge-density along one line, spin component           2
         0         1         2         3         4         5         6         7         8         9
 total charge-density along one line
 
 pseudopotential strength for first ion, spin component:           1
-10.454   0.000  -0.012  -0.004  -0.013   0.970  -0.000   0.011
  0.000 -10.435  -0.008   0.005   0.005  -0.000   0.955   0.006
 -0.012  -0.008 -10.423   0.003  -0.008   0.011   0.006   0.944
 -0.004   0.005   0.003 -10.432   0.000   0.003  -0.006  -0.002
 -0.013   0.005  -0.008   0.000 -10.443   0.010  -0.004   0.007
  0.970  -0.000   0.011   0.003   0.010   6.328   0.000  -0.010
 -0.000   0.955   0.006  -0.006  -0.004   0.000   6.336  -0.004
  0.011   0.006   0.944  -0.002   0.007  -0.010  -0.004   6.345
  0.003  -0.006  -0.002   0.950   0.000  -0.002   0.006   0.001
  0.010  -0.004   0.007   0.000   0.961  -0.007   0.002  -0.006
 -0.006   0.001  -0.004  -0.000  -0.003   0.005  -0.000   0.000
 -0.012   0.002  -0.008  -0.000  -0.007   0.009  -0.000  -0.000
 -0.016   0.001   0.005   0.000   0.009   0.010  -0.000  -0.003
  0.000  -0.008   0.001  -0.015  -0.000   0.000   0.005  -0.000
 -0.006   0.000   0.010   0.001  -0.015   0.003   0.000  -0.006
 -0.018   0.001   0.005   0.000   0.010   0.009  -0.000  -0.004
  0.000  -0.008   0.001  -0.016  -0.000   0.000   0.004  -0.000
 -0.006   0.000   0.011   0.001  -0.016   0.002   0.000  -0.006
 pseudopotential strength for first ion, spin component:           2
-10.411   0.002  -0.004  -0.009   0.006   0.935  -0.002   0.003
  0.002 -10.419  -0.007   0.003   0.005  -0.002   0.941   0.005
 -0.004  -0.007 -10.406   0.002  -0.003   0.003   0.005   0.930
 -0.009   0.003   0.002 -10.417  -0.002   0.006  -0.003  -0.002
  0.006   0.005  -0.003  -0.002 -10.420  -0.004  -0.004   0.003
  0.935  -0.002   0.003   0.006  -0.004   6.351   0.001  -0.003
 -0.002   0.941   0.005  -0.003  -0.004   0.001   6.345  -0.004
  0.003   0.005   0.930  -0.002   0.003  -0.003  -0.004   6.352
  0.006  -0.003  -0.002   0.938   0.002  -0.004   0.002   0.001
 -0.004  -0.004   0.003   0.002   0.941   0.003   0.003  -0.002
 -0.002   0.002  -0.001  -0.000  -0.001   0.001  -0.000  -0.001
 -0.004   0.003  -0.002  -0.001  -0.002   0.001  -0.001  -0.002
 -0.017   0.001   0.006   0.000   0.009   0.012  -0.001  -0.005
  0.000  -0.009   0.001  -0.016   0.000  -0.000   0.006  -0.001
 -0.010   0.000   0.010   0.001  -0.017   0.007  -0.000  -0.008
 -0.019   0.001   0.006   0.000   0.010   0.013  -0.001  -0.006
  0.000  -0.010   0.002  -0.018   0.000  -0.000   0.006  -0.001
 -0.011   0.000   0.012   0.002  -0.019   0.008  -0.000  -0.009
 total augmentation occupancy for first ion, spin component:           1
  1.934   0.002  -0.008  -0.001  -0.007  -0.017  -0.001   0.005   0.001   0.003  -0.015   0.012   0.027   0.002   0.032  -0.022
  0.002   1.930  -0.005   0.004  -0.001  -0.001  -0.021   0.004  -0.001   0.001   0.003  -0.000   0.001   0.036  -0.001   0.001
 -0.008  -0.005   1.949   0.003  -0.005   0.005   0.004  -0.029  -0.003   0.004  -0.007   0.009  -0.014  -0.003  -0.016   0.007
 -0.001   0.004   0.003   1.934  -0.004   0.001  -0.001  -0.003  -0.020   0.001   0.004   0.001   0.008   0.066  -0.005  -0.000
 -0.007  -0.001  -0.005  -0.004   1.939   0.003   0.001   0.004   0.001  -0.017  -0.005   0.006  -0.017   0.002   0.040   0.013
 -0.017  -0.001   0.005   0.001   0.003   0.011   0.000   0.001   0.000   0.001  -0.021  -0.000   0.018   0.000   0.007  -0.001
 -0.001  -0.021   0.004  -0.001   0.001   0.000   0.007   0.000   0.001  -0.000   0.006  -0.001   0.001   0.011   0.001  -0.000
  0.005   0.004  -0.029  -0.003   0.004   0.001   0.000   0.006  -0.000   0.001  -0.032   0.004  -0.006  -0.001  -0.006   0.001
  0.001  -0.001  -0.003  -0.020   0.001   0.000   0.001  -0.000   0.008  -0.001  -0.006   0.000  -0.001   0.017  -0.002  -0.000
  0.003   0.001   0.004   0.001  -0.017   0.001  -0.000   0.001  -0.001   0.011  -0.012   0.000  -0.020  -0.002   0.020   0.001
 -0.015   0.003  -0.007   0.004  -0.005  -0.021   0.006  -0.032  -0.006  -0.012   1.571  -0.104   0.116  -0.009   0.175  -0.016
  0.012  -0.000   0.009   0.001   0.006  -0.000  -0.001   0.004   0.000   0.000  -0.104   0.012  -0.016   0.000  -0.024   0.002
  0.027   0.001  -0.014   0.008  -0.017   0.018   0.001  -0.006  -0.001  -0.020   0.116  -0.016   0.159   0.002  -0.032  -0.010
  0.002   0.036  -0.003   0.066   0.002   0.000   0.011  -0.001   0.017  -0.002  -0.009   0.000   0.002   0.073  -0.004  -0.000
  0.032  -0.001  -0.016  -0.005   0.040   0.007   0.001  -0.006  -0.002   0.020   0.175  -0.024  -0.032  -0.004   0.121   0.001
 -0.022   0.001   0.007  -0.000   0.013  -0.001  -0.000   0.001  -0.000   0.001  -0.016   0.002  -0.010  -0.000   0.001   0.001
  0.000  -0.014   0.002  -0.024   0.000  -0.000  -0.000   0.000  -0.001   0.000   0.001  -0.000  -0.000  -0.005   0.000   0.000
 -0.013   0.000   0.012   0.001  -0.023  -0.000  -0.000   0.001   0.000  -0.001  -0.025   0.002   0.001   0.000  -0.009   0.000
 total augmentation occupancy for first ion, spin component:           2
  0.017   0.000   0.003  -0.002   0.011  -0.003  -0.000  -0.002   0.001  -0.003   0.034   0.006  -0.007   0.003  -0.018  -0.001
  0.000   0.000   0.000   0.001   0.000  -0.000   0.001  -0.000   0.001   0.000   0.000  -0.000   0.000  -0.001  -0.000   0.000
  0.003   0.000   0.002  -0.001   0.002  -0.002  -0.000   0.001   0.000  -0.001   0.006   0.000   0.000   0.002  -0.001   0.000
 -0.002   0.001  -0.001   0.002  -0.002   0.001   0.001   0.000   0.002   0.000  -0.006  -0.001   0.001  -0.004   0.003   0.000
  0.011   0.000   0.002  -0.002   0.006  -0.003   0.000  -0.001   0.000   0.000   0.019   0.003  -0.002   0.002  -0.013  -0.000
 -0.003  -0.000  -0.002   0.001  -0.003   0.001   0.000   0.000  -0.000   0.001  -0.007  -0.001   0.001  -0.001   0.004   0.000
 -0.000   0.001  -0.000   0.001   0.000   0.000  -0.000   0.000  -0.000   0.000  -0.000   0.000   0.000   0.000  -0.000   0.000
 -0.002  -0.000   0.001   0.000  -0.001   0.000   0.000   0.000  -0.000   0.000  -0.002  -0.000   0.000  -0.000   0.001   0.000
  0.001   0.001   0.000   0.002   0.000  -0.000  -0.000  -0.000  -0.000  -0.000   0.001   0.000  -0.000   0.000  -0.001  -0.000
 -0.003   0.000  -0.001   0.000   0.000   0.001   0.000   0.000  -0.000   0.000  -0.003  -0.000   0.001  -0.000   0.002   0.000
  0.034   0.000   0.006  -0.006   0.019  -0.007  -0.000  -0.002   0.001  -0.003   0.074   0.004  -0.012   0.007  -0.036  -0.000
  0.006  -0.000   0.000  -0.001   0.003  -0.001   0.000  -0.000   0.000  -0.000   0.004   0.000  -0.001   0.000  -0.002  -0.000
 -0.007   0.000   0.000   0.001  -0.002   0.001   0.000   0.000  -0.000   0.001  -0.012  -0.001   0.001  -0.001   0.003   0.000
  0.003  -0.001   0.002  -0.004   0.002  -0.001   0.000  -0.000   0.000  -0.000   0.007   0.000  -0.001   0.001  -0.002  -0.000
 -0.018  -0.000  -0.001   0.003  -0.013   0.004  -0.000   0.001  -0.001   0.002  -0.036  -0.002   0.003  -0.002   0.013   0.000
 -0.001   0.000   0.000   0.000  -0.000   0.000   0.000   0.000  -0.000   0.000  -0.000  -0.000   0.000  -0.000   0.000   0.000
  0.000  -0.000   0.000  -0.001   0.000   0.000  -0.000  -0.000  -0.000  -0.000  -0.000   0.000  -0.000   0.000  -0.000  -0.000
 -0.001   0.000   0.000   0.000  -0.001   0.000   0.000   0.000  -0.000   0.000  -0.000  -0.000   0.000  -0.000   0.000   0.000


------------------------ aborting loop because EDIFF is reached ----------------------------------------


    CHARGE:  cpu time    0.6704: real time    0.6708
    FORLOC:  cpu time    0.0657: real time    0.0657
    FORNL :  cpu time    1.5334: real time    1.5336
    STRESS:  cpu time    6.1888: real time    6.1916
    FORCOR:  cpu time    1.1847: real time    1.1854
    FORHAR:  cpu time    0.1893: real time    0.1894
    MIXING:  cpu time    0.1114: real time    0.1114
    OFIELD:  cpu time    0.0001: real time    0.0001

  FORCE on cell =-STRESS in cart. coord.  units (eV):
  Direction    XX          YY          ZZ          XY          YZ          ZX
  --------------------------------------------------------------------------------------
  Alpha Z    41.16233    41.16233    41.16233
  Ewald   10303.89800  7678.10808 -1740.22101  -675.40618   296.49755   286.28728
  Hartree 15417.64988 13125.58462  4681.99005  -660.26614   273.55628   245.75696
  E(xc)    -876.27320  -877.54529  -879.53897     0.23434    -0.00397     0.11530
  Local  -27118.13503-22230.34130 -4378.42413  1346.19610  -569.28342  -530.26092
  n-local  -329.63464  -324.04263  -328.49849    -4.52233    -0.01503     0.85540
  augment  1221.93487  1226.29795  1232.49084     0.16717    -0.09934    -0.80324
  Kinetic  1338.74001  1360.07226  1370.17737    -7.11697    -1.00165    -1.17061
  Fock        0.00000     0.00000     0.00000     0.00000     0.00000     0.00000
  -------------------------------------------------------------------------------------
  Total      -0.65779    -0.70398    -0.86201    -0.71402    -0.34958     0.78019
  in kB      -0.31227    -0.33419    -0.40921    -0.33896    -0.16595     0.37037
  external pressure =       -0.35 kB  Pullay stress =        0.00 kB


 VOLUME and BASIS-vectors are now :
 -----------------------------------------------------------------------------
  energy-cutoff  :      600.00
  volume of cell :     3375.00
      direct lattice vectors                 reciprocal lattice vectors
    15.000000000  0.000000000  0.000000000     0.066666667  0.000000000  0.000000000
     0.000000000 15.000000000  0.000000000     0.000000000  0.066666667  0.000000000
     0.000000000  0.000000000 15.000000000     0.000000000  0.000000000  0.066666667

  length of vectors
    15.000000000 15.000000000 15.000000000     0.066666667  0.066666667  0.066666667


 FORCES acting on ions
    electron-ion (+dipol)            ewald-force                    non-local-force                 convergence-correction
 -----------------------------------------------------------------------------------------------
   0.109E+04 0.678E+03 -.281E+01   -.109E+04 -.674E+03 0.241E+01   -.542E+01 -.329E+01 0.425E+00   -.314E-04 -.486E-05 -.389E-05
   0.380E+03 -.332E+03 0.982E+03   -.379E+03 0.329E+03 -.981E+03   -.968E+00 0.243E+01 -.590E+00   -.117E-04 -.713E-06 -.596E-04
   0.294E+03 0.124E+04 -.216E+03   -.292E+03 -.123E+04 0.214E+03   -.250E+01 -.892E+01 0.247E+01   0.125E-04 -.150E-04 -.876E-05
   -.830E+03 -.157E+03 0.864E+03   0.827E+03 0.156E+03 -.859E+03   0.225E+01 0.178E+01 -.412E+01   0.364E-04 -.990E-05 -.132E-04
   -.821E+03 0.999E+03 0.215E+03   0.816E+03 -.993E+03 -.214E+03   0.540E+01 -.560E+01 -.103E+01   0.264E-04 -.481E-05 0.120E-05
   -.797E+02 0.528E+03 -.963E+03   0.785E+02 -.525E+03 0.962E+03   0.157E+01 -.334E+01 0.352E+00   0.164E-04 -.470E-05 0.566E-04
   0.204E+03 0.614E+03 0.118E+04   -.203E+03 -.609E+03 -.118E+04   -.151E+01 -.446E+01 -.569E+01   0.707E-05 0.287E-05 -.237E-04
   0.128E+04 -.385E+03 0.193E+03   -.127E+04 0.383E+03 -.190E+03   -.879E+01 0.252E+01 -.293E+01   -.277E-04 -.137E-04 0.605E-05
   0.609E+03 -.211E+03 -.120E+04   -.605E+03 0.211E+03 0.119E+04   -.364E+01 -.164E+00 0.609E+01   -.417E-05 0.491E-05 0.389E-04
   0.405E+03 -.129E+04 -.149E+03   -.403E+03 0.128E+04 0.147E+03   -.211E+01 0.733E+01 0.160E+01   0.848E-06 0.431E-04 0.846E-05
   -.538E+03 -.103E+04 0.622E+03   0.533E+03 0.102E+04 -.616E+03   0.509E+01 0.606E+01 -.621E+01   0.347E-05 0.133E-04 0.394E-05
   -.847E+03 0.688E+02 -.474E+03   0.845E+03 -.677E+02 0.470E+03   0.201E+01 -.149E+01 0.456E+01   0.369E-04 0.353E-07 -.493E-05
   -.557E+03 -.710E+03 -.871E+03   0.555E+03 0.705E+03 0.867E+03   0.217E+01 0.439E+01 0.286E+01   0.309E-04 0.132E-06 0.352E-04
   -.131E+03 0.104E+03 -.101E+03   0.112E+03 -.112E+03 0.102E+03   0.186E+02 0.873E+01 -.536E+00   0.143E-04 -.634E-06 0.829E-06
   -.420E+03 -.990E+02 -.822E+02   0.475E+03 0.123E+03 0.830E+02   -.549E+02 -.240E+02 -.912E+00   0.496E-05 -.575E-05 -.119E-05
 -----------------------------------------------------------------------------------------------
   0.427E+02 0.180E+02 0.365E+01   -.171E-12 0.341E-12 0.853E-13   -.427E+02 -.180E+02 -.365E+01   0.115E-03 0.433E-05 0.360E-04
 
 
 POSITION                                       TOTAL-FORCE (eV/Angst)
 -----------------------------------------------------------------------------------
      4.27016      6.27243      8.26949         0.538534      0.104862      0.021432
      5.59395      8.27305      7.27863         0.726024     -0.341712     -0.084960
      5.94602      4.30583      8.47680        -0.169384      0.312120     -0.049831
      8.01146      7.55572      7.29109        -0.315312      0.431182     -0.030342
      8.14022      5.20275      7.86999         0.297355      0.027632      0.358959
      6.58868      6.53979      9.28357         0.401960     -0.460462     -0.561450
      6.23909      6.00536      6.74149        -0.375366     -0.017116      0.249137
      3.47124      8.59868      8.14135        -0.963669      0.259009     -0.313403
      4.99318      8.24596      9.76775         0.325897     -0.274586      0.414359
      5.35501     10.23410      8.50511         0.009231      0.462196      0.143555
      7.44423     10.06430      7.26721        -0.154666     -0.428702      0.161719
      9.35621      7.18760      9.17972        -0.035668     -0.400884     -0.045793
      7.32589      8.80744      9.33412         0.106714      0.090802     -0.368717
     11.19590      7.16284      9.52899        -1.012093      0.241862      0.181932
     12.25470      7.61470      9.54282         0.620443     -0.006205     -0.076597
 -----------------------------------------------------------------------------------
    total drift:                                0.001336     -0.000115      0.000303


--------------------------------------------------------------------------------------------------------



  FREE ENERGIE OF THE ION-ELECTRON SYSTEM (eV)
  ---------------------------------------------------
  free  energy   TOTEN  =       -48.72244144 eV

  energy  without entropy=      -48.73176345  energy(sigma->0) =      -48.72554878
 


--------------------------------------------------------------------------------------------------------


    POTLOK:  cpu time    1.2006: real time    1.2009


--------------------------------------------------------------------------------------------------------


     LOOP+:  cpu time  351.8389: real time  352.0777
    4ORBIT:  cpu time    0.0000: real time    0.0000

 total amount of memory used by VASP MPI-rank0   158680. kBytes
=======================================================================

   base      :      30000. kBytes
   nonl-proj :      12601. kBytes
   fftplans  :      27994. kBytes
   grid      :      74150. kBytes
   one-center:         93. kBytes
   wavefun   :      13842. kBytes
 
  
  
 General timing and accounting informations for this job:
 ========================================================
  
                  Total CPU time used (sec):      355.847
                            User time (sec):      343.318
                          System time (sec):       12.529
                         Elapsed time (sec):      356.126
  
                   Maximum memory used (kb):      280856.
                   Average memory used (kb):           0.
  
                          Minor page faults:       289772
                          Major page faults:            0
                 Voluntary context switches:          723
