<?xml version="1.0" encoding="ISO-8859-1"?>
<modeling>
 <generator>
  <i name="program" type="string">vasp </i>
  <i name="version" type="string">5.4.4.18Apr17-6-g9f103f2a35  </i>
  <i name="subversion" type="string">(build May 08 2019 13:49:07) complex            parallel </i>
  <i name="platform" type="string">LinuxIFC </i>
  <i name="date" type="string">2019 11 13 </i>
  <i name="time" type="string">15:02:05 </i>
 </generator>
 <incar>
  <i type="string" name="SYSTEM"> CuCO</i>
  <i type="int" name="ISTART">     0</i>
  <i type="string" name="PREC">accurate</i>
  <i type="string" name="ALGO"> Fast</i>
  <i type="int" name="ISPIN">     2</i>
  <i type="int" name="INIWAV">     1</i>
  <i type="int" name="NELM">   300</i>
  <i type="int" name="NELMIN">     3</i>
  <i type="int" name="IBRION">    -1</i>
  <i name="EDIFF">      0.00000010</i>
  <i name="EDIFFG">     -0.00100000</i>
  <i type="int" name="NSW">     0</i>
  <i type="int" name="ISYM">     0</i>
  <i name="ENCUT">    600.00000000</i>
  <i name="NUPDOWN">      1.00000000</i>
  <i type="logical" name="LREAL"> F  </i>
  <i type="int" name="ISMEAR">     1</i>
  <i name="SIGMA">      0.10000000</i>
  <i name="KSPACING">      0.50000000</i>
  <i type="logical" name="KGAMMA"> F  </i>
  <i type="logical" name="LWAVE"> F  </i>
  <i type="logical" name="LCHARG"> F  </i>
  <v type="int" name="KPOINT_BSE">    -1     0     0     0</v>
  <i type="int" name="NELM">   300</i>
  <i type="string" name="GGA"> PE</i>
 </incar>
 <structure name="primitive_cell" >
  <crystal>
   <varray name="basis" >
    <v>      15.00000000       0.00000000       0.00000000 </v>
    <v>       0.00000000      15.00000000       0.00000000 </v>
    <v>       0.00000000       0.00000000      15.00000000 </v>
   </varray>
   <i name="volume">   3375.00000000 </i>
   <varray name="rec_basis" >
    <v>       0.06666667       0.00000000       0.00000000 </v>
    <v>       0.00000000       0.06666667       0.00000000 </v>
    <v>       0.00000000       0.00000000       0.06666667 </v>
   </varray>
  </crystal>
  <varray name="positions" >
   <v>       0.29258867       0.42263400      -0.43599467 </v>
   <v>       0.33925467      -0.46322867      -0.34055800 </v>
   <v>       0.40771867       0.40778667       0.45554400 </v>
   <v>       0.45117067       0.42445000      -0.38882933 </v>
   <v>       0.36912867      -0.44431533       0.48967533 </v>
   <v>       0.22268800      -0.41970333      -0.43949467 </v>
   <v>       0.39893467       0.28538467      -0.44597867 </v>
   <v>       0.48579400      -0.41349133      -0.38287533 </v>
   <v>      -0.46933333      -0.49326933       0.47934933 </v>
   <v>       0.34820133      -0.31645333      -0.42829733 </v>
   <v>      -0.44677067       0.35235067      -0.48625000 </v>
   <v>       0.49230133      -0.34069133       0.47644667 </v>
   <v>      -0.37404867       0.47769533      -0.39612733 </v>
   <v>      -0.26062667      -0.49941067      -0.35634333 </v>
   <v>      -0.18544000      -0.48168133      -0.35496667 </v>
  </varray>
 </structure>
 <varray name="primitive_index" >
  <v type="int" >        1 </v>
  <v type="int" >        9 </v>
  <v type="int" >        7 </v>
  <v type="int" >        6 </v>
  <v type="int" >        2 </v>
  <v type="int" >        8 </v>
  <v type="int" >        3 </v>
  <v type="int" >       13 </v>
  <v type="int" >        4 </v>
  <v type="int" >       10 </v>
  <v type="int" >        5 </v>
  <v type="int" >       11 </v>
  <v type="int" >       12 </v>
  <v type="int" >       14 </v>
  <v type="int" >       15 </v>
 </varray>
 <kpoints>
  <generation param="Monkhorst-Pack">
   <v type="int" name="divisions">       1        1        1 </v>
   <v name="usershift">      0.00000000       0.00000000       0.00000000 </v>
   <v name="genvec1">      1.00000000       0.00000000       0.00000000 </v>
   <v name="genvec2">      0.00000000       1.00000000       0.00000000 </v>
   <v name="genvec3">      0.00000000       0.00000000       1.00000000 </v>
   <v name="shift">      0.00000000       0.00000000       0.00000000 </v>
  </generation>
  <varray name="kpointlist" >
   <v>       0.00000000       0.00000000       0.00000000 </v>
  </varray>
  <varray name="weights" >
   <v>       1.00000000 </v>
  </varray>
 </kpoints>
 <parameters>
  <separator name="general" >
   <i type="string" name="SYSTEM">CuCO</i>
   <i type="logical" name="LCOMPAT"> F  </i>
  </separator>
  <separator name="electronic" >
   <i type="string" name="PREC">accura</i>
   <i name="ENMAX">    600.00000000</i>
   <i name="ENAUG">    644.87300000</i>
   <i name="EDIFF">      0.00000010</i>
   <i type="int" name="IALGO">    68</i>
   <i type="int" name="IWAVPR">    10</i>
   <i type="int" name="NBANDS">    92</i>
   <i name="NELECT">    153.00000000</i>
   <i type="int" name="TURBO">     0</i>
   <i type="int" name="IRESTART">     0</i>
   <i type="int" name="NREBOOT">     0</i>
   <i type="int" name="NMIN">     0</i>
   <i name="EREF">      0.00000000</i>
   <separator name="electronic smearing" >
    <i type="int" name="ISMEAR">     1</i>
    <i name="SIGMA">      0.10000000</i>
    <i name="KSPACING">      0.50000000</i>
    <i type="logical" name="KGAMMA"> F  </i>
   </separator>
   <separator name="electronic projectors" >
    <i type="logical" name="LREAL"> F  </i>
    <v name="ROPT">      0.00000000      0.00000000      0.00000000</v>
    <i type="int" name="LMAXPAW">  -100</i>
    <i type="int" name="LMAXMIX">     2</i>
    <i type="logical" name="NLSPLINE"> F  </i>
   </separator>
   <separator name="electronic startup" >
    <i type="int" name="ISTART">     0</i>
    <i type="int" name="ICHARG">     2</i>
    <i type="int" name="INIWAV">     1</i>
   </separator>
   <separator name="electronic spin" >
    <i type="int" name="ISPIN">     2</i>
    <i type="logical" name="LNONCOLLINEAR"> F  </i>
    <v name="MAGMOM">      0.06666667      0.06666667      0.06666667      0.06666667      0.06666667      0.06666667      0.06666667      0.06666667      0.06666667      0.06666667      0.06666667      0.06666667      0.06666667      0.06666667      0.06666667</v>
    <i name="NUPDOWN">      1.00000000</i>
    <i type="logical" name="LSORBIT"> F  </i>
    <v name="SAXIS">      0.00000000      0.00000000      1.00000000</v>
    <i type="logical" name="LSPIRAL"> F  </i>
    <v name="QSPIRAL">      0.00000000      0.00000000      0.00000000</v>
    <i type="logical" name="LZEROZ"> F  </i>
   </separator>
   <separator name="electronic exchange-correlation" >
    <i type="logical" name="LASPH"> F  </i>
    <i type="logical" name="LMETAGGA"> F  </i>
   </separator>
   <separator name="electronic convergence" >
    <i type="int" name="NELM">   300</i>
    <i type="int" name="NELMDL">    -5</i>
    <i type="int" name="NELMIN">     3</i>
    <i name="ENINI">    600.00000000</i>
    <separator name="electronic convergence detail" >
     <i type="logical" name="LDIAG"> T  </i>
     <i type="logical" name="LSUBROT"> F  </i>
     <i name="WEIMIN">      0.00000000</i>
     <i name="EBREAK">      0.00000000</i>
     <i name="DEPER">      0.30000000</i>
     <i type="int" name="NRMM">     4</i>
     <i name="TIME">      0.40000000</i>
    </separator>
   </separator>
   <separator name="electronic mixer" >
    <i name="AMIX">      0.40000000</i>
    <i name="BMIX">      1.00000000</i>
    <i name="AMIN">      0.10000000</i>
    <i name="AMIX_MAG">      1.60000000</i>
    <i name="BMIX_MAG">      1.00000000</i>
    <separator name="electronic mixer details" >
     <i type="int" name="IMIX">     4</i>
     <i type="logical" name="MIXFIRST"> F  </i>
     <i type="int" name="MAXMIX">   -45</i>
     <i name="WC">    100.00000000</i>
     <i type="int" name="INIMIX">     1</i>
     <i type="int" name="MIXPRE">     1</i>
     <i type="int" name="MREMOVE">     5</i>
    </separator>
   </separator>
   <separator name="electronic dipolcorrection" >
    <i type="logical" name="LDIPOL"> F  </i>
    <i type="logical" name="LMONO"> F  </i>
    <i type="int" name="IDIPOL">     0</i>
    <i name="EPSILON">      1.00000000</i>
    <v name="DIPOL">   -100.00000000   -100.00000000   -100.00000000</v>
    <i name="EFIELD">      0.00000000</i>
   </separator>
  </separator>
  <separator name="grids" >
   <i type="int" name="NGX">   120</i>
   <i type="int" name="NGY">   120</i>
   <i type="int" name="NGZ">   120</i>
   <i type="int" name="NGXF">   240</i>
   <i type="int" name="NGYF">   240</i>
   <i type="int" name="NGZF">   240</i>
   <i type="logical" name="ADDGRID"> F  </i>
  </separator>
  <separator name="ionic" >
   <i type="int" name="NSW">     0</i>
   <i type="int" name="IBRION">    -1</i>
   <i type="int" name="MDALGO">     0</i>
   <i type="int" name="ISIF">     2</i>
   <i name="PSTRESS">      0.00000000</i>
   <i name="EDIFFG">     -0.00100000</i>
   <i type="int" name="NFREE">     0</i>
   <i name="POTIM">      0.50000000</i>
   <i name="SMASS">     -3.00000000</i>
   <i name="SCALEE">      1.00000000</i>
  </separator>
  <separator name="ionic md" >
   <i name="TEBEG">      0.00010000</i>
   <i name="TEEND">      0.00010000</i>
   <i type="int" name="NBLOCK">     1</i>
   <i type="int" name="KBLOCK">     1</i>
   <i type="int" name="NPACO">   256</i>
   <i name="APACO">     16.00000000</i>
  </separator>
  <separator name="symmetry" >
   <i type="int" name="ISYM">     0</i>
   <i name="SYMPREC">      0.00001000</i>
  </separator>
  <separator name="dos" >
   <i type="int" name="LORBIT">     0</i>
   <v name="RWIGS">     -1.00000000     -1.00000000     -1.00000000</v>
   <i type="int" name="NEDOS">   301</i>
   <i name="EMIN">     10.00000000</i>
   <i name="EMAX">    -10.00000000</i>
   <i name="EFERMI">      0.00000000</i>
  </separator>
  <separator name="writing" >
   <i type="int" name="NWRITE">     2</i>
   <i type="logical" name="LWAVE"> F  </i>
   <i type="logical" name="LDOWNSAMPLE"> F  </i>
   <i type="logical" name="LCHARG"> F  </i>
   <i type="logical" name="LPARD"> F  </i>
   <i type="logical" name="LVTOT"> F  </i>
   <i type="logical" name="LVHAR"> F  </i>
   <i type="logical" name="LELF"> F  </i>
   <i type="logical" name="LOPTICS"> F  </i>
   <v name="STM">      0.00000000      0.00000000      0.00000000      0.00000000      0.00000000      0.00000000      0.00000000</v>
  </separator>
  <separator name="performance" >
   <i type="int" name="NPAR">     4</i>
   <i type="int" name="NSIM">     4</i>
   <i type="int" name="NBLK">    -1</i>
   <i type="logical" name="LPLANE"> T  </i>
   <i type="logical" name="LSCALAPACK"> T  </i>
   <i type="logical" name="LSCAAWARE"> F  </i>
   <i type="logical" name="LSCALU"> F  </i>
   <i type="logical" name="LASYNC"> F  </i>
   <i type="logical" name="LORBITALREAL"> F  </i>
  </separator>
  <separator name="miscellaneous" >
   <i type="int" name="IDIOT">     3</i>
   <i type="int" name="ISPECIAL">     0</i>
   <i type="logical" name="LMUSIC"> F  </i>
   <v name="POMASS">     63.54600000     12.01100000     16.00000000</v>
   <v name="DARWINR">      0.00000000      0.00000000      0.00000000</v>
   <v name="DARWINV">      1.00000000      1.00000000      1.00000000</v>
   <i type="logical" name="LCORR"> T  </i>
  </separator>
  <i type="logical" name="GGA_COMPAT"> T  </i>
  <i type="logical" name="LBERRY"> F  </i>
  <i type="int" name="ICORELEVEL">     0</i>
  <i type="logical" name="LDAU"> F  </i>
  <i type="int" name="I_CONSTRAINED_M">     0</i>
  <separator name="electronic exchange-correlation" >
   <i type="string" name="GGA">PE</i>
   <i type="int" name="VOSKOWN">     0</i>
   <i type="logical" name="LHFCALC"> F  </i>
   <i type="string" name="PRECFOCK"></i>
   <i type="logical" name="LSYMGRAD"> F  </i>
   <i type="logical" name="LHFONE"> F  </i>
   <i type="logical" name="LRHFCALC"> F  </i>
   <i type="logical" name="LTHOMAS"> F  </i>
   <i type="logical" name="LMODELHF"> F  </i>
   <i name="ENCUT4O">     -1.00000000</i>
   <i type="int" name="EXXOEP">     0</i>
   <i type="int" name="FOURORBIT">     0</i>
   <i name="AEXX">      0.00000000</i>
   <i name="HFALPHA">      0.00000000</i>
   <i name="MCALPHA">      0.00000000</i>
   <i name="ALDAX">      1.00000000</i>
   <i name="AGGAX">      1.00000000</i>
   <i name="ALDAC">      1.00000000</i>
   <i name="AGGAC">      1.00000000</i>
   <i type="int" name="NKREDX">     1</i>
   <i type="int" name="NKREDY">     1</i>
   <i type="int" name="NKREDZ">     1</i>
   <i type="logical" name="SHIFTRED"> F  </i>
   <i type="logical" name="ODDONLY"> F  </i>
   <i type="logical" name="EVENONLY"> F  </i>
   <i type="int" name="LMAXFOCK">     0</i>
   <i type="int" name="NMAXFOCKAE">     0</i>
   <i type="logical" name="LFOCKAEDFT"> F  </i>
   <i name="HFSCREEN">      0.00000000</i>
   <i name="HFSCREENC">      0.00000000</i>
   <i type="int" name="NBANDSGWLOW">     0</i>
  </separator>
  <separator name="vdW DFT" >
   <i type="logical" name="LUSE_VDW"> F  </i>
   <i name="Zab_VDW">     -0.84910000</i>
   <i name="PARAM1">      0.12340000</i>
   <i name="PARAM2">      1.00000000</i>
   <i name="PARAM3">      0.00000000</i>
  </separator>
  <separator name="model GW" >
   <i type="int" name="MODEL_GW">     0</i>
   <i name="MODEL_EPS0">    135.00000000</i>
   <i name="MODEL_ALPHA">      1.00000000</i>
  </separator>
  <separator name="linear response parameters" >
   <i type="logical" name="LEPSILON"> F  </i>
   <i type="logical" name="LRPA"> F  </i>
   <i type="logical" name="LNABLA"> F  </i>
   <i type="logical" name="LVEL"> F  </i>
   <i type="int" name="KINTER">     0</i>
   <i name="CSHIFT">      0.10000000</i>
   <i name="OMEGAMAX">     -1.00000000</i>
   <i name="DEG_THRESHOLD">      0.00200000</i>
   <i name="RTIME">     -0.10000000</i>
   <i name="WPLASMAI">      0.00000000</i>
   <v name="DFIELD">      0.00000000      0.00000000      0.00000000</v>
   <v name="WPLASMA">      0.00000000      0.00000000      0.00000000      0.00000000      0.00000000      0.00000000      0.00000000      0.00000000      0.00000000</v>
  </separator>
  <separator name="orbital magnetization" >
   <i type="logical" name="NUCIND"> F  </i>
   <v name="MAGPOS">      0.00000000      0.00000000      0.00000000</v>
   <i type="logical" name="LNICSALL"> T  </i>
   <i type="logical" name="ORBITALMAG"> F  </i>
   <i type="logical" name="LMAGBLOCH"> F  </i>
   <i type="logical" name="LCHIMAG"> F  </i>
   <i type="logical" name="LGAUGE"> T  </i>
   <i type="int" name="MAGATOM">     0</i>
   <v name="MAGDIPOL">      0.00000000      0.00000000      0.00000000</v>
   <v name="AVECCONST">      0.00000000      0.00000000      0.00000000</v>
  </separator>
  <separator name="response functions" >
   <i type="logical" name="LADDER"> F  </i>
   <i type="logical" name="LRPAFORCE"> F  </i>
   <i type="logical" name="LFXC"> F  </i>
   <i type="logical" name="LHARTREE"> T  </i>
   <i type="int" name="IBSE">     0</i>
   <v type="int" name="KPOINT">    -1     0     0     0</v>
   <i type="logical" name="LTCTE"> F  </i>
   <i type="logical" name="LTETE"> F  </i>
   <i type="logical" name="LTRIPLET"> F  </i>
   <i type="logical" name="LFXCEPS"> F  </i>
   <i type="logical" name="LFXHEG"> F  </i>
   <i type="int" name="NATURALO">     2</i>
   <i type="logical" name="L2ORDER"> F  </i>
   <i type="logical" name="LMP2LT"> F  </i>
   <i type="logical" name="LUSEW"> F  </i>
   <i name="ENCUTGW">     -2.00000000</i>
   <i name="ENCUTGWSOFT">     -2.00000000</i>
   <i name="ENCUTLF">     -1.00000000</i>
   <i type="int" name="LMAXMP2">    -1</i>
   <i name="SCISSOR">      0.00000000</i>
   <i type="int" name="NOMEGA">     0</i>
   <i type="int" name="NOMEGAR">     0</i>
   <i type="int" name="NBANDSGW">    -1</i>
   <i type="int" name="NBANDSO">    -1</i>
   <i type="int" name="NBANDSV">    -1</i>
   <i type="int" name="NELM">   300</i>
   <i type="int" name="NELMHF">     1</i>
   <i type="int" name="DIM">     3</i>
   <i type="int" name="ANTIRES">     0</i>
   <i name="OMEGAMAX">    -30.00000000</i>
   <i name="OMEGAMIN">    -30.00000000</i>
   <i name="OMEGATL">   -200.00000000</i>
   <i type="int" name="OMEGAGRID">   140</i>
   <i name="CSHIFT">     -0.10000000</i>
   <i type="logical" name="SELFENERGY"> F  </i>
   <i type="logical" name="LSPECTRAL"> F  </i>
   <i type="logical" name="LSPECTRALGW"> F  </i>
   <i type="logical" name="LSINGLES"> F  </i>
   <i type="logical" name="LFERMIGW"> F  </i>
   <i type="logical" name="ODDONLYGW"> F  </i>
   <i type="logical" name="EVENONLYGW"> F  </i>
   <i type="int" name="NKREDLFX">     1</i>
   <i type="int" name="NKREDLFY">     1</i>
   <i type="int" name="NKREDLFZ">     1</i>
   <i type="int" name="MAXMEM">  2800</i>
   <i type="int" name="TELESCOPE">     0</i>
   <i type="int" name="TAUPAR">     1</i>
   <i type="int" name="OMEGAPAR">    -1</i>
   <i name="LAMBDA">      1.00000000</i>
  </separator>
  <separator name="External order field" >
   <i name="OFIELD_KAPPA">      0.00000000</i>
   <v name="OFIELD_K">      0.00000000      0.00000000      0.00000000</v>
   <i name="OFIELD_Q6_NEAR">      0.00000000</i>
   <i name="OFIELD_Q6_FAR">      0.00000000</i>
   <i name="OFIELD_A">      0.00000000</i>
  </separator>
 </parameters>
 <atominfo>
  <atoms>      15 </atoms>
  <types>       3 </types>
  <array name="atoms" >
   <dimension dim="1">ion</dimension>
   <field type="string">element</field>
   <field type="int">atomtype</field>
   <set>
    <rc><c>Cu</c><c>   1</c></rc>
    <rc><c>Cu</c><c>   1</c></rc>
    <rc><c>Cu</c><c>   1</c></rc>
    <rc><c>Cu</c><c>   1</c></rc>
    <rc><c>Cu</c><c>   1</c></rc>
    <rc><c>Cu</c><c>   1</c></rc>
    <rc><c>Cu</c><c>   1</c></rc>
    <rc><c>Cu</c><c>   1</c></rc>
    <rc><c>Cu</c><c>   1</c></rc>
    <rc><c>Cu</c><c>   1</c></rc>
    <rc><c>Cu</c><c>   1</c></rc>
    <rc><c>Cu</c><c>   1</c></rc>
    <rc><c>Cu</c><c>   1</c></rc>
    <rc><c>C </c><c>   2</c></rc>
    <rc><c>O </c><c>   3</c></rc>
   </set>
  </array>
  <array name="atomtypes" >
   <dimension dim="1">type</dimension>
   <field type="int">atomspertype</field>
   <field type="string">element</field>
   <field>mass</field>
   <field>valence</field>
   <field type="string">pseudopotential</field>
   <set>
    <rc><c>  13</c><c>Cu</c><c>     63.54600000</c><c>     11.00000000</c><c>  PAW_PBE Cu 22Jun2005                  </c></rc>
    <rc><c>   1</c><c>C </c><c>     12.01100000</c><c>      4.00000000</c><c>  PAW_PBE C 08Apr2002                   </c></rc>
    <rc><c>   1</c><c>O </c><c>     16.00000000</c><c>      6.00000000</c><c>  PAW_PBE O 08Apr2002                   </c></rc>
   </set>
  </array>
 </atominfo>
 <structure name="initialpos" >
  <crystal>
   <varray name="basis" >
    <v>      15.00000000       0.00000000       0.00000000 </v>
    <v>       0.00000000      15.00000000       0.00000000 </v>
    <v>       0.00000000       0.00000000      15.00000000 </v>
   </varray>
   <i name="volume">   3375.00000000 </i>
   <varray name="rec_basis" >
    <v>       0.06666667       0.00000000       0.00000000 </v>
    <v>       0.00000000       0.06666667       0.00000000 </v>
    <v>       0.00000000       0.00000000       0.06666667 </v>
   </varray>
  </crystal>
  <varray name="positions" >
   <v>       0.29258867       0.42263400       0.56400533 </v>
   <v>       0.36912867       0.55568467       0.48967533 </v>
   <v>       0.39893467       0.28538467       0.55402133 </v>
   <v>       0.53066667       0.50673067       0.47934933 </v>
   <v>       0.55322933       0.35235067       0.51375000 </v>
   <v>       0.45117067       0.42445000       0.61117067 </v>
   <v>       0.40771867       0.40778667       0.45554400 </v>
   <v>       0.22268800       0.58029667       0.56050533 </v>
   <v>       0.33925467       0.53677133       0.65944200 </v>
   <v>       0.34820133       0.68354667       0.57170267 </v>
   <v>       0.49230133       0.65930867       0.47644667 </v>
   <v>       0.62595133       0.47769533       0.60387267 </v>
   <v>       0.48579400       0.58650867       0.61712467 </v>
   <v>       0.73937333       0.50058933       0.64365667 </v>
   <v>       0.81456000       0.51831867       0.64503333 </v>
  </varray>
 </structure>
 <calculation>
  <scstep>
   <time name="dav">    7.53    7.53</time>
   <time name="total">    8.72    8.73</time>
   <energy>
    <i name="alphaZ">     41.16232785 </i>
    <i name="ewald">  16366.18797425 </i>
    <i name="hartreedc"> -33387.63413700 </i>
    <i name="XCdc">    623.49449654 </i>
    <i name="pawpsdc">  16421.75059358 </i>
    <i name="pawaedc"> -17800.06104309 </i>
    <i name="eentropy">      0.00358167 </i>
    <i name="bandstr">    190.67979723 </i>
    <i name="atom">  18662.21924712 </i>
    <i name="e_fr_energy">   1117.80283815 </i>
    <i name="e_wo_entrp">   1117.79925648 </i>
    <i name="e_0_energy">   1117.80164426 </i>
   </energy>
  </scstep>
  <scstep>
   <time name="dav">    7.38    7.38</time>
   <time name="total">    7.38    7.38</time>
   <energy>
    <i name="e_fr_energy">     86.50884574 </i>
    <i name="e_wo_entrp">     86.50181985 </i>
    <i name="e_0_energy">     86.50650378 </i>
   </energy>
  </scstep>
  <scstep>
   <time name="dav">   11.59   11.60</time>
   <time name="total">   11.59   11.60</time>
   <energy>
    <i name="e_fr_energy">    -34.77240728 </i>
    <i name="e_wo_entrp">    -34.76527393 </i>
    <i name="e_0_energy">    -34.77002950 </i>
   </energy>
  </scstep>
  <scstep>
   <time name="dav">   10.24   10.24</time>
   <time name="total">   10.24   10.24</time>
   <energy>
    <i name="e_fr_energy">    -55.86396847 </i>
    <i name="e_wo_entrp">    -55.87232733 </i>
    <i name="e_0_energy">    -55.86675475 </i>
   </energy>
  </scstep>
  <scstep>
   <time name="dav">   12.02   12.02</time>
   <time name="total">   12.73   12.73</time>
   <energy>
    <i name="e_fr_energy">    -57.37694022 </i>
    <i name="e_wo_entrp">    -57.38477067 </i>
    <i name="e_0_energy">    -57.37955037 </i>
   </energy>
  </scstep>
  <scstep>
   <time name="diag">    1.08    1.08</time>
   <time name="diis">    6.97    6.97</time>
   <time name="orth">    0.06    0.06</time>
   <time name="total">    9.94    9.95</time>
   <energy>
    <i name="e_fr_energy">    -56.58357839 </i>
    <i name="e_wo_entrp">    -56.58942378 </i>
    <i name="e_0_energy">    -56.58552686 </i>
   </energy>
  </scstep>
  <scstep>
   <time name="diag">    1.08    1.08</time>
   <time name="diis">    6.99    7.00</time>
   <time name="orth">    0.06    0.06</time>
   <time name="total">    9.96    9.99</time>
   <energy>
    <i name="e_fr_energy">    -49.25423386 </i>
    <i name="e_wo_entrp">    -49.26081051 </i>
    <i name="e_0_energy">    -49.25642608 </i>
   </energy>
  </scstep>
  <scstep>
   <time name="diag">    1.08    1.08</time>
   <time name="diis">    7.00    7.01</time>
   <time name="orth">    0.06    0.06</time>
   <time name="total">    9.99   10.00</time>
   <energy>
    <i name="e_fr_energy">    -49.00381800 </i>
    <i name="e_wo_entrp">    -49.01082010 </i>
    <i name="e_0_energy">    -49.00615203 </i>
   </energy>
  </scstep>
  <scstep>
   <time name="diag">    1.09    1.09</time>
   <time name="diis">    6.66    6.66</time>
   <time name="orth">    0.06    0.06</time>
   <time name="total">    9.70    9.70</time>
   <energy>
    <i name="e_fr_energy">    -48.95516780 </i>
    <i name="e_wo_entrp">    -48.96200420 </i>
    <i name="e_0_energy">    -48.95744660 </i>
   </energy>
  </scstep>
  <scstep>
   <time name="diag">    1.08    1.08</time>
   <time name="diis">    7.60    7.60</time>
   <time name="orth">    0.06    0.06</time>
   <time name="total">   10.64   10.64</time>
   <energy>
    <i name="e_fr_energy">    -48.89283906 </i>
    <i name="e_wo_entrp">    -48.89944489 </i>
    <i name="e_0_energy">    -48.89504100 </i>
   </energy>
  </scstep>
  <scstep>
   <time name="diag">    1.08    1.08</time>
   <time name="diis">    7.28    7.28</time>
   <time name="orth">    0.06    0.06</time>
   <time name="total">   10.31   10.32</time>
   <energy>
    <i name="e_fr_energy">    -48.88298171 </i>
    <i name="e_wo_entrp">    -48.88963971 </i>
    <i name="e_0_energy">    -48.88520104 </i>
   </energy>
  </scstep>
  <scstep>
   <time name="diag">    1.08    1.08</time>
   <time name="diis">    7.06    7.06</time>
   <time name="orth">    0.06    0.06</time>
   <time name="total">   10.09   10.10</time>
   <energy>
    <i name="e_fr_energy">    -48.88010961 </i>
    <i name="e_wo_entrp">    -48.88670935 </i>
    <i name="e_0_energy">    -48.88230953 </i>
   </energy>
  </scstep>
  <scstep>
   <time name="diag">    1.08    1.08</time>
   <time name="diis">    6.89    6.90</time>
   <time name="orth">    0.06    0.06</time>
   <time name="total">    9.93    9.94</time>
   <energy>
    <i name="e_fr_energy">    -48.87906405 </i>
    <i name="e_wo_entrp">    -48.88565702 </i>
    <i name="e_0_energy">    -48.88126171 </i>
   </energy>
  </scstep>
  <scstep>
   <time name="diag">    1.08    1.08</time>
   <time name="diis">    7.01    7.01</time>
   <time name="orth">    0.06    0.06</time>
   <time name="total">   10.05   10.06</time>
   <energy>
    <i name="e_fr_energy">    -48.88027376 </i>
    <i name="e_wo_entrp">    -48.88685425 </i>
    <i name="e_0_energy">    -48.88246726 </i>
   </energy>
  </scstep>
  <scstep>
   <time name="diag">    1.08    1.08</time>
   <time name="diis">    7.78    7.79</time>
   <time name="orth">    0.06    0.06</time>
   <time name="total">   10.82   10.83</time>
   <energy>
    <i name="e_fr_energy">    -48.88137155 </i>
    <i name="e_wo_entrp">    -48.88796510 </i>
    <i name="e_0_energy">    -48.88356940 </i>
   </energy>
  </scstep>
  <scstep>
   <time name="diag">    1.09    1.09</time>
   <time name="diis">    7.18    7.19</time>
   <time name="orth">    0.06    0.06</time>
   <time name="total">   10.23   10.23</time>
   <energy>
    <i name="e_fr_energy">    -48.88276361 </i>
    <i name="e_wo_entrp">    -48.88936518 </i>
    <i name="e_0_energy">    -48.88496414 </i>
   </energy>
  </scstep>
  <scstep>
   <time name="diag">    1.08    1.08</time>
   <time name="diis">    6.36    6.36</time>
   <time name="orth">    0.06    0.06</time>
   <time name="total">    9.40    9.41</time>
   <energy>
    <i name="e_fr_energy">    -48.88456329 </i>
    <i name="e_wo_entrp">    -48.89117064 </i>
    <i name="e_0_energy">    -48.88676574 </i>
   </energy>
  </scstep>
  <scstep>
   <time name="diag">    1.08    1.08</time>
   <time name="diis">    6.86    6.87</time>
   <time name="orth">    0.06    0.06</time>
   <time name="total">    9.90    9.91</time>
   <energy>
    <i name="e_fr_energy">    -48.88542585 </i>
    <i name="e_wo_entrp">    -48.89203128 </i>
    <i name="e_0_energy">    -48.88762766 </i>
   </energy>
  </scstep>
  <scstep>
   <time name="diag">    1.08    1.08</time>
   <time name="diis">    7.10    7.10</time>
   <time name="orth">    0.06    0.06</time>
   <time name="total">   10.14   10.15</time>
   <energy>
    <i name="e_fr_energy">    -48.88613823 </i>
    <i name="e_wo_entrp">    -48.89274381 </i>
    <i name="e_0_energy">    -48.88834009 </i>
   </energy>
  </scstep>
  <scstep>
   <time name="diag">    1.08    1.08</time>
   <time name="diis">    6.66    6.67</time>
   <time name="orth">    0.06    0.06</time>
   <time name="total">    9.70    9.71</time>
   <energy>
    <i name="e_fr_energy">    -48.88667414 </i>
    <i name="e_wo_entrp">    -48.89327804 </i>
    <i name="e_0_energy">    -48.88887544 </i>
   </energy>
  </scstep>
  <scstep>
   <time name="diag">    1.08    1.08</time>
   <time name="diis">    6.85    6.85</time>
   <time name="orth">    0.06    0.06</time>
   <time name="total">    9.89    9.90</time>
   <energy>
    <i name="e_fr_energy">    -48.88708128 </i>
    <i name="e_wo_entrp">    -48.89368481 </i>
    <i name="e_0_energy">    -48.88928246 </i>
   </energy>
  </scstep>
  <scstep>
   <time name="diag">    1.08    1.09</time>
   <time name="diis">    6.82    6.83</time>
   <time name="orth">    0.06    0.06</time>
   <time name="total">    9.88    9.88</time>
   <energy>
    <i name="e_fr_energy">    -48.88736473 </i>
    <i name="e_wo_entrp">    -48.89396869 </i>
    <i name="e_0_energy">    -48.88956605 </i>
   </energy>
  </scstep>
  <scstep>
   <time name="diag">    1.08    1.08</time>
   <time name="diis">    6.50    6.51</time>
   <time name="orth">    0.06    0.06</time>
   <time name="total">    9.56    9.57</time>
   <energy>
    <i name="e_fr_energy">    -48.88748706 </i>
    <i name="e_wo_entrp">    -48.89409155 </i>
    <i name="e_0_energy">    -48.88968856 </i>
   </energy>
  </scstep>
  <scstep>
   <time name="diag">    1.08    1.08</time>
   <time name="diis">    6.93    6.93</time>
   <time name="orth">    0.06    0.06</time>
   <time name="total">    9.98    9.99</time>
   <energy>
    <i name="e_fr_energy">    -48.88758033 </i>
    <i name="e_wo_entrp">    -48.89418479 </i>
    <i name="e_0_energy">    -48.88978182 </i>
   </energy>
  </scstep>
  <scstep>
   <time name="diag">    1.08    1.08</time>
   <time name="diis">    6.42    6.42</time>
   <time name="orth">    0.06    0.06</time>
   <time name="total">    9.48    9.48</time>
   <energy>
    <i name="e_fr_energy">    -48.88763811 </i>
    <i name="e_wo_entrp">    -48.89424276 </i>
    <i name="e_0_energy">    -48.88983966 </i>
   </energy>
  </scstep>
  <scstep>
   <time name="diag">    1.08    1.08</time>
   <time name="diis">    6.41    6.41</time>
   <time name="orth">    0.06    0.06</time>
   <time name="total">    9.46    9.47</time>
   <energy>
    <i name="e_fr_energy">    -48.88767406 </i>
    <i name="e_wo_entrp">    -48.89427842 </i>
    <i name="e_0_energy">    -48.88987551 </i>
   </energy>
  </scstep>
  <scstep>
   <time name="diag">    1.08    1.08</time>
   <time name="diis">    4.79    4.80</time>
   <time name="orth">    0.06    0.06</time>
   <time name="total">    7.85    7.85</time>
   <energy>
    <i name="e_fr_energy">    -48.88768730 </i>
    <i name="e_wo_entrp">    -48.89429162 </i>
    <i name="e_0_energy">    -48.88988874 </i>
   </energy>
  </scstep>
  <scstep>
   <time name="diag">    1.08    1.08</time>
   <time name="diis">    4.59    4.59</time>
   <time name="orth">    0.06    0.06</time>
   <time name="total">    7.65    7.66</time>
   <energy>
    <i name="e_fr_energy">    -48.88769095 </i>
    <i name="e_wo_entrp">    -48.89429534 </i>
    <i name="e_0_energy">    -48.88989241 </i>
   </energy>
  </scstep>
  <scstep>
   <time name="diag">    1.08    1.08</time>
   <time name="diis">    4.54    4.55</time>
   <time name="orth">    0.06    0.06</time>
   <time name="total">    7.61    7.61</time>
   <energy>
    <i name="e_fr_energy">    -48.88769492 </i>
    <i name="e_wo_entrp">    -48.89429943 </i>
    <i name="e_0_energy">    -48.88989642 </i>
   </energy>
  </scstep>
  <scstep>
   <time name="diag">    1.08    1.08</time>
   <time name="diis">    4.85    4.85</time>
   <time name="orth">    0.06    0.06</time>
   <time name="total">    7.93    7.93</time>
   <energy>
    <i name="e_fr_energy">    -48.88769666 </i>
    <i name="e_wo_entrp">    -48.89430118 </i>
    <i name="e_0_energy">    -48.88989816 </i>
   </energy>
  </scstep>
  <scstep>
   <time name="diag">    1.08    1.08</time>
   <time name="diis">    4.45    4.45</time>
   <time name="orth">    0.06    0.06</time>
   <time name="total">    7.53    7.54</time>
   <energy>
    <i name="e_fr_energy">    -48.88769751 </i>
    <i name="e_wo_entrp">    -48.89430207 </i>
    <i name="e_0_energy">    -48.88989903 </i>
   </energy>
  </scstep>
  <scstep>
   <time name="diag">    1.08    1.08</time>
   <time name="diis">    4.22    4.22</time>
   <time name="orth">    0.06    0.06</time>
   <time name="total">    7.31    7.32</time>
   <energy>
    <i name="e_fr_energy">    -48.88769815 </i>
    <i name="e_wo_entrp">    -48.89430268 </i>
    <i name="e_0_energy">    -48.88989966 </i>
   </energy>
  </scstep>
  <scstep>
   <time name="diag">    1.08    1.08</time>
   <time name="diis">    4.34    4.34</time>
   <time name="orth">    0.06    0.06</time>
   <time name="total">    7.44    7.45</time>
   <energy>
    <i name="e_fr_energy">    -48.88769858 </i>
    <i name="e_wo_entrp">    -48.89430311 </i>
    <i name="e_0_energy">    -48.88990009 </i>
   </energy>
  </scstep>
  <scstep>
   <time name="diag">    1.08    1.08</time>
   <time name="diis">    3.76    3.77</time>
   <time name="orth">    0.06    0.06</time>
   <time name="total">    6.86    6.87</time>
   <energy>
    <i name="e_fr_energy">    -48.88769904 </i>
    <i name="e_wo_entrp">    -48.89430356 </i>
    <i name="e_0_energy">    -48.88990054 </i>
   </energy>
  </scstep>
  <scstep>
   <time name="diag">    1.08    1.08</time>
   <time name="diis">    3.67    3.67</time>
   <time name="orth">    0.06    0.06</time>
   <time name="total">    6.77    6.78</time>
   <energy>
    <i name="e_fr_energy">    -48.88769926 </i>
    <i name="e_wo_entrp">    -48.89430378 </i>
    <i name="e_0_energy">    -48.88990077 </i>
   </energy>
  </scstep>
  <scstep>
   <time name="diag">    1.08    1.08</time>
   <time name="diis">    3.44    3.44</time>
   <time name="orth">    0.06    0.06</time>
   <time name="total">    6.55    6.55</time>
   <energy>
    <i name="e_fr_energy">    -48.88769944 </i>
    <i name="e_wo_entrp">    -48.89430396 </i>
    <i name="e_0_energy">    -48.88990094 </i>
   </energy>
  </scstep>
  <scstep>
   <time name="diag">    1.08    1.08</time>
   <time name="diis">    3.27    3.28</time>
   <time name="orth">    0.06    0.06</time>
   <time name="total">    5.59    5.60</time>
   <energy>
    <i name="alphaZ">     41.16232785 </i>
    <i name="ewald">  16366.18797425 </i>
    <i name="hartreedc"> -33346.01237270 </i>
    <i name="XCdc">    615.52698568 </i>
    <i name="pawpsdc">  17656.98165131 </i>
    <i name="pawaedc"> -19055.72838749 </i>
    <i name="eentropy">      0.00660452 </i>
    <i name="bandstr">   -989.23173005 </i>
    <i name="atom">  18662.21924712 </i>
    <i name="e_fr_energy">    -48.88769951 </i>
    <i name="e_wo_entrp">    -48.89430404 </i>
    <i name="e_0_energy">    -48.88990102 </i>
   </energy>
  </scstep>
  <structure>
   <crystal>
    <varray name="basis" >
     <v>      15.00000000       0.00000000       0.00000000 </v>
     <v>       0.00000000      15.00000000       0.00000000 </v>
     <v>       0.00000000       0.00000000      15.00000000 </v>
    </varray>
    <i name="volume">   3375.00000000 </i>
    <varray name="rec_basis" >
     <v>       0.06666667       0.00000000       0.00000000 </v>
     <v>       0.00000000       0.06666667       0.00000000 </v>
     <v>       0.00000000       0.00000000       0.06666667 </v>
    </varray>
   </crystal>
   <varray name="positions" >
    <v>       0.29258867       0.42263400       0.56400533 </v>
    <v>       0.36912867       0.55568467       0.48967533 </v>
    <v>       0.39893467       0.28538467       0.55402133 </v>
    <v>       0.53066667       0.50673067       0.47934933 </v>
    <v>       0.55322933       0.35235067       0.51375000 </v>
    <v>       0.45117067       0.42445000       0.61117067 </v>
    <v>       0.40771867       0.40778667       0.45554400 </v>
    <v>       0.22268800       0.58029667       0.56050533 </v>
    <v>       0.33925467       0.53677133       0.65944200 </v>
    <v>       0.34820133       0.68354667       0.57170267 </v>
    <v>       0.49230133       0.65930867       0.47644667 </v>
    <v>       0.62595133       0.47769533       0.60387267 </v>
    <v>       0.48579400       0.58650867       0.61712467 </v>
    <v>       0.73937333       0.50058933       0.64365667 </v>
    <v>       0.81456000       0.51831867       0.64503333 </v>
   </varray>
  </structure>
  <varray name="forces" >
   <v>      -0.28462166      -0.22908365      -0.16982260 </v>
   <v>      -0.01470296      -0.26595570       0.11511977 </v>
   <v>      -0.01815757      -0.01707544       0.08305217 </v>
   <v>       0.05133227       0.06319505       0.03018839 </v>
   <v>      -0.06460530      -0.18629926       0.09098883 </v>
   <v>       0.25691196       0.48719930       0.17215067 </v>
   <v>       0.13637241      -0.43117696      -0.47736097 </v>
   <v>       0.13157170      -0.25892278      -0.02607817 </v>
   <v>       0.21397024       0.42721521      -0.05584266 </v>
   <v>       0.33777639       0.16614519       0.30283394 </v>
   <v>      -0.23513501       0.42435801       0.16662675 </v>
   <v>      -0.35216667       0.01435976      -0.05023758 </v>
   <v>      -0.00311222      -0.11535051      -0.14215635 </v>
   <v>       0.10382916      -0.04949470      -0.10493261 </v>
   <v>      -0.25926274      -0.02911353       0.06547041 </v>
  </varray>
  <varray name="stress" >
   <v>      -1.37062469       0.34612559       0.09825973 </v>
   <v>       0.34612561       0.78745392       0.62377952 </v>
   <v>       0.09825974       0.62377951       0.04263670 </v>
  </varray>
  <energy>
   <i name="e_fr_energy">    -48.88769951 </i>
   <i name="e_wo_entrp">    -48.88990102 </i>
   <i name="e_0_energy">      0.00660452 </i>
  </energy>
  <time name="totalsc">  349.86  350.17</time>
  <eigenvalues>
   <array>
    <dimension dim="1">band</dimension>
    <dimension dim="2">kpoint</dimension>
    <dimension dim="3">spin</dimension>
    <field>eigene</field>
    <field>occ</field>
    <set>
     <set comment="spin 1">
      <set comment="kpoint 1">
       <r>  -28.4312    1.0000 </r>
       <r>  -13.8377    1.0000 </r>
       <r>  -11.3115    1.0000 </r>
       <r>  -11.1144    1.0000 </r>
       <r>  -10.9451    1.0000 </r>
       <r>  -10.1161    1.0000 </r>
       <r>   -8.6198    1.0000 </r>
       <r>   -8.2234    1.0000 </r>
       <r>   -7.6495    1.0000 </r>
       <r>   -7.5103    1.0000 </r>
       <r>   -7.4393    1.0000 </r>
       <r>   -7.3077    1.0000 </r>
       <r>   -7.2736    1.0000 </r>
       <r>   -7.1067    1.0000 </r>
       <r>   -7.0538    1.0000 </r>
       <r>   -7.0095    1.0000 </r>
       <r>   -6.8718    1.0000 </r>
       <r>   -6.7980    1.0000 </r>
       <r>   -6.7057    1.0000 </r>
       <r>   -6.6636    1.0000 </r>
       <r>   -6.6315    1.0000 </r>
       <r>   -6.5633    1.0000 </r>
       <r>   -6.5417    1.0000 </r>
       <r>   -6.5083    1.0000 </r>
       <r>   -6.4075    1.0000 </r>
       <r>   -6.3846    1.0000 </r>
       <r>   -6.3487    1.0000 </r>
       <r>   -6.2990    1.0000 </r>
       <r>   -6.2259    1.0000 </r>
       <r>   -6.2002    1.0000 </r>
       <r>   -6.1855    1.0000 </r>
       <r>   -6.1224    1.0000 </r>
       <r>   -6.0521    1.0000 </r>
       <r>   -6.0194    1.0000 </r>
       <r>   -5.9091    1.0000 </r>
       <r>   -5.8162    1.0000 </r>
       <r>   -5.7460    1.0000 </r>
       <r>   -5.7236    1.0000 </r>
       <r>   -5.6753    1.0000 </r>
       <r>   -5.6306    1.0000 </r>
       <r>   -5.5945    1.0000 </r>
       <r>   -5.5453    1.0000 </r>
       <r>   -5.5264    1.0000 </r>
       <r>   -5.4995    1.0000 </r>
       <r>   -5.4663    1.0000 </r>
       <r>   -5.4350    1.0000 </r>
       <r>   -5.4223    1.0000 </r>
       <r>   -5.3578    1.0000 </r>
       <r>   -5.3298    1.0000 </r>
       <r>   -5.3281    1.0000 </r>
       <r>   -5.2979    1.0000 </r>
       <r>   -5.2707    1.0000 </r>
       <r>   -5.2649    1.0000 </r>
       <r>   -5.2385    1.0000 </r>
       <r>   -5.2290    1.0000 </r>
       <r>   -5.1836    1.0000 </r>
       <r>   -5.1529    1.0000 </r>
       <r>   -5.1303    1.0000 </r>
       <r>   -5.1074    1.0000 </r>
       <r>   -5.0550    1.0000 </r>
       <r>   -5.0361    1.0000 </r>
       <r>   -5.0174    1.0000 </r>
       <r>   -5.0003    1.0000 </r>
       <r>   -4.9417    1.0000 </r>
       <r>   -4.9293    1.0000 </r>
       <r>   -4.9156    1.0000 </r>
       <r>   -4.8952    1.0000 </r>
       <r>   -4.8852    1.0000 </r>
       <r>   -4.8624    1.0000 </r>
       <r>   -4.8257    1.0000 </r>
       <r>   -4.7990    1.0000 </r>
       <r>   -4.7522    1.0000 </r>
       <r>   -4.7245    1.0000 </r>
       <r>   -4.5087    1.0000 </r>
       <r>   -4.2670    1.0000 </r>
       <r>   -4.1444    1.0000 </r>
       <r>   -3.5233    1.0000 </r>
       <r>   -2.9627   -0.0000 </r>
       <r>   -2.9092   -0.0000 </r>
       <r>   -2.5705   -0.0000 </r>
       <r>   -2.2782   -0.0000 </r>
       <r>   -1.9685   -0.0000 </r>
       <r>   -1.8625   -0.0000 </r>
       <r>   -1.7640   -0.0000 </r>
       <r>   -1.4419   -0.0000 </r>
       <r>   -1.0266   -0.0000 </r>
       <r>   -0.9270   -0.0000 </r>
       <r>   -0.7203   -0.0000 </r>
       <r>   -0.3616    0.0000 </r>
       <r>   -0.3103    0.0000 </r>
       <r>   -0.2019    0.0000 </r>
       <r>    0.1833    0.0000 </r>
      </set>
     </set>
     <set comment="spin 2">
      <set comment="kpoint 1">
       <r>  -28.4030    1.0000 </r>
       <r>  -13.7875    1.0000 </r>
       <r>  -11.2693    1.0000 </r>
       <r>  -11.0870    1.0000 </r>
       <r>  -10.8690    1.0000 </r>
       <r>  -10.0709    1.0000 </r>
       <r>   -8.5989    1.0000 </r>
       <r>   -8.1728    1.0000 </r>
       <r>   -7.6096    1.0000 </r>
       <r>   -7.4927    1.0000 </r>
       <r>   -7.4163    1.0000 </r>
       <r>   -7.2626    1.0000 </r>
       <r>   -7.2409    1.0000 </r>
       <r>   -7.0786    1.0000 </r>
       <r>   -7.0280    1.0000 </r>
       <r>   -6.9764    1.0000 </r>
       <r>   -6.8398    1.0000 </r>
       <r>   -6.7743    1.0000 </r>
       <r>   -6.6911    1.0000 </r>
       <r>   -6.6394    1.0000 </r>
       <r>   -6.6051    1.0000 </r>
       <r>   -6.5480    1.0000 </r>
       <r>   -6.5197    1.0000 </r>
       <r>   -6.4696    1.0000 </r>
       <r>   -6.3786    1.0000 </r>
       <r>   -6.3572    1.0000 </r>
       <r>   -6.3234    1.0000 </r>
       <r>   -6.2813    1.0000 </r>
       <r>   -6.2093    1.0000 </r>
       <r>   -6.1778    1.0000 </r>
       <r>   -6.1614    1.0000 </r>
       <r>   -6.0940    1.0000 </r>
       <r>   -6.0293    1.0000 </r>
       <r>   -5.9960    1.0000 </r>
       <r>   -5.8834    1.0000 </r>
       <r>   -5.7932    1.0000 </r>
       <r>   -5.7250    1.0000 </r>
       <r>   -5.6927    1.0000 </r>
       <r>   -5.6539    1.0000 </r>
       <r>   -5.6056    1.0000 </r>
       <r>   -5.5656    1.0000 </r>
       <r>   -5.5173    1.0000 </r>
       <r>   -5.5049    1.0000 </r>
       <r>   -5.4763    1.0000 </r>
       <r>   -5.4395    1.0000 </r>
       <r>   -5.4104    1.0000 </r>
       <r>   -5.3942    1.0000 </r>
       <r>   -5.3357    1.0000 </r>
       <r>   -5.3068    1.0000 </r>
       <r>   -5.3008    1.0000 </r>
       <r>   -5.2748    1.0000 </r>
       <r>   -5.2515    1.0000 </r>
       <r>   -5.2391    1.0000 </r>
       <r>   -5.2113    1.0000 </r>
       <r>   -5.2010    1.0000 </r>
       <r>   -5.1659    1.0000 </r>
       <r>   -5.1301    1.0000 </r>
       <r>   -5.1114    1.0000 </r>
       <r>   -5.0846    1.0000 </r>
       <r>   -5.0300    1.0000 </r>
       <r>   -5.0159    1.0000 </r>
       <r>   -4.9897    1.0000 </r>
       <r>   -4.9738    1.0000 </r>
       <r>   -4.9187    1.0000 </r>
       <r>   -4.8983    1.0000 </r>
       <r>   -4.8961    1.0000 </r>
       <r>   -4.8773    1.0000 </r>
       <r>   -4.8386    1.0000 </r>
       <r>   -4.8286    1.0000 </r>
       <r>   -4.8008    1.0000 </r>
       <r>   -4.7766    1.0000 </r>
       <r>   -4.7237    1.0000 </r>
       <r>   -4.6953    1.0000 </r>
       <r>   -4.4706    1.0000 </r>
       <r>   -4.2254    1.0052 </r>
       <r>   -4.0948    0.9948 </r>
       <r>   -3.3004   -0.0000 </r>
       <r>   -2.9210   -0.0000 </r>
       <r>   -2.8570   -0.0000 </r>
       <r>   -2.4877   -0.0000 </r>
       <r>   -2.1821   -0.0000 </r>
       <r>   -1.9380   -0.0000 </r>
       <r>   -1.7880   -0.0000 </r>
       <r>   -1.7005   -0.0000 </r>
       <r>   -1.3140   -0.0000 </r>
       <r>   -0.8874    0.0000 </r>
       <r>   -0.8383    0.0000 </r>
       <r>   -0.6590    0.0000 </r>
       <r>   -0.2920    0.0000 </r>
       <r>   -0.2645    0.0000 </r>
       <r>   -0.1040    0.0000 </r>
       <r>    0.2421    0.0000 </r>
      </set>
     </set>
    </set>
   </array>
  </eigenvalues>
  <separator name="orbital magnetization" >
   <v name="MAGDIPOLOUT">      0.00000000      0.00000000      0.00000000</v>
  </separator>
  <dos>
   <i name="efermi">     -4.01293849 </i>
   <total>
    <array>
     <dimension dim="1">gridpoints</dimension>
     <dimension dim="2">spin</dimension>
     <field>energy</field>
     <field>total</field>
     <field>integrated</field>
     <set>
      <set comment="spin 1">
       <r>   -29.8648     0.0000     0.0000 </r>
       <r>   -29.7597     0.0000     0.0000 </r>
       <r>   -29.6546     0.0000     0.0000 </r>
       <r>   -29.5494     0.0000     0.0000 </r>
       <r>   -29.4443     0.0000     0.0000 </r>
       <r>   -29.3391     0.0000     0.0000 </r>
       <r>   -29.2340    -0.0000    -0.0000 </r>
       <r>   -29.1289    -0.0000    -0.0000 </r>
       <r>   -29.0237    -0.0000    -0.0000 </r>
       <r>   -28.9186    -0.0000    -0.0000 </r>
       <r>   -28.8135    -0.0000    -0.0000 </r>
       <r>   -28.7083    -0.0060    -0.0006 </r>
       <r>   -28.6032    -0.3301    -0.0353 </r>
       <r>   -28.4981     1.3139     0.1028 </r>
       <r>   -28.3929    14.2181     1.5976 </r>
       <r>   -28.2878     4.4070     2.0610 </r>
       <r>   -28.1827    -0.5563     2.0025 </r>
       <r>   -28.0775    -0.0235     2.0000 </r>
       <r>   -27.9724    -0.0001     2.0000 </r>
       <r>   -27.8673    -0.0000     2.0000 </r>
       <r>   -27.7621    -0.0000     2.0000 </r>
       <r>   -27.6570     0.0000     2.0000 </r>
       <r>   -27.5518     0.0000     2.0000 </r>
       <r>   -27.4467     0.0000     2.0000 </r>
       <r>   -27.3416     0.0000     2.0000 </r>
       <r>   -27.2364     0.0000     2.0000 </r>
       <r>   -27.1313     0.0000     2.0000 </r>
       <r>   -27.0262     0.0000     2.0000 </r>
       <r>   -26.9210     0.0000     2.0000 </r>
       <r>   -26.8159     0.0000     2.0000 </r>
       <r>   -26.7108     0.0000     2.0000 </r>
       <r>   -26.6056     0.0000     2.0000 </r>
       <r>   -26.5005     0.0000     2.0000 </r>
       <r>   -26.3954     0.0000     2.0000 </r>
       <r>   -26.2902     0.0000     2.0000 </r>
       <r>   -26.1851     0.0000     2.0000 </r>
       <r>   -26.0800     0.0000     2.0000 </r>
       <r>   -25.9748     0.0000     2.0000 </r>
       <r>   -25.8697     0.0000     2.0000 </r>
       <r>   -25.7645     0.0000     2.0000 </r>
       <r>   -25.6594     0.0000     2.0000 </r>
       <r>   -25.5543     0.0000     2.0000 </r>
       <r>   -25.4491     0.0000     2.0000 </r>
       <r>   -25.3440     0.0000     2.0000 </r>
       <r>   -25.2389     0.0000     2.0000 </r>
       <r>   -25.1337     0.0000     2.0000 </r>
       <r>   -25.0286     0.0000     2.0000 </r>
       <r>   -24.9235     0.0000     2.0000 </r>
       <r>   -24.8183     0.0000     2.0000 </r>
       <r>   -24.7132     0.0000     2.0000 </r>
       <r>   -24.6081     0.0000     2.0000 </r>
       <r>   -24.5029     0.0000     2.0000 </r>
       <r>   -24.3978     0.0000     2.0000 </r>
       <r>   -24.2927     0.0000     2.0000 </r>
       <r>   -24.1875     0.0000     2.0000 </r>
       <r>   -24.0824     0.0000     2.0000 </r>
       <r>   -23.9772     0.0000     2.0000 </r>
       <r>   -23.8721     0.0000     2.0000 </r>
       <r>   -23.7670     0.0000     2.0000 </r>
       <r>   -23.6618     0.0000     2.0000 </r>
       <r>   -23.5567     0.0000     2.0000 </r>
       <r>   -23.4516     0.0000     2.0000 </r>
       <r>   -23.3464     0.0000     2.0000 </r>
       <r>   -23.2413     0.0000     2.0000 </r>
       <r>   -23.1362     0.0000     2.0000 </r>
       <r>   -23.0310     0.0000     2.0000 </r>
       <r>   -22.9259     0.0000     2.0000 </r>
       <r>   -22.8208     0.0000     2.0000 </r>
       <r>   -22.7156     0.0000     2.0000 </r>
       <r>   -22.6105     0.0000     2.0000 </r>
       <r>   -22.5053     0.0000     2.0000 </r>
       <r>   -22.4002     0.0000     2.0000 </r>
       <r>   -22.2951     0.0000     2.0000 </r>
       <r>   -22.1899     0.0000     2.0000 </r>
       <r>   -22.0848     0.0000     2.0000 </r>
       <r>   -21.9797     0.0000     2.0000 </r>
       <r>   -21.8745     0.0000     2.0000 </r>
       <r>   -21.7694     0.0000     2.0000 </r>
       <r>   -21.6643     0.0000     2.0000 </r>
       <r>   -21.5591     0.0000     2.0000 </r>
       <r>   -21.4540     0.0000     2.0000 </r>
       <r>   -21.3489     0.0000     2.0000 </r>
       <r>   -21.2437     0.0000     2.0000 </r>
       <r>   -21.1386     0.0000     2.0000 </r>
       <r>   -21.0335     0.0000     2.0000 </r>
       <r>   -20.9283     0.0000     2.0000 </r>
       <r>   -20.8232     0.0000     2.0000 </r>
       <r>   -20.7180     0.0000     2.0000 </r>
       <r>   -20.6129     0.0000     2.0000 </r>
       <r>   -20.5078     0.0000     2.0000 </r>
       <r>   -20.4026     0.0000     2.0000 </r>
       <r>   -20.2975     0.0000     2.0000 </r>
       <r>   -20.1924     0.0000     2.0000 </r>
       <r>   -20.0872     0.0000     2.0000 </r>
       <r>   -19.9821     0.0000     2.0000 </r>
       <r>   -19.8770     0.0000     2.0000 </r>
       <r>   -19.7718     0.0000     2.0000 </r>
       <r>   -19.6667     0.0000     2.0000 </r>
       <r>   -19.5616     0.0000     2.0000 </r>
       <r>   -19.4564     0.0000     2.0000 </r>
       <r>   -19.3513     0.0000     2.0000 </r>
       <r>   -19.2462     0.0000     2.0000 </r>
       <r>   -19.1410     0.0000     2.0000 </r>
       <r>   -19.0359     0.0000     2.0000 </r>
       <r>   -18.9307     0.0000     2.0000 </r>
       <r>   -18.8256     0.0000     2.0000 </r>
       <r>   -18.7205     0.0000     2.0000 </r>
       <r>   -18.6153     0.0000     2.0000 </r>
       <r>   -18.5102     0.0000     2.0000 </r>
       <r>   -18.4051     0.0000     2.0000 </r>
       <r>   -18.2999     0.0000     2.0000 </r>
       <r>   -18.1948     0.0000     2.0000 </r>
       <r>   -18.0897     0.0000     2.0000 </r>
       <r>   -17.9845     0.0000     2.0000 </r>
       <r>   -17.8794     0.0000     2.0000 </r>
       <r>   -17.7743     0.0000     2.0000 </r>
       <r>   -17.6691     0.0000     2.0000 </r>
       <r>   -17.5640     0.0000     2.0000 </r>
       <r>   -17.4589     0.0000     2.0000 </r>
       <r>   -17.3537     0.0000     2.0000 </r>
       <r>   -17.2486     0.0000     2.0000 </r>
       <r>   -17.1434     0.0000     2.0000 </r>
       <r>   -17.0383     0.0000     2.0000 </r>
       <r>   -16.9332     0.0000     2.0000 </r>
       <r>   -16.8280     0.0000     2.0000 </r>
       <r>   -16.7229     0.0000     2.0000 </r>
       <r>   -16.6178     0.0000     2.0000 </r>
       <r>   -16.5126     0.0000     2.0000 </r>
       <r>   -16.4075     0.0000     2.0000 </r>
       <r>   -16.3024     0.0000     2.0000 </r>
       <r>   -16.1972     0.0000     2.0000 </r>
       <r>   -16.0921     0.0000     2.0000 </r>
       <r>   -15.9870     0.0000     2.0000 </r>
       <r>   -15.8818     0.0000     2.0000 </r>
       <r>   -15.7767     0.0000     2.0000 </r>
       <r>   -15.6716     0.0000     2.0000 </r>
       <r>   -15.5664     0.0000     2.0000 </r>
       <r>   -15.4613     0.0000     2.0000 </r>
       <r>   -15.3561     0.0000     2.0000 </r>
       <r>   -15.2510     0.0000     2.0000 </r>
       <r>   -15.1459     0.0000     2.0000 </r>
       <r>   -15.0407     0.0000     2.0000 </r>
       <r>   -14.9356     0.0000     2.0000 </r>
       <r>   -14.8305     0.0000     2.0000 </r>
       <r>   -14.7253    -0.0000     2.0000 </r>
       <r>   -14.6202    -0.0000     2.0000 </r>
       <r>   -14.5151    -0.0000     2.0000 </r>
       <r>   -14.4099    -0.0000     2.0000 </r>
       <r>   -14.3048    -0.0000     2.0000 </r>
       <r>   -14.1997    -0.0000     2.0000 </r>
       <r>   -14.0945    -0.0161     1.9983 </r>
       <r>   -13.9894    -0.4954     1.9462 </r>
       <r>   -13.8843     3.3539     2.2988 </r>
       <r>   -13.7791    14.5362     3.8271 </r>
       <r>   -13.6740     2.0508     4.0427 </r>
       <r>   -13.5688    -0.3972     4.0010 </r>
       <r>   -13.4637    -0.0091     4.0000 </r>
       <r>   -13.3586    -0.0000     4.0000 </r>
       <r>   -13.2534    -0.0000     4.0000 </r>
       <r>   -13.1483    -0.0000     4.0000 </r>
       <r>   -13.0432     0.0000     4.0000 </r>
       <r>   -12.9380     0.0000     4.0000 </r>
       <r>   -12.8329     0.0000     4.0000 </r>
       <r>   -12.7278     0.0000     4.0000 </r>
       <r>   -12.6226     0.0000     4.0000 </r>
       <r>   -12.5175     0.0000     4.0000 </r>
       <r>   -12.4124     0.0000     4.0000 </r>
       <r>   -12.3072     0.0000     4.0000 </r>
       <r>   -12.2021    -0.0000     4.0000 </r>
       <r>   -12.0969    -0.0000     4.0000 </r>
       <r>   -11.9918    -0.0000     4.0000 </r>
       <r>   -11.8867    -0.0000     4.0000 </r>
       <r>   -11.7815    -0.0000     4.0000 </r>
       <r>   -11.6764    -0.0000     4.0000 </r>
       <r>   -11.5713    -0.0140     3.9985 </r>
       <r>   -11.4661    -0.4717     3.9489 </r>
       <r>   -11.3610     2.9798     4.2622 </r>
       <r>   -11.2559    14.0184     5.7360 </r>
       <r>   -11.1507     6.8803     6.4594 </r>
       <r>   -11.0456    13.3295     7.8608 </r>
       <r>   -10.9405    11.9027     9.1122 </r>
       <r>   -10.8353     9.0684    10.0656 </r>
       <r>   -10.7302    -0.5329    10.0096 </r>
       <r>   -10.6251    -0.0907    10.0001 </r>
       <r>   -10.5199    -0.0006    10.0000 </r>
       <r>   -10.4148    -0.0019     9.9998 </r>
       <r>   -10.3096    -0.1843     9.9804 </r>
       <r>   -10.2045     0.0232     9.9829 </r>
       <r>   -10.0994    12.3239    11.2785 </r>
       <r>    -9.9942     7.5366    12.0709 </r>
       <r>    -9.8891    -0.6165    12.0061 </r>
       <r>    -9.7840    -0.0576    12.0000 </r>
       <r>    -9.6788    -0.0003    12.0000 </r>
       <r>    -9.5737    -0.0000    12.0000 </r>
       <r>    -9.4686    -0.0000    12.0000 </r>
       <r>    -9.3634    -0.0000    12.0000 </r>
       <r>    -9.2583    -0.0000    12.0000 </r>
       <r>    -9.1532    -0.0000    12.0000 </r>
       <r>    -9.0480    -0.0000    12.0000 </r>
       <r>    -8.9429    -0.0005    12.0000 </r>
       <r>    -8.8378    -0.0813    11.9914 </r>
       <r>    -8.7326    -0.5615    11.9324 </r>
       <r>    -8.6275     8.9282    12.8710 </r>
       <r>    -8.5223    11.1609    14.0445 </r>
       <r>    -8.4172    -0.4682    13.9952 </r>
       <r>    -8.3121    -0.1243    13.9822 </r>
       <r>    -8.2069    12.2964    15.2750 </r>
       <r>    -8.1018     7.5706    16.0709 </r>
       <r>    -7.9967    -0.6160    16.0061 </r>
       <r>    -7.8915    -0.0892    15.9967 </r>
       <r>    -7.7864    -0.6002    15.9336 </r>
       <r>    -7.6813     4.9255    16.4515 </r>
       <r>    -7.5761    14.5963    17.9861 </r>
       <r>    -7.4710    19.8471    20.0727 </r>
       <r>    -7.3659    19.7348    22.1475 </r>
       <r>    -7.2607    26.0594    24.8873 </r>
       <r>    -7.1556    13.2844    26.2840 </r>
       <r>    -7.0505    27.7882    29.2055 </r>
       <r>    -6.9453    26.3813    31.9791 </r>
       <r>    -6.8402    17.2746    33.7953 </r>
       <r>    -6.7350    24.8670    36.4097 </r>
       <r>    -6.6299    39.5622    40.5691 </r>
       <r>    -6.5248    47.7749    45.5919 </r>
       <r>    -6.4196    35.9963    49.3764 </r>
       <r>    -6.3145    44.7959    54.0860 </r>
       <r>    -6.2094    44.6715    58.7826 </r>
       <r>    -6.1042    46.1781    63.6375 </r>
       <r>    -5.9991    33.6164    67.1718 </r>
       <r>    -5.8940    20.2986    69.3059 </r>
       <r>    -5.7888    24.1218    71.8419 </r>
       <r>    -5.6837    43.9928    76.4671 </r>
       <r>    -5.5786    49.9135    81.7148 </r>
       <r>    -5.4734    64.9052    88.5386 </r>
       <r>    -5.3683    64.1339    95.2814 </r>
       <r>    -5.2632    87.6447   104.4959 </r>
       <r>    -5.1580    81.5623   113.0710 </r>
       <r>    -5.0529    66.4916   120.0616 </r>
       <r>    -4.9477    76.8865   128.1451 </r>
       <r>    -4.8426    92.0160   137.8193 </r>
       <r>    -4.7375    60.0962   144.1375 </r>
       <r>    -4.6323    18.6579   146.0991 </r>
       <r>    -4.5272     5.8668   146.7159 </r>
       <r>    -4.4221    11.8238   147.9590 </r>
       <r>    -4.3169     2.7363   148.2467 </r>
       <r>    -4.2118    15.6707   149.8942 </r>
       <r>    -4.1067    16.5745   151.6368 </r>
       <r>    -4.0015     4.0489   152.0625 </r>
       <r>    -3.8964    -0.5702   152.0025 </r>
       <r>    -3.7913    -0.0335   151.9990 </r>
       <r>    -3.6861    -0.4050   151.9564 </r>
       <r>    -3.5810     2.1424   152.1817 </r>
       <r>    -3.4759    14.5559   153.7120 </r>
       <r>    -3.3707     3.2427   154.0529 </r>
       <r>    -3.2656    -0.4896   154.0015 </r>
       <r>    -3.1604    -0.1981   153.9806 </r>
       <r>    -3.0553    -0.6719   153.9100 </r>
       <r>    -2.9502    15.8523   155.5766 </r>
       <r>    -2.8450    22.5256   157.9449 </r>
       <r>    -2.7399     0.5939   158.0073 </r>
       <r>    -2.6348     1.1095   158.1239 </r>
       <r>    -2.5296    14.3168   159.6292 </r>
       <r>    -2.4245     3.5304   160.0003 </r>
       <r>    -2.3194     3.4784   160.3660 </r>
       <r>    -2.2142    14.3136   161.8709 </r>
       <r>    -2.1091     0.9625   161.9721 </r>
       <r>    -2.0040     3.8297   162.3747 </r>
       <r>    -1.8988    18.1107   164.2788 </r>
       <r>    -1.7937    20.7966   166.4653 </r>
       <r>    -1.6885    14.4679   167.9864 </r>
       <r>    -1.5834    -0.1882   167.9666 </r>
       <r>    -1.4783     4.3890   168.4280 </r>
       <r>    -1.3731    14.1071   169.9112 </r>
       <r>    -1.2680     1.1337   170.0304 </r>
       <r>    -1.1629    -0.9522   169.9302 </r>
       <r>    -1.0577     4.7621   170.4309 </r>
       <r>    -0.9526    19.8984   172.5229 </r>
       <r>    -0.8475    13.4489   173.9369 </r>
       <r>    -0.7423     6.9106   174.6634 </r>
       <r>    -0.6372    12.6645   175.9949 </r>
       <r>    -0.5321    -0.1540   175.9787 </r>
       <r>    -0.4269     0.5748   176.0392 </r>
       <r>    -0.3218    22.0229   178.3545 </r>
       <r>    -0.2167    23.7058   180.8469 </r>
       <r>    -0.1115    11.3743   182.0427 </r>
       <r>    -0.0064    -0.4385   181.9966 </r>
       <r>     0.0988     0.0193   181.9986 </r>
       <r>     0.2039    12.7630   183.3405 </r>
       <r>     0.3090     6.9446   184.0706 </r>
       <r>     0.4142    -0.6219   184.0052 </r>
       <r>     0.5193    -0.0494   184.0000 </r>
       <r>     0.6244    -0.0002   184.0000 </r>
       <r>     0.7296    -0.0000   184.0000 </r>
       <r>     0.8347    -0.0000   184.0000 </r>
       <r>     0.9398     0.0000   184.0000 </r>
       <r>     1.0450     0.0000   184.0000 </r>
       <r>     1.1501     0.0000   184.0000 </r>
       <r>     1.2552     0.0000   184.0000 </r>
       <r>     1.3604     0.0000   184.0000 </r>
       <r>     1.4655     0.0000   184.0000 </r>
       <r>     1.5706     0.0000   184.0000 </r>
       <r>     1.6758     0.0000   184.0000 </r>
      </set>
      <set comment="spin 2">
       <r>   -29.8648     0.0000     0.0000 </r>
       <r>   -29.7597     0.0000     0.0000 </r>
       <r>   -29.6546     0.0000     0.0000 </r>
       <r>   -29.5494     0.0000     0.0000 </r>
       <r>   -29.4443     0.0000     0.0000 </r>
       <r>   -29.3391     0.0000     0.0000 </r>
       <r>   -29.2340    -0.0000    -0.0000 </r>
       <r>   -29.1289    -0.0000    -0.0000 </r>
       <r>   -29.0237    -0.0000    -0.0000 </r>
       <r>   -28.9186    -0.0000    -0.0000 </r>
       <r>   -28.8135    -0.0000    -0.0000 </r>
       <r>   -28.7083    -0.0013    -0.0001 </r>
       <r>   -28.6032    -0.1497    -0.0159 </r>
       <r>   -28.4981    -0.2150    -0.0385 </r>
       <r>   -28.3929    11.4871     1.1692 </r>
       <r>   -28.2878     8.5594     2.0691 </r>
       <r>   -28.1827    -0.5827     2.0079 </r>
       <r>   -28.0775    -0.0743     2.0000 </r>
       <r>   -27.9724    -0.0004     2.0000 </r>
       <r>   -27.8673    -0.0000     2.0000 </r>
       <r>   -27.7621    -0.0000     2.0000 </r>
       <r>   -27.6570     0.0000     2.0000 </r>
       <r>   -27.5518     0.0000     2.0000 </r>
       <r>   -27.4467     0.0000     2.0000 </r>
       <r>   -27.3416     0.0000     2.0000 </r>
       <r>   -27.2364     0.0000     2.0000 </r>
       <r>   -27.1313     0.0000     2.0000 </r>
       <r>   -27.0262     0.0000     2.0000 </r>
       <r>   -26.9210     0.0000     2.0000 </r>
       <r>   -26.8159     0.0000     2.0000 </r>
       <r>   -26.7108     0.0000     2.0000 </r>
       <r>   -26.6056     0.0000     2.0000 </r>
       <r>   -26.5005     0.0000     2.0000 </r>
       <r>   -26.3954     0.0000     2.0000 </r>
       <r>   -26.2902     0.0000     2.0000 </r>
       <r>   -26.1851     0.0000     2.0000 </r>
       <r>   -26.0800     0.0000     2.0000 </r>
       <r>   -25.9748     0.0000     2.0000 </r>
       <r>   -25.8697     0.0000     2.0000 </r>
       <r>   -25.7645     0.0000     2.0000 </r>
       <r>   -25.6594     0.0000     2.0000 </r>
       <r>   -25.5543     0.0000     2.0000 </r>
       <r>   -25.4491     0.0000     2.0000 </r>
       <r>   -25.3440     0.0000     2.0000 </r>
       <r>   -25.2389     0.0000     2.0000 </r>
       <r>   -25.1337     0.0000     2.0000 </r>
       <r>   -25.0286     0.0000     2.0000 </r>
       <r>   -24.9235     0.0000     2.0000 </r>
       <r>   -24.8183     0.0000     2.0000 </r>
       <r>   -24.7132     0.0000     2.0000 </r>
       <r>   -24.6081     0.0000     2.0000 </r>
       <r>   -24.5029     0.0000     2.0000 </r>
       <r>   -24.3978     0.0000     2.0000 </r>
       <r>   -24.2927     0.0000     2.0000 </r>
       <r>   -24.1875     0.0000     2.0000 </r>
       <r>   -24.0824     0.0000     2.0000 </r>
       <r>   -23.9772     0.0000     2.0000 </r>
       <r>   -23.8721     0.0000     2.0000 </r>
       <r>   -23.7670     0.0000     2.0000 </r>
       <r>   -23.6618     0.0000     2.0000 </r>
       <r>   -23.5567     0.0000     2.0000 </r>
       <r>   -23.4516     0.0000     2.0000 </r>
       <r>   -23.3464     0.0000     2.0000 </r>
       <r>   -23.2413     0.0000     2.0000 </r>
       <r>   -23.1362     0.0000     2.0000 </r>
       <r>   -23.0310     0.0000     2.0000 </r>
       <r>   -22.9259     0.0000     2.0000 </r>
       <r>   -22.8208     0.0000     2.0000 </r>
       <r>   -22.7156     0.0000     2.0000 </r>
       <r>   -22.6105     0.0000     2.0000 </r>
       <r>   -22.5053     0.0000     2.0000 </r>
       <r>   -22.4002     0.0000     2.0000 </r>
       <r>   -22.2951     0.0000     2.0000 </r>
       <r>   -22.1899     0.0000     2.0000 </r>
       <r>   -22.0848     0.0000     2.0000 </r>
       <r>   -21.9797     0.0000     2.0000 </r>
       <r>   -21.8745     0.0000     2.0000 </r>
       <r>   -21.7694     0.0000     2.0000 </r>
       <r>   -21.6643     0.0000     2.0000 </r>
       <r>   -21.5591     0.0000     2.0000 </r>
       <r>   -21.4540     0.0000     2.0000 </r>
       <r>   -21.3489     0.0000     2.0000 </r>
       <r>   -21.2437     0.0000     2.0000 </r>
       <r>   -21.1386     0.0000     2.0000 </r>
       <r>   -21.0335     0.0000     2.0000 </r>
       <r>   -20.9283     0.0000     2.0000 </r>
       <r>   -20.8232     0.0000     2.0000 </r>
       <r>   -20.7180     0.0000     2.0000 </r>
       <r>   -20.6129     0.0000     2.0000 </r>
       <r>   -20.5078     0.0000     2.0000 </r>
       <r>   -20.4026     0.0000     2.0000 </r>
       <r>   -20.2975     0.0000     2.0000 </r>
       <r>   -20.1924     0.0000     2.0000 </r>
       <r>   -20.0872     0.0000     2.0000 </r>
       <r>   -19.9821     0.0000     2.0000 </r>
       <r>   -19.8770     0.0000     2.0000 </r>
       <r>   -19.7718     0.0000     2.0000 </r>
       <r>   -19.6667     0.0000     2.0000 </r>
       <r>   -19.5616     0.0000     2.0000 </r>
       <r>   -19.4564     0.0000     2.0000 </r>
       <r>   -19.3513     0.0000     2.0000 </r>
       <r>   -19.2462     0.0000     2.0000 </r>
       <r>   -19.1410     0.0000     2.0000 </r>
       <r>   -19.0359     0.0000     2.0000 </r>
       <r>   -18.9307     0.0000     2.0000 </r>
       <r>   -18.8256     0.0000     2.0000 </r>
       <r>   -18.7205     0.0000     2.0000 </r>
       <r>   -18.6153     0.0000     2.0000 </r>
       <r>   -18.5102     0.0000     2.0000 </r>
       <r>   -18.4051     0.0000     2.0000 </r>
       <r>   -18.2999     0.0000     2.0000 </r>
       <r>   -18.1948     0.0000     2.0000 </r>
       <r>   -18.0897     0.0000     2.0000 </r>
       <r>   -17.9845     0.0000     2.0000 </r>
       <r>   -17.8794     0.0000     2.0000 </r>
       <r>   -17.7743     0.0000     2.0000 </r>
       <r>   -17.6691     0.0000     2.0000 </r>
       <r>   -17.5640     0.0000     2.0000 </r>
       <r>   -17.4589     0.0000     2.0000 </r>
       <r>   -17.3537     0.0000     2.0000 </r>
       <r>   -17.2486     0.0000     2.0000 </r>
       <r>   -17.1434     0.0000     2.0000 </r>
       <r>   -17.0383     0.0000     2.0000 </r>
       <r>   -16.9332     0.0000     2.0000 </r>
       <r>   -16.8280     0.0000     2.0000 </r>
       <r>   -16.7229     0.0000     2.0000 </r>
       <r>   -16.6178     0.0000     2.0000 </r>
       <r>   -16.5126     0.0000     2.0000 </r>
       <r>   -16.4075     0.0000     2.0000 </r>
       <r>   -16.3024     0.0000     2.0000 </r>
       <r>   -16.1972     0.0000     2.0000 </r>
       <r>   -16.0921     0.0000     2.0000 </r>
       <r>   -15.9870     0.0000     2.0000 </r>
       <r>   -15.8818     0.0000     2.0000 </r>
       <r>   -15.7767     0.0000     2.0000 </r>
       <r>   -15.6716     0.0000     2.0000 </r>
       <r>   -15.5664     0.0000     2.0000 </r>
       <r>   -15.4613     0.0000     2.0000 </r>
       <r>   -15.3561     0.0000     2.0000 </r>
       <r>   -15.2510     0.0000     2.0000 </r>
       <r>   -15.1459     0.0000     2.0000 </r>
       <r>   -15.0407     0.0000     2.0000 </r>
       <r>   -14.9356     0.0000     2.0000 </r>
       <r>   -14.8305     0.0000     2.0000 </r>
       <r>   -14.7253     0.0000     2.0000 </r>
       <r>   -14.6202    -0.0000     2.0000 </r>
       <r>   -14.5151    -0.0000     2.0000 </r>
       <r>   -14.4099    -0.0000     2.0000 </r>
       <r>   -14.3048    -0.0000     2.0000 </r>
       <r>   -14.1997    -0.0000     2.0000 </r>
       <r>   -14.0945    -0.0012     1.9999 </r>
       <r>   -13.9894    -0.1418     1.9850 </r>
       <r>   -13.8843    -0.2649     1.9571 </r>
       <r>   -13.7791    11.2613     3.1411 </r>
       <r>   -13.6740     8.8176     4.0681 </r>
       <r>   -13.5688    -0.5684     4.0084 </r>
       <r>   -13.4637    -0.0791     4.0000 </r>
       <r>   -13.3586    -0.0004     4.0000 </r>
       <r>   -13.2534    -0.0000     4.0000 </r>
       <r>   -13.1483    -0.0000     4.0000 </r>
       <r>   -13.0432     0.0000     4.0000 </r>
       <r>   -12.9380     0.0000     4.0000 </r>
       <r>   -12.8329     0.0000     4.0000 </r>
       <r>   -12.7278     0.0000     4.0000 </r>
       <r>   -12.6226     0.0000     4.0000 </r>
       <r>   -12.5175     0.0000     4.0000 </r>
       <r>   -12.4124     0.0000     4.0000 </r>
       <r>   -12.3072     0.0000     4.0000 </r>
       <r>   -12.2021     0.0000     4.0000 </r>
       <r>   -12.0969    -0.0000     4.0000 </r>
       <r>   -11.9918    -0.0000     4.0000 </r>
       <r>   -11.8867    -0.0000     4.0000 </r>
       <r>   -11.7815    -0.0000     4.0000 </r>
       <r>   -11.6764    -0.0000     4.0000 </r>
       <r>   -11.5713    -0.0016     3.9998 </r>
       <r>   -11.4661    -0.1666     3.9823 </r>
       <r>   -11.3610    -0.1100     3.9708 </r>
       <r>   -11.2559    11.5669     5.1868 </r>
       <r>   -11.1507     9.6169     6.1979 </r>
       <r>   -11.0456    13.4707     7.6142 </r>
       <r>   -10.9405     4.8924     8.1285 </r>
       <r>   -10.8353    13.4033     9.5377 </r>
       <r>   -10.7302     5.0099    10.0644 </r>
       <r>   -10.6251    -0.5839    10.0030 </r>
       <r>   -10.5199    -0.0287    10.0000 </r>
       <r>   -10.4148    -0.0002    10.0000 </r>
       <r>   -10.3096    -0.0357     9.9962 </r>
       <r>   -10.2045    -0.6074     9.9324 </r>
       <r>   -10.0994     5.7658    10.5386 </r>
       <r>    -9.9942    13.5375    11.9618 </r>
       <r>    -9.8891     0.6249    12.0275 </r>
       <r>    -9.7840    -0.2582    12.0004 </r>
       <r>    -9.6788    -0.0036    12.0000 </r>
       <r>    -9.5737    -0.0000    12.0000 </r>
       <r>    -9.4686    -0.0000    12.0000 </r>
       <r>    -9.3634    -0.0000    12.0000 </r>
       <r>    -9.2583    -0.0000    12.0000 </r>
       <r>    -9.1532    -0.0000    12.0000 </r>
       <r>    -9.0480    -0.0000    12.0000 </r>
       <r>    -8.9429    -0.0001    12.0000 </r>
       <r>    -8.8378    -0.0357    11.9962 </r>
       <r>    -8.7326    -0.6073    11.9324 </r>
       <r>    -8.6275     5.7610    12.5381 </r>
       <r>    -8.5223    13.5402    13.9616 </r>
       <r>    -8.4172     0.5988    14.0246 </r>
       <r>    -8.3121    -0.8397    13.9363 </r>
       <r>    -8.2069     4.9634    14.4581 </r>
       <r>    -8.1018    13.9689    15.9268 </r>
       <r>    -7.9967     1.0001    16.0319 </r>
       <r>    -7.8915    -0.3033    16.0000 </r>
       <r>    -7.7864    -0.3011    15.9684 </r>
       <r>    -7.6813     0.7282    16.0449 </r>
       <r>    -7.5761    13.7410    17.4896 </r>
       <r>    -7.4710    20.2175    19.6152 </r>
       <r>    -7.3659    19.7433    21.6909 </r>
       <r>    -7.2607    19.3726    23.7276 </r>
       <r>    -7.1556    21.6618    26.0050 </r>
       <r>    -7.0505    20.5027    28.1606 </r>
       <r>    -6.9453    31.4013    31.4620 </r>
       <r>    -6.8402    15.7828    33.1213 </r>
       <r>    -6.7350    26.0456    35.8596 </r>
       <r>    -6.6299    35.2992    39.5708 </r>
       <r>    -6.5248    46.6811    44.4787 </r>
       <r>    -6.4196    36.1200    48.2762 </r>
       <r>    -6.3145    45.2455    53.0331 </r>
       <r>    -6.2094    45.0007    57.7642 </r>
       <r>    -6.1042    46.5952    62.6630 </r>
       <r>    -5.9991    36.2533    66.4745 </r>
       <r>    -5.8940    22.6148    68.8522 </r>
       <r>    -5.7888    21.5002    71.1126 </r>
       <r>    -5.6837    39.4835    75.2637 </r>
       <r>    -5.5786    48.1905    80.3302 </r>
       <r>    -5.4734    61.6097    86.8076 </r>
       <r>    -5.3683    65.0609    93.6478 </r>
       <r>    -5.2632    80.8877   102.1519 </r>
       <r>    -5.1580    89.0297   111.5121 </r>
       <r>    -5.0529    66.5194   118.5057 </r>
       <r>    -4.9477    71.2185   125.9932 </r>
       <r>    -4.8426    88.6117   135.3095 </r>
       <r>    -4.7375    71.9040   142.8691 </r>
       <r>    -4.6323    29.6291   145.9842 </r>
       <r>    -4.5272     2.5384   146.2510 </r>
       <r>    -4.4221    13.8436   147.7065 </r>
       <r>    -4.3169     2.9498   148.0166 </r>
       <r>    -4.2118    10.8646   149.1589 </r>
       <r>    -4.1067    16.2937   150.8719 </r>
       <r>    -4.0015    11.1134   152.0403 </r>
       <r>    -3.8964    -0.2234   152.0168 </r>
       <r>    -3.7913    -0.1587   152.0002 </r>
       <r>    -3.6861    -0.0015   152.0000 </r>
       <r>    -3.5810    -0.0051   151.9995 </r>
       <r>    -3.4759    -0.3042   151.9675 </r>
       <r>    -3.3707     1.0541   152.0783 </r>
       <r>    -3.2656    14.0179   153.5521 </r>
       <r>    -3.1604     4.8285   154.0597 </r>
       <r>    -3.0553    -1.3412   153.9187 </r>
       <r>    -2.9502     5.4856   154.4955 </r>
       <r>    -2.8450    25.3351   157.1591 </r>
       <r>    -2.7399     8.9107   158.0959 </r>
       <r>    -2.6348    -1.3894   157.9498 </r>
       <r>    -2.5296     3.8493   158.3545 </r>
       <r>    -2.4245    14.3607   159.8644 </r>
       <r>    -2.3194     1.0345   159.9731 </r>
       <r>    -2.2142     4.8810   160.4863 </r>
       <r>    -2.1091    13.4819   161.9037 </r>
       <r>    -2.0040     2.1624   162.1311 </r>
       <r>    -1.8988    13.2842   163.5277 </r>
       <r>    -1.7937    13.3466   164.9309 </r>
       <r>    -1.6885    22.0753   167.2518 </r>
       <r>    -1.5834     7.9039   168.0828 </r>
       <r>    -1.4783    -1.1177   167.9653 </r>
       <r>    -1.3731     1.9220   168.1673 </r>
       <r>    -1.2680    14.5213   169.6940 </r>
       <r>    -1.1629     3.4200   170.0536 </r>
       <r>    -1.0577    -0.9205   169.9568 </r>
       <r>    -0.9526     0.8589   170.0471 </r>
       <r>    -0.8475    22.7830   172.4424 </r>
       <r>    -0.7423    15.8041   174.1040 </r>
       <r>    -0.6372    12.1035   175.3765 </r>
       <r>    -0.5321     6.5572   176.0659 </r>
       <r>    -0.4269    -1.6339   175.8941 </r>
       <r>    -0.3218     7.6312   176.6964 </r>
       <r>    -0.2167    27.6453   179.6029 </r>
       <r>    -0.1115    12.8498   180.9539 </r>
       <r>    -0.0064    10.3727   182.0444 </r>
       <r>     0.0988    -0.8633   181.9537 </r>
       <r>     0.2039     4.2690   182.4025 </r>
       <r>     0.3090    14.2170   183.8972 </r>
       <r>     0.4142     1.3139   184.0353 </r>
       <r>     0.5193    -0.3301   184.0006 </r>
       <r>     0.6244    -0.0060   184.0000 </r>
       <r>     0.7296    -0.0000   184.0000 </r>
       <r>     0.8347    -0.0000   184.0000 </r>
       <r>     0.9398    -0.0000   184.0000 </r>
       <r>     1.0450     0.0000   184.0000 </r>
       <r>     1.1501     0.0000   184.0000 </r>
       <r>     1.2552     0.0000   184.0000 </r>
       <r>     1.3604     0.0000   184.0000 </r>
       <r>     1.4655     0.0000   184.0000 </r>
       <r>     1.5706     0.0000   184.0000 </r>
       <r>     1.6758     0.0000   184.0000 </r>
      </set>
     </set>
    </array>
   </total>
  </dos>
 </calculation>
 <structure name="finalpos" >
  <crystal>
   <varray name="basis" >
    <v>      15.00000000       0.00000000       0.00000000 </v>
    <v>       0.00000000      15.00000000       0.00000000 </v>
    <v>       0.00000000       0.00000000      15.00000000 </v>
   </varray>
   <i name="volume">   3375.00000000 </i>
   <varray name="rec_basis" >
    <v>       0.06666667       0.00000000       0.00000000 </v>
    <v>       0.00000000       0.06666667       0.00000000 </v>
    <v>       0.00000000       0.00000000       0.06666667 </v>
   </varray>
  </crystal>
  <varray name="positions" >
   <v>       0.29258867       0.42263400       0.56400533 </v>
   <v>       0.36912867       0.55568467       0.48967533 </v>
   <v>       0.39893467       0.28538467       0.55402133 </v>
   <v>       0.53066667       0.50673067       0.47934933 </v>
   <v>       0.55322933       0.35235067       0.51375000 </v>
   <v>       0.45117067       0.42445000       0.61117067 </v>
   <v>       0.40771867       0.40778667       0.45554400 </v>
   <v>       0.22268800       0.58029667       0.56050533 </v>
   <v>       0.33925467       0.53677133       0.65944200 </v>
   <v>       0.34820133       0.68354667       0.57170267 </v>
   <v>       0.49230133       0.65930867       0.47644667 </v>
   <v>       0.62595133       0.47769533       0.60387267 </v>
   <v>       0.48579400       0.58650867       0.61712467 </v>
   <v>       0.73937333       0.50058933       0.64365667 </v>
   <v>       0.81456000       0.51831867       0.64503333 </v>
  </varray>
 </structure>
</modeling>
