 vasp.5.4.4.18Apr17-6-g9f103f2a35 (build May 08 2019 13:49:07) complex          
  
 executed on             LinuxIFC date 2019.11.13  11:46:16
 running on   24 total cores
 distrk:  each k-point on   24 cores,    1 groups
 distr:  one band on NCORES_PER_BAND=   6 cores,    4 groups


--------------------------------------------------------------------------------------------------------


 INCAR:
 POTCAR:    PAW_PBE Cu 22Jun2005                  
 POTCAR:    PAW_PBE C 08Apr2002                   
 POTCAR:    PAW_PBE O 08Apr2002                   
 POTCAR:    PAW_PBE Cu 22Jun2005                  
   VRHFIN =Cu: d10 p1                                                           
   LEXCH  = PE                                                                  
   EATOM  =  1390.9808 eV,  102.2342 Ry                                         
                                                                                
   TITEL  = PAW_PBE Cu 22Jun2005                                                
   LULTRA =        F    use ultrasoft PP ?                                      
   IUNSCR =        1    unscreen: 0-lin 1-nonlin 2-no                           
   RPACOR =    2.000    partial core radius                                     
   POMASS =   63.546; ZVAL   =   11.000    mass and valenz                      
   RCORE  =    2.300    outmost cutoff radius                                   
   RWIGS  =    2.200; RWIGS  =    1.164    wigner-seitz radius (au A)           
   ENMAX  =  295.446; ENMIN  =  221.585 eV                                      
   ICORE  =        3    local potential                                         
   LCOR   =        T    correct aug charges                                     
   LPAW   =        T    paw PP                                                  
   EAUG   =  586.980                                                            
   DEXC   =    0.000                                                            
   RMAX   =    2.344    core radius for proj-oper                               
   RAUG   =    1.300    factor for augmentation sphere                          
   RDEP   =    2.302    radius for radial grids                                 
   RDEPT  =    1.771    core radius for aug-charge                              
                                                                                
   Atomic configuration                                                         
    9 entries                                                                   
     n  l   j            E        occ.                                          
     1  0  0.50     -8850.2468   2.0000                                         
     2  0  0.50     -1062.3498   2.0000                                         
     2  1  1.50      -916.8226   6.0000                                         
     3  0  0.50      -114.6929   2.0000                                         
     3  1  1.50       -72.1325   6.0000                                         
     3  2  2.50        -5.0394  10.0000                                         
     4  0  0.50        -4.6097   1.0000                                         
     4  1  0.50        -4.0817   0.0000                                         
     4  3  2.50        -1.3606   0.0000                                         
   Description                                                                  
     l       E           TYP  RCUT    TYP  RCUT                                 
     2     -5.0393973     23  2.200                                             
     2     10.8846608     23  2.200                                             
     0     -4.6097109     23  2.200                                             
     0      8.2520465     23  2.200                                             
     1     -2.7211652     23  2.200                                             
     1     21.7055443     23  2.200                                             
     3      2.7211652     23  2.300                                             
  local pseudopotential read in
  partial core-charges read in
  partial kinetic energy density read in
  atomic valenz-charges read in
  non local Contribution for L=           2  read in
    real space projection operators read in
  non local Contribution for L=           2  read in
    real space projection operators read in
  non local Contribution for L=           0  read in
    real space projection operators read in
  non local Contribution for L=           0  read in
    real space projection operators read in
  non local Contribution for L=           1  read in
    real space projection operators read in
  non local Contribution for L=           1  read in
    real space projection operators read in
    PAW grid and wavefunctions read in
 
   number of l-projection  operators is LMAX  =           6
   number of lm-projection operators is LMMAX =          18
 
 POTCAR:    PAW_PBE C 08Apr2002                   
   VRHFIN =C: s2p2                                                              
   LEXCH  = PE                                                                  
   EATOM  =   147.1560 eV,   10.8157 Ry                                         
                                                                                
   TITEL  = PAW_PBE C 08Apr2002                                                 
   LULTRA =        F    use ultrasoft PP ?                                      
   IUNSCR =        1    unscreen: 0-lin 1-nonlin 2-no                           
   RPACOR =    1.200    partial core radius                                     
   POMASS =   12.011; ZVAL   =    4.000    mass and valenz                      
   RCORE  =    1.500    outmost cutoff radius                                   
   RWIGS  =    1.630; RWIGS  =    0.863    wigner-seitz radius (au A)           
   ENMAX  =  400.000; ENMIN  =  300.000 eV                                      
   ICORE  =        2    local potential                                         
   LCOR   =        T    correct aug charges                                     
   LPAW   =        T    paw PP                                                  
   EAUG   =  644.873                                                            
   DEXC   =    0.000                                                            
   RMAX   =    1.529    core radius for proj-oper                               
   RAUG   =    1.300    factor for augmentation sphere                          
   RDEP   =    1.501    radius for radial grids                                 
   RDEPT  =    1.300    core radius for aug-charge                              
                                                                                
   Atomic configuration                                                         
    4 entries                                                                   
     n  l   j            E        occ.                                          
     1  0  0.50      -273.3789   2.0000                                         
     2  0  0.50       -13.7508   2.0000                                         
     2  1  0.50        -5.2854   2.0000                                         
     3  2  1.50        -5.4423   0.0000                                         
   Description                                                                  
     l       E           TYP  RCUT    TYP  RCUT                                 
     0    -13.7508458     23  1.200                                             
     0     -8.2022199     23  1.200                                             
     1     -5.2854383     23  1.500                                             
     1     34.0145650     23  1.500                                             
     2     -5.4423304      7  1.500                                             
  local pseudopotential read in
  partial core-charges read in
  partial kinetic energy density read in
  atomic valenz-charges read in
  non local Contribution for L=           0  read in
    real space projection operators read in
  non local Contribution for L=           0  read in
    real space projection operators read in
  non local Contribution for L=           1  read in
    real space projection operators read in
  non local Contribution for L=           1  read in
    real space projection operators read in
    PAW grid and wavefunctions read in
 
   number of l-projection  operators is LMAX  =           4
   number of lm-projection operators is LMMAX =           8
 
 POTCAR:    PAW_PBE O 08Apr2002                   
   VRHFIN =O: s2p4                                                              
   LEXCH  = PE                                                                  
   EATOM  =   432.3788 eV,   31.7789 Ry                                         
                                                                                
   TITEL  = PAW_PBE O 08Apr2002                                                 
   LULTRA =        F    use ultrasoft PP ?                                      
   IUNSCR =        1    unscreen: 0-lin 1-nonlin 2-no                           
   RPACOR =    1.200    partial core radius                                     
   POMASS =   16.000; ZVAL   =    6.000    mass and valenz                      
   RCORE  =    1.520    outmost cutoff radius                                   
   RWIGS  =    1.550; RWIGS  =    0.820    wigner-seitz radius (au A)           
   ENMAX  =  400.000; ENMIN  =  300.000 eV                                      
   ICORE  =        2    local potential                                         
   LCOR   =        T    correct aug charges                                     
   LPAW   =        T    paw PP                                                  
   EAUG   =  605.392                                                            
   DEXC   =    0.000                                                            
   RMAX   =    1.553    core radius for proj-oper                               
   RAUG   =    1.300    factor for augmentation sphere                          
   RDEP   =    1.550    radius for radial grids                                 
   RDEPT  =    1.329    core radius for aug-charge                              
                                                                                
   Atomic configuration                                                         
    4 entries                                                                   
     n  l   j            E        occ.                                          
     1  0  0.50      -514.6923   2.0000                                         
     2  0  0.50       -23.9615   2.0000                                         
     2  1  0.50        -9.0305   4.0000                                         
     3  2  1.50        -9.5241   0.0000                                         
   Description                                                                  
     l       E           TYP  RCUT    TYP  RCUT                                 
     0    -23.9615318     23  1.200                                             
     0     -9.5240782     23  1.200                                             
     1     -9.0304911     23  1.520                                             
     1      8.1634956     23  1.520                                             
     2     -9.5240782      7  1.500                                             
  local pseudopotential read in
  partial core-charges read in
  partial kinetic energy density read in
  kinetic energy density of atom read in
  atomic valenz-charges read in
  non local Contribution for L=           0  read in
    real space projection operators read in
  non local Contribution for L=           0  read in
    real space projection operators read in
  non local Contribution for L=           1  read in
    real space projection operators read in
  non local Contribution for L=           1  read in
    real space projection operators read in
    PAW grid and wavefunctions read in
 
   number of l-projection  operators is LMAX  =           4
   number of lm-projection operators is LMMAX =           8
 
  PAW_PBE Cu 22Jun2005                  :
 energy of atom  1       EATOM=-1390.9808
 kinetic energy error for atom=    0.0033 (will be added to EATOM!!)
  PAW_PBE C 08Apr2002                   :
 energy of atom  2       EATOM= -147.1560
 kinetic energy error for atom=    0.0057 (will be added to EATOM!!)
  PAW_PBE O 08Apr2002                   :
 energy of atom  3       EATOM= -432.3788
 kinetic energy error for atom=    0.0168 (will be added to EATOM!!)
 
 
 POSCAR: Cu13 C1 O1                              
  positions in cartesian coordinates
  No initial velocities read in
 exchange correlation table for  LEXCH =        8
   RHO(1)=    0.500       N(1)  =     2000
   RHO(2)=  100.500       N(2)  =     4000
 


--------------------------------------------------------------------------------------------------------


 ion  position               nearest neighbor table
   1  0.289  0.416  0.559-   8 2.38   3 2.47   2 2.48   6 2.54   9 2.55   7 2.59
   2  0.372  0.545  0.499-  10 2.30   8 2.38   7 2.41  11 2.43   9 2.46  13 2.47   1 2.48   4 2.52
                             6 2.61
   3  0.396  0.291  0.562-   5 2.43   1 2.47   7 2.47   6 2.48
   4  0.535  0.507  0.480-  12 2.36   5 2.46  13 2.48  11 2.49   7 2.50   2 2.52   6 2.62
   5  0.543  0.353  0.534-   6 2.28   3 2.43   4 2.46   7 2.52  12 2.66
   6  0.447  0.439  0.615-   5 2.28  13 2.31   9 2.37   3 2.48   1 2.54   2 2.61   4 2.62   7 2.73

   7  0.413  0.401  0.440-   2 2.41   3 2.47   4 2.50   5 2.52   1 2.59   6 2.73
   8  0.225  0.561  0.554-   9 2.33   1 2.38   2 2.38  10 2.69
   9  0.338  0.545  0.659-   8 2.33  13 2.35   6 2.37   2 2.46  10 2.51   1 2.55
  10  0.356  0.682  0.566-   2 2.30  11 2.36  13 2.45   9 2.51   8 2.69
  11  0.479  0.663  0.470-  10 2.36   2 2.43  13 2.44   4 2.49
  12  0.641  0.488  0.595-  14 1.86   4 2.36   5 2.66
  13  0.482  0.589  0.614-   6 2.31   9 2.35  11 2.44  10 2.45   2 2.47   4 2.48
  14  0.747  0.498  0.658-  15 1.14  12 1.86
  15  0.821  0.509  0.673-  14 1.14
 

IMPORTANT INFORMATION: All symmetrisations will be switched off!
NOSYMM: (Re-)initialisation of all symmetry stuff for point group C_1.

 
 

Automatic generation of k-mesh.
 generate k-points for:    1    1    1
Space group operators:
 irot       det(A)        alpha          n_x          n_y          n_z        tau_x        tau_y        tau_z
    1     1.000000     0.000000     1.000000     0.000000     0.000000     0.000000     0.000000     0.000000
 
 Subroutine IBZKPT returns following result:
 ===========================================
 
 Found      1 irreducible k-points:
 
 Following reciprocal coordinates:
            Coordinates               Weight
  0.000000  0.000000  0.000000      1.000000
 
 Following cartesian coordinates:
            Coordinates               Weight
  0.000000  0.000000  0.000000      1.000000
 


--------------------------------------------------------------------------------------------------------




 Dimension of arrays:
   k-points           NKPTS =      1   k-points in BZ     NKDIM =      1   number of bands    NBANDS=     92
   number of dos      NEDOS =    301   number of ions     NIONS =     15
   non local maximal  LDIM  =      6   non local SUM 2l+1 LMDIM =     18
   total plane-waves  NPLWV = ******
   max r-space proj   IRMAX =      1   max aug-charges    IRDMAX=  15028
   dimension x,y,z NGX =   120 NGY =  120 NGZ =  120
   dimension x,y,z NGXF=   240 NGYF=  240 NGZF=  240
   support grid    NGXF=   240 NGYF=  240 NGZF=  240
   ions per type =              13   1   1
   NGX,Y,Z   is equivalent  to a cutoff of  13.30, 13.30, 13.30 a.u.
   NGXF,Y,Z  is equivalent  to a cutoff of  26.60, 26.60, 26.60 a.u.

 SYSTEM =  CuCO                                    
 POSCAR =  Cu13 C1 O1                              

 Startparameter for this run:
   NWRITE =      2    write-flag & timer
   PREC   = accura    normal or accurate (medium, high low for compatibility)
   ISTART =      0    job   : 0-new  1-cont  2-samecut
   ICHARG =      2    charge: 1-file 2-atom 10-const
   ISPIN  =      2    spin polarized calculation?
   LNONCOLLINEAR =      F non collinear calculations
   LSORBIT =      F    spin-orbit coupling
   INIWAV =      1    electr: 0-lowe 1-rand  2-diag
   LASPH  =      F    aspherical Exc in radial PAW
   METAGGA=      F    non-selfconsistent MetaGGA calc.

 Electronic Relaxation 1
   ENCUT  =  600.0 eV  44.10 Ry    6.64 a.u.  29.96 29.96 29.96*2*pi/ulx,y,z
   ENINI  =  600.0     initial cutoff
   ENAUG  =  644.9 eV  augmentation charge cutoff
   NELM   =    300;   NELMIN=  3; NELMDL= -5     # of ELM steps 
   EDIFF  = 0.1E-06   stopping-criterion for ELM
   LREAL  =      F    real-space projection
   NLSPLINE    = F    spline interpolate recip. space projectors
   LCOMPAT=      F    compatible to vasp.4.4
   GGA_COMPAT  = T    GGA compatible to vasp.4.4-vasp.4.6
   LMAXPAW     = -100 max onsite density
   LMAXMIX     =    2 max onsite mixed and CHGCAR
   VOSKOWN=      0    Vosko Wilk Nusair interpolation
   ROPT   =    0.00000   0.00000   0.00000
 Ionic relaxation
   EDIFFG = -.1E-02   stopping-criterion for IOM
   NSW    =      0    number of steps for IOM
   NBLOCK =      1;   KBLOCK =      1    inner block; outer block 
   IBRION =     -1    ionic relax: 0-MD 1-quasi-New 2-CG
   NFREE  =      0    steps in history (QN), initial steepest desc. (CG)
   ISIF   =      2    stress and relaxation
   IWAVPR =     10    prediction:  0-non 1-charg 2-wave 3-comb
   ISYM   =      0    0-nonsym 1-usesym 2-fastsym
   LCORR  =      T    Harris-Foulkes like correction to forces

   POTIM  = 0.5000    time-step for ionic-motion
   TEIN   =    0.0    initial temperature
   TEBEG  =    0.0;   TEEND  =   0.0 temperature during run
   SMASS  =  -3.00    Nose mass-parameter (am)
   estimated Nose-frequenzy (Omega)   =  0.10E-29 period in steps =****** mass=  -0.514E-26a.u.
   SCALEE = 1.0000    scale energy and forces
   NPACO  =    256;   APACO  = 16.0  distance and # of slots for P.C.
   PSTRESS=    0.0 pullay stress

  Mass of Ions in am
   POMASS =  63.55 12.01 16.00
  Ionic Valenz
   ZVAL   =  11.00  4.00  6.00
  Atomic Wigner-Seitz radii
   RWIGS  =  -1.00 -1.00 -1.00
  virtual crystal weights 
   VCA    =   1.00  1.00  1.00
   NELECT =     153.0000    total number of electrons
   NUPDOWN=       1.0000    fix difference up-down

 DOS related values:
   EMIN   =  10.00;   EMAX   =-10.00  energy-range for DOS
   EFERMI =   0.00
   ISMEAR =     1;   SIGMA  =   0.10  broadening in eV -4-tet -1-fermi 0-gaus

 Electronic relaxation 2 (details)
   IALGO  =     68    algorithm
   LDIAG  =      T    sub-space diagonalisation (order eigenvalues)
   LSUBROT=      F    optimize rotation matrix (better conditioning)
   TURBO    =      0    0=normal 1=particle mesh
   IRESTART =      0    0=no restart 2=restart with 2 vectors
   NREBOOT  =      0    no. of reboots
   NMIN     =      0    reboot dimension
   EREF     =   0.00    reference energy to select bands
   IMIX   =      4    mixing-type and parameters
     AMIX     =   0.40;   BMIX     =  1.00
     AMIX_MAG =   1.60;   BMIX_MAG =  1.00
     AMIN     =   0.10
     WC   =   100.;   INIMIX=   1;  MIXPRE=   1;  MAXMIX= -45

 Intra band minimization:
   WEIMIN = 0.0000     energy-eigenvalue tresh-hold
   EBREAK =  0.27E-09  absolut break condition
   DEPER  =   0.30     relativ break condition  

   TIME   =   0.40     timestep for ELM

  volume/ion in A,a.u.               =     225.00      1518.37
  Fermi-wavevector in a.u.,A,eV,Ry     =   0.583733  1.103095  4.636102  0.340744
  Thomas-Fermi vector in A             =   1.629149
 
 Write flags
   LWAVE        =      F    write WAVECAR
   LDOWNSAMPLE  =      F    k-point downsampling of WAVECAR
   LCHARG       =      F    write CHGCAR
   LVTOT        =      F    write LOCPOT, total local potential
   LVHAR        =      F    write LOCPOT, Hartree potential only
   LELF         =      F    write electronic localiz. function (ELF)
   LORBIT       =      0    0 simple, 1 ext, 2 COOP (PROOUT), +10 PAW based schemes


 Dipole corrections
   LMONO  =      F    monopole corrections only (constant potential shift)
   LDIPOL =      F    correct potential (dipole corrections)
   IDIPOL =      0    1-x, 2-y, 3-z, 4-all directions 
   EPSILON=  1.0000000 bulk dielectric constant

 Exchange correlation treatment:
   GGA     =    PE    GGA type
   LEXCH   =     8    internal setting for exchange type
   VOSKOWN=      0    Vosko Wilk Nusair interpolation
   LHFCALC =     F    Hartree Fock is set to
   LHFONE  =     F    Hartree Fock one center treatment
   AEXX    =    0.0000 exact exchange contribution

 Linear response parameters
   LEPSILON=     F    determine dielectric tensor
   LRPA    =     F    only Hartree local field effects (RPA)
   LNABLA  =     F    use nabla operator in PAW spheres
   LVEL    =     F    velocity operator in full k-point grid
   LINTERFAST=   F  fast interpolation
   KINTER  =     0    interpolate to denser k-point grid
   CSHIFT  =0.1000    complex shift for real part using Kramers Kronig
   OMEGAMAX=  -1.0    maximum frequency
   DEG_THRESHOLD= 0.2000000E-02 threshold for treating states as degnerate
   RTIME   =   -0.100 relaxation time in fs
  (WPLASMAI=    0.000 imaginary part of plasma frequency in eV, 0.658/RTIME)
   DFIELD  = 0.0000000 0.0000000 0.0000000 field for delta impulse in time
 
 Orbital magnetization related:
   ORBITALMAG=     F  switch on orbital magnetization
   LCHIMAG   =     F  perturbation theory with respect to B field
   DQ        =  0.001000  dq finite difference perturbation B field
   LLRAUG    =     F  two centre corrections for induced B field



--------------------------------------------------------------------------------------------------------


 Static calculation
 charge density and potential will be updated during run
 spin polarized calculation
 RMM-DIIS sequential band-by-band and
  variant of blocked Davidson during initial phase
 perform sub-space diagonalisation
    before iterative eigenvector-optimisation
 modified Broyden-mixing scheme, WC =      100.0
 initial mixing is a Kerker type mixing with AMIX =  0.4000 and BMIX =      1.0000
 Hartree-type preconditioning will be used
 using additional bands           15
 reciprocal scheme for non local part
 use partial core corrections
 calculate Harris-corrections to forces 
   (improved forces if not selfconsistent)
 use gradient corrections 
 use of overlap-Matrix (Vanderbilt PP)
 Methfessel and Paxton  Order N= 1 SIGMA  =   0.10


--------------------------------------------------------------------------------------------------------


  energy-cutoff  :      600.00
  volume of cell :     3375.00
      direct lattice vectors                 reciprocal lattice vectors
    15.000000000  0.000000000  0.000000000     0.066666667  0.000000000  0.000000000
     0.000000000 15.000000000  0.000000000     0.000000000  0.066666667  0.000000000
     0.000000000  0.000000000 15.000000000     0.000000000  0.000000000  0.066666667

  length of vectors
    15.000000000 15.000000000 15.000000000     0.066666667  0.066666667  0.066666667


 
 k-points in units of 2pi/SCALE and weight: read from INCAR                         
   0.00000000  0.00000000  0.00000000       1.000
 
 k-points in reciprocal lattice and weights: read from INCAR                         
   0.00000000  0.00000000  0.00000000       1.000
 
 position of ions in fractional coordinates (direct lattice) 
   0.28850867  0.41628667  0.55916333
   0.37249733  0.54535333  0.49892800
   0.39551533  0.29105867  0.56151200
   0.53487400  0.50742667  0.48028600
   0.54285333  0.35263467  0.53429133
   0.44687067  0.43889867  0.61468667
   0.41264867  0.40117533  0.44010267
   0.22491200  0.56124200  0.55415467
   0.33840667  0.54481933  0.65902333
   0.35625533  0.68234667  0.56591800
   0.47895533  0.66348067  0.46964533
   0.64059000  0.48799333  0.59491133
   0.48186733  0.58919200  0.61416800
   0.74653333  0.49846667  0.65806733
   0.82059333  0.50896467  0.67320667
 
 position of ions in cartesian coordinates  (Angst):
   4.32763000  6.24430000  8.38745000
   5.58746000  8.18030000  7.48392000
   5.93273000  4.36588000  8.42268000
   8.02311000  7.61140000  7.20429000
   8.14280000  5.28952000  8.01437000
   6.70306000  6.58348000  9.22030000
   6.18973000  6.01763000  6.60154000
   3.37368000  8.41863000  8.31232000
   5.07610000  8.17229000  9.88535000
   5.34383000 10.23520000  8.48877000
   7.18433000  9.95221000  7.04468000
   9.60885000  7.31990000  8.92367000
   7.22801000  8.83788000  9.21252000
  11.19800000  7.47700000  9.87101000
  12.30890000  7.63447000 10.09810000
 


--------------------------------------------------------------------------------------------------------


 k-point  1 :   0.0000 0.0000 0.0000  plane waves:  112451

 maximum and minimum number of plane-waves per node :     18753    18726

 maximum number of plane-waves:    112451
 maximum index in each direction: 
   IXMAX=   29   IYMAX=   29   IZMAX=   29
   IXMIN=  -29   IYMIN=  -29   IZMIN=  -29


 parallel 3D FFT for wavefunctions:
    minimum data exchange during FFTs selected (reduces bandwidth)
 parallel 3D FFT for charge:
    minimum data exchange during FFTs selected (reduces bandwidth)


 total amount of memory used by VASP MPI-rank0   158680. kBytes
=======================================================================

   base      :      30000. kBytes
   nonl-proj :      12601. kBytes
   fftplans  :      27994. kBytes
   grid      :      74150. kBytes
   one-center:         93. kBytes
   wavefun   :      13842. kBytes
 
     INWAV:  cpu time    0.0000: real time    0.0002
 Broyden mixing: mesh for mixing (old mesh)
   NGX = 59   NGY = 59   NGZ = 59
  (NGX  =240   NGY  =240   NGZ  =240)
  gives a total of 205379 points

 initial charge density was supplied:
 charge density of overlapping atoms calculated
 number of electron     153.0000000 magnetization       1.0000000
 keeping initial charge density in first step


--------------------------------------------------------------------------------------------------------


 Maximum index for augmentation-charges          713 (set IRDMAX)


--------------------------------------------------------------------------------------------------------


 First call to EWALD:  gamma=   0.118
 Maximum number of real-space cells 3x 3x 3
 Maximum number of reciprocal cells 3x 3x 3

    FEWALD:  cpu time    0.0016: real time    0.0019


--------------------------------------- Iteration      1(   1)  ---------------------------------------


    POTLOK:  cpu time    1.1743: real time    1.1775
    SETDIJ:  cpu time    0.0171: real time    0.0170
     EDDAV:  cpu time    7.4910: real time    7.4958
       DOS:  cpu time    0.0004: real time    0.0004
    --------------------------------------------
      LOOP:  cpu time    8.6827: real time    8.6907

 eigenvalue-minimisations  :   376
 total energy-change (2. order) : 0.1120595E+04  (-0.4465442E+04)
 number of electron     153.0000000 magnetization       1.0000000
 augmentation part      153.0000000 magnetization       1.0000000

 Free energy of the ion-electron system (eV)
  ---------------------------------------------------
  alpha Z        PSCENC =        41.16232785
  Ewald energy   TEWEN  =     16373.01720120
  -Hartree energ DENC   =    -33390.82443897
  -exchange      EXHF   =         0.00000000
  -V(xc)+E(xc)   XCENC  =       623.65350988
  PAW double counting   =     16421.75059358   -17800.06104309
  entropy T*S    EENTRO =         0.01589132
  eigenvalues    EBANDS =       189.66139078
  atomic energy  EATOM  =     18662.21924712
  Solvation  Ediel_sol  =         0.00000000
  ---------------------------------------------------
  free energy    TOTEN  =      1120.59467965 eV

  energy without entropy =     1120.57878833  energy(sigma->0) =     1120.58938254


--------------------------------------------------------------------------------------------------------




--------------------------------------- Iteration      1(   2)  ---------------------------------------


     EDDAV:  cpu time    7.3657: real time    7.3712
       DOS:  cpu time    0.0003: real time    0.0003
    --------------------------------------------
      LOOP:  cpu time    7.3660: real time    7.3715

 eigenvalue-minimisations  :   368
 total energy-change (2. order) :-0.1031870E+04  (-0.9802488E+03)
 number of electron     153.0000000 magnetization       1.0000000
 augmentation part      153.0000000 magnetization       1.0000000

 Free energy of the ion-electron system (eV)
  ---------------------------------------------------
  alpha Z        PSCENC =        41.16232785
  Ewald energy   TEWEN  =     16373.01720120
  -Hartree energ DENC   =    -33390.82443897
  -exchange      EXHF   =         0.00000000
  -V(xc)+E(xc)   XCENC  =       623.65350988
  PAW double counting   =     16421.75059358   -17800.06104309
  entropy T*S    EENTRO =         0.00581076
  eigenvalues    EBANDS =      -842.19845909
  atomic energy  EATOM  =     18662.21924712
  Solvation  Ediel_sol  =         0.00000000
  ---------------------------------------------------
  free energy    TOTEN  =        88.72474921 eV

  energy without entropy =       88.71893846  energy(sigma->0) =       88.72281230


--------------------------------------------------------------------------------------------------------




--------------------------------------- Iteration      1(   3)  ---------------------------------------


     EDDAV:  cpu time   11.9551: real time   11.9627
       DOS:  cpu time    0.0003: real time    0.0003
    --------------------------------------------
      LOOP:  cpu time   11.9555: real time   11.9631

 eigenvalue-minimisations  :   672
 total energy-change (2. order) :-0.1227188E+03  (-0.1146514E+03)
 number of electron     153.0000000 magnetization       1.0000000
 augmentation part      153.0000000 magnetization       1.0000000

 Free energy of the ion-electron system (eV)
  ---------------------------------------------------
  alpha Z        PSCENC =        41.16232785
  Ewald energy   TEWEN  =     16373.01720120
  -Hartree energ DENC   =    -33390.82443897
  -exchange      EXHF   =         0.00000000
  -V(xc)+E(xc)   XCENC  =       623.65350988
  PAW double counting   =     16421.75059358   -17800.06104309
  entropy T*S    EENTRO =         0.00587704
  eigenvalues    EBANDS =      -964.91735937
  atomic energy  EATOM  =     18662.21924712
  Solvation  Ediel_sol  =         0.00000000
  ---------------------------------------------------
  free energy    TOTEN  =       -33.99408478 eV

  energy without entropy =      -33.99996182  energy(sigma->0) =      -33.99604379


--------------------------------------------------------------------------------------------------------




--------------------------------------- Iteration      1(   4)  ---------------------------------------


     EDDAV:  cpu time   10.3160: real time   10.3215
       DOS:  cpu time    0.0003: real time    0.0003
    --------------------------------------------
      LOOP:  cpu time   10.3163: real time   10.3218

 eigenvalue-minimisations  :   568
 total energy-change (2. order) :-0.2160437E+02  (-0.2130957E+02)
 number of electron     153.0000000 magnetization       1.0000000
 augmentation part      153.0000000 magnetization       1.0000000

 Free energy of the ion-electron system (eV)
  ---------------------------------------------------
  alpha Z        PSCENC =        41.16232785
  Ewald energy   TEWEN  =     16373.01720120
  -Hartree energ DENC   =    -33390.82443897
  -exchange      EXHF   =         0.00000000
  -V(xc)+E(xc)   XCENC  =       623.65350988
  PAW double counting   =     16421.75059358   -17800.06104309
  entropy T*S    EENTRO =         0.00724606
  eigenvalues    EBANDS =      -986.52309536
  atomic energy  EATOM  =     18662.21924712
  Solvation  Ediel_sol  =         0.00000000
  ---------------------------------------------------
  free energy    TOTEN  =       -55.59845175 eV

  energy without entropy =      -55.60569781  energy(sigma->0) =      -55.60086710


--------------------------------------------------------------------------------------------------------




--------------------------------------- Iteration      1(   5)  ---------------------------------------


     EDDAV:  cpu time   12.0381: real time   12.0435
       DOS:  cpu time    0.0004: real time    0.0004
    CHARGE:  cpu time    0.6618: real time    0.6622
    MIXING:  cpu time    0.0222: real time    0.0222
    --------------------------------------------
      LOOP:  cpu time   12.7226: real time   12.7284

 eigenvalue-minimisations  :   680
 total energy-change (2. order) :-0.1381665E+01  (-0.1254779E+01)
 number of electron     153.0000011 magnetization       1.0000000
 augmentation part       87.5095434 magnetization       0.3797659

 Broyden mixing:
  rms(total) = 0.23479E+01    rms(broyden)= 0.23478E+01
  rms(prec ) = 0.26914E+01
  weight for this iteration     100.00

 Free energy of the ion-electron system (eV)
  ---------------------------------------------------
  alpha Z        PSCENC =        41.16232785
  Ewald energy   TEWEN  =     16373.01720120
  -Hartree energ DENC   =    -33390.82443897
  -exchange      EXHF   =         0.00000000
  -V(xc)+E(xc)   XCENC  =       623.65350988
  PAW double counting   =     16421.75059358   -17800.06104309
  entropy T*S    EENTRO =         0.00934253
  eigenvalues    EBANDS =      -987.90685664
  atomic energy  EATOM  =     18662.21924712
  Solvation  Ediel_sol  =         0.00000000
  ---------------------------------------------------
  free energy    TOTEN  =       -56.98011656 eV

  energy without entropy =      -56.98945909  energy(sigma->0) =      -56.98323073


--------------------------------------------------------------------------------------------------------




--------------------------------------- Iteration      1(   6)  ---------------------------------------


    POTLOK:  cpu time    1.1585: real time    1.1612
    SETDIJ:  cpu time    0.0171: real time    0.0171
    EDDIAG:  cpu time    1.0887: real time    1.0892
  RMM-DIIS:  cpu time    7.0043: real time    7.0075
    ORTHCH:  cpu time    0.0595: real time    0.0595
       DOS:  cpu time    0.0006: real time    0.0006
    CHARGE:  cpu time    0.6355: real time    0.6361
    MIXING:  cpu time    0.0226: real time    0.0226
    --------------------------------------------
      LOOP:  cpu time    9.9867: real time    9.9938

 eigenvalue-minimisations  :   417
 total energy-change (2. order) : 0.1086550E+01  (-0.1180736E+02)
 number of electron     153.0000012 magnetization       1.0000000
 augmentation part       95.6198930 magnetization       0.1005432

 Broyden mixing:
  rms(total) = 0.15215E+01    rms(broyden)= 0.15213E+01
  rms(prec ) = 0.17558E+01
  weight for this iteration     100.00

 eigenvalues of (default mixing * dielectric matrix)
  average eigenvalue GAMMA=   0.6190
  0.6190

 Free energy of the ion-electron system (eV)
  ---------------------------------------------------
  alpha Z        PSCENC =        41.16232785
  Ewald energy   TEWEN  =     16373.01720120
  -Hartree energ DENC   =    -33143.94693722
  -exchange      EXHF   =         0.00000000
  -V(xc)+E(xc)   XCENC  =       611.54773641
  PAW double counting   =     16726.34153091   -18051.34304800
  entropy T*S    EENTRO =         0.00583160
  eigenvalues    EBANDS =     -1274.89745668
  atomic energy  EATOM  =     18662.21924712
  Solvation  Ediel_sol  =         0.00000000
  ---------------------------------------------------
  free energy    TOTEN  =       -55.89356683 eV

  energy without entropy =      -55.89939842  energy(sigma->0) =      -55.89551069


--------------------------------------------------------------------------------------------------------




--------------------------------------- Iteration      1(   7)  ---------------------------------------


    POTLOK:  cpu time    1.1558: real time    1.1572
    SETDIJ:  cpu time    0.0172: real time    0.0172
    EDDIAG:  cpu time    1.0883: real time    1.0889
  RMM-DIIS:  cpu time    6.5068: real time    6.5103
    ORTHCH:  cpu time    0.0602: real time    0.0602
       DOS:  cpu time    0.0006: real time    0.0006
    CHARGE:  cpu time    0.6458: real time    0.6460
    MIXING:  cpu time    0.0234: real time    0.0234
    --------------------------------------------
      LOOP:  cpu time    9.4982: real time    9.5038

 eigenvalue-minimisations  :   380
 total energy-change (2. order) : 0.6928863E+01  (-0.2456868E+01)
 number of electron     153.0000011 magnetization       1.0000000
 augmentation part       92.8314751 magnetization       0.1129886

 Broyden mixing:
  rms(total) = 0.38590E+00    rms(broyden)= 0.38588E+00
  rms(prec ) = 0.47685E+00
  weight for this iteration     100.00

 eigenvalues of (default mixing * dielectric matrix)
  average eigenvalue GAMMA=   0.9439
  1.2214  0.6664

 Free energy of the ion-electron system (eV)
  ---------------------------------------------------
  alpha Z        PSCENC =        41.16232785
  Ewald energy   TEWEN  =     16373.01720120
  -Hartree energ DENC   =    -33278.30392089
  -exchange      EXHF   =         0.00000000
  -V(xc)+E(xc)   XCENC  =       615.93907212
  PAW double counting   =     17075.54369466   -18449.92161174
  entropy T*S    EENTRO =         0.00593517
  eigenvalues    EBANDS =     -1088.62664968
  atomic energy  EATOM  =     18662.21924712
  Solvation  Ediel_sol  =         0.00000000
  ---------------------------------------------------
  free energy    TOTEN  =       -48.96470421 eV

  energy without entropy =      -48.97063938  energy(sigma->0) =      -48.96668260


--------------------------------------------------------------------------------------------------------




--------------------------------------- Iteration      1(   8)  ---------------------------------------


    POTLOK:  cpu time    1.1571: real time    1.1578
    SETDIJ:  cpu time    0.0172: real time    0.0172
    EDDIAG:  cpu time    1.0885: real time    1.0891
  RMM-DIIS:  cpu time    6.8911: real time    6.8939
    ORTHCH:  cpu time    0.0602: real time    0.0604
       DOS:  cpu time    0.0006: real time    0.0006
    CHARGE:  cpu time    0.6702: real time    0.6702
    MIXING:  cpu time    0.0236: real time    0.0236
    --------------------------------------------
      LOOP:  cpu time    9.9084: real time    9.9127

 eigenvalue-minimisations  :   426
 total energy-change (2. order) : 0.2107293E+00  (-0.4290206E+00)
 number of electron     153.0000011 magnetization       1.0000000
 augmentation part       92.0579220 magnetization       0.1071595

 Broyden mixing:
  rms(total) = 0.32138E+00    rms(broyden)= 0.32136E+00
  rms(prec ) = 0.36383E+00
  weight for this iteration     100.00

 eigenvalues of (default mixing * dielectric matrix)
  average eigenvalue GAMMA=   0.9038
  1.3572  0.6770  0.6770

 Free energy of the ion-electron system (eV)
  ---------------------------------------------------
  alpha Z        PSCENC =        41.16232785
  Ewald energy   TEWEN  =     16373.01720120
  -Hartree energ DENC   =    -33327.17472768
  -exchange      EXHF   =         0.00000000
  -V(xc)+E(xc)   XCENC  =       616.32590906
  PAW double counting   =     17448.07044763   -18842.27818460
  entropy T*S    EENTRO =         0.00610564
  eigenvalues    EBANDS =     -1020.10230114
  atomic energy  EATOM  =     18662.21924712
  Solvation  Ediel_sol  =         0.00000000
  ---------------------------------------------------
  free energy    TOTEN  =       -48.75397494 eV

  energy without entropy =      -48.76008058  energy(sigma->0) =      -48.75601015


--------------------------------------------------------------------------------------------------------




--------------------------------------- Iteration      1(   9)  ---------------------------------------


    POTLOK:  cpu time    1.1582: real time    1.1599
    SETDIJ:  cpu time    0.0172: real time    0.0172
    EDDIAG:  cpu time    1.0909: real time    1.0916
  RMM-DIIS:  cpu time    6.7716: real time    6.7745
    ORTHCH:  cpu time    0.0591: real time    0.0591
       DOS:  cpu time    0.0005: real time    0.0005
    CHARGE:  cpu time    0.6620: real time    0.6624
    MIXING:  cpu time    0.0245: real time    0.0245
    --------------------------------------------
      LOOP:  cpu time    9.7840: real time    9.7897

 eigenvalue-minimisations  :   413
 total energy-change (2. order) : 0.6619699E-01  (-0.1048525E+00)
 number of electron     153.0000011 magnetization       1.0000000
 augmentation part       92.2352034 magnetization       0.0988174

 Broyden mixing:
  rms(total) = 0.18718E+00    rms(broyden)= 0.18717E+00
  rms(prec ) = 0.22184E+00
  weight for this iteration     100.00

 eigenvalues of (default mixing * dielectric matrix)
  average eigenvalue GAMMA=   1.0300
  2.0579  0.7919  0.7919  0.4783

 Free energy of the ion-electron system (eV)
  ---------------------------------------------------
  alpha Z        PSCENC =        41.16232785
  Ewald energy   TEWEN  =     16373.01720120
  -Hartree energ DENC   =    -33324.81702408
  -exchange      EXHF   =         0.00000000
  -V(xc)+E(xc)   XCENC  =       615.89912863
  PAW double counting   =     17542.82312464   -18938.44419397
  entropy T*S    EENTRO =         0.00624933
  eigenvalues    EBANDS =     -1020.55383867
  atomic energy  EATOM  =     18662.21924712
  Solvation  Ediel_sol  =         0.00000000
  ---------------------------------------------------
  free energy    TOTEN  =       -48.68777795 eV

  energy without entropy =      -48.69402728  energy(sigma->0) =      -48.68986106


--------------------------------------------------------------------------------------------------------




--------------------------------------- Iteration      1(  10)  ---------------------------------------


    POTLOK:  cpu time    1.1580: real time    1.1625
    SETDIJ:  cpu time    0.0172: real time    0.0175
    EDDIAG:  cpu time    1.0868: real time    1.0876
  RMM-DIIS:  cpu time    6.9501: real time    6.9541
    ORTHCH:  cpu time    0.0584: real time    0.0584
       DOS:  cpu time    0.0004: real time    0.0004
    CHARGE:  cpu time    0.6614: real time    0.6618
    MIXING:  cpu time    0.0250: real time    0.0250
    --------------------------------------------
      LOOP:  cpu time    9.9573: real time    9.9675

 eigenvalue-minimisations  :   417
 total energy-change (2. order) : 0.6005630E-01  (-0.2228445E-01)
 number of electron     153.0000011 magnetization       1.0000000
 augmentation part       92.4600004 magnetization       0.0834400

 Broyden mixing:
  rms(total) = 0.68432E-01    rms(broyden)= 0.68429E-01
  rms(prec ) = 0.88539E-01
  weight for this iteration     100.00

 eigenvalues of (default mixing * dielectric matrix)
  average eigenvalue GAMMA=   1.0295
  2.1450  1.0018  0.7711  0.7711  0.4586

 Free energy of the ion-electron system (eV)
  ---------------------------------------------------
  alpha Z        PSCENC =        41.16232785
  Ewald energy   TEWEN  =     16373.01720120
  -Hartree energ DENC   =    -33321.21693216
  -exchange      EXHF   =         0.00000000
  -V(xc)+E(xc)   XCENC  =       615.41107468
  PAW double counting   =     17652.27785859   -19049.27375279
  entropy T*S    EENTRO =         0.00612150
  eigenvalues    EBANDS =     -1022.23086762
  atomic energy  EATOM  =     18662.21924712
  Solvation  Ediel_sol  =         0.00000000
  ---------------------------------------------------
  free energy    TOTEN  =       -48.62772165 eV

  energy without entropy =      -48.63384315  energy(sigma->0) =      -48.62976215


--------------------------------------------------------------------------------------------------------




--------------------------------------- Iteration      1(  11)  ---------------------------------------


    POTLOK:  cpu time    1.1584: real time    1.1599
    SETDIJ:  cpu time    0.0174: real time    0.0174
    EDDIAG:  cpu time    1.0880: real time    1.0885
  RMM-DIIS:  cpu time    7.2379: real time    7.2412
    ORTHCH:  cpu time    0.0567: real time    0.0567
       DOS:  cpu time    0.0005: real time    0.0005
    CHARGE:  cpu time    0.6515: real time    0.6518
    MIXING:  cpu time    0.0258: real time    0.0258
    --------------------------------------------
      LOOP:  cpu time   10.2361: real time   10.2417

 eigenvalue-minimisations  :   420
 total energy-change (2. order) : 0.1122906E-01  (-0.8397635E-02)
 number of electron     153.0000011 magnetization       1.0000000
 augmentation part       92.3900246 magnetization       0.0838690

 Broyden mixing:
  rms(total) = 0.47550E-01    rms(broyden)= 0.47546E-01
  rms(prec ) = 0.60480E-01
  weight for this iteration     100.00

 eigenvalues of (default mixing * dielectric matrix)
  average eigenvalue GAMMA=   1.0201
  2.1734  1.4010  0.7872  0.7872  0.5134  0.4586

 Free energy of the ion-electron system (eV)
  ---------------------------------------------------
  alpha Z        PSCENC =        41.16232785
  Ewald energy   TEWEN  =     16373.01720120
  -Hartree energ DENC   =    -33328.76446341
  -exchange      EXHF   =         0.00000000
  -V(xc)+E(xc)   XCENC  =       615.51217244
  PAW double counting   =     17701.90307655   -19101.02916932
  entropy T*S    EENTRO =         0.00622475
  eigenvalues    EBANDS =     -1012.64310976
  atomic energy  EATOM  =     18662.21924712
  Solvation  Ediel_sol  =         0.00000000
  ---------------------------------------------------
  free energy    TOTEN  =       -48.61649259 eV

  energy without entropy =      -48.62271734  energy(sigma->0) =      -48.61856751


--------------------------------------------------------------------------------------------------------




--------------------------------------- Iteration      1(  12)  ---------------------------------------


    POTLOK:  cpu time    1.1603: real time    1.1609
    SETDIJ:  cpu time    0.0174: real time    0.0174
    EDDIAG:  cpu time    1.0876: real time    1.0881
  RMM-DIIS:  cpu time    7.0834: real time    7.0866
    ORTHCH:  cpu time    0.0558: real time    0.0558
       DOS:  cpu time    0.0005: real time    0.0005
    CHARGE:  cpu time    0.6526: real time    0.6529
    MIXING:  cpu time    0.0266: real time    0.0266
    --------------------------------------------
      LOOP:  cpu time   10.0842: real time   10.0888

 eigenvalue-minimisations  :   419
 total energy-change (2. order) : 0.3965892E-02  (-0.2363665E-02)
 number of electron     153.0000011 magnetization       1.0000000
 augmentation part       92.3736954 magnetization       0.0824525

 Broyden mixing:
  rms(total) = 0.20646E-01    rms(broyden)= 0.20646E-01
  rms(prec ) = 0.32388E-01
  weight for this iteration     100.00

 eigenvalues of (default mixing * dielectric matrix)
  average eigenvalue GAMMA=   1.0734
  2.3694  1.6607  1.0957  0.7087  0.7087  0.5310  0.4392

 Free energy of the ion-electron system (eV)
  ---------------------------------------------------
  alpha Z        PSCENC =        41.16232785
  Ewald energy   TEWEN  =     16373.01720120
  -Hartree energ DENC   =    -33332.58183049
  -exchange      EXHF   =         0.00000000
  -V(xc)+E(xc)   XCENC  =       615.57583836
  PAW double counting   =     17714.92077010   -19114.66457112
  entropy T*S    EENTRO =         0.00617951
  eigenvalues    EBANDS =     -1008.26768921
  atomic energy  EATOM  =     18662.21924712
  Solvation  Ediel_sol  =         0.00000000
  ---------------------------------------------------
  free energy    TOTEN  =       -48.61252670 eV

  energy without entropy =      -48.61870621  energy(sigma->0) =      -48.61458654


--------------------------------------------------------------------------------------------------------




--------------------------------------- Iteration      1(  13)  ---------------------------------------


    POTLOK:  cpu time    1.1573: real time    1.1606
    SETDIJ:  cpu time    0.0175: real time    0.0175
    EDDIAG:  cpu time    1.0883: real time    1.0888
  RMM-DIIS:  cpu time    7.6822: real time    7.6864
    ORTHCH:  cpu time    0.0559: real time    0.0565
       DOS:  cpu time    0.0005: real time    0.0005
    CHARGE:  cpu time    0.6522: real time    0.6526
    MIXING:  cpu time    0.0272: real time    0.0272
    --------------------------------------------
      LOOP:  cpu time   10.6811: real time   10.6901

 eigenvalue-minimisations  :   457
 total energy-change (2. order) : 0.9428688E-03  (-0.6994387E-03)
 number of electron     153.0000011 magnetization       1.0000000
 augmentation part       92.3895213 magnetization       0.0824404

 Broyden mixing:
  rms(total) = 0.96389E-02    rms(broyden)= 0.96385E-02
  rms(prec ) = 0.19964E-01
  weight for this iteration     100.00

 eigenvalues of (default mixing * dielectric matrix)
  average eigenvalue GAMMA=   1.1065
  2.4228  1.9079  1.3164  0.7609  0.7609  0.7323  0.5188  0.4322

 Free energy of the ion-electron system (eV)
  ---------------------------------------------------
  alpha Z        PSCENC =        41.16232785
  Ewald energy   TEWEN  =     16373.01720120
  -Hartree energ DENC   =    -33336.84435679
  -exchange      EXHF   =         0.00000000
  -V(xc)+E(xc)   XCENC  =       615.59530117
  PAW double counting   =     17718.24816596   -19117.97700844
  entropy T*S    EENTRO =         0.00617803
  eigenvalues    EBANDS =     -1004.03863993
  atomic energy  EATOM  =     18662.21924712
  Solvation  Ediel_sol  =         0.00000000
  ---------------------------------------------------
  free energy    TOTEN  =       -48.61158383 eV

  energy without entropy =      -48.61776186  energy(sigma->0) =      -48.61364317


--------------------------------------------------------------------------------------------------------




--------------------------------------- Iteration      1(  14)  ---------------------------------------


    POTLOK:  cpu time    1.1571: real time    1.1595
    SETDIJ:  cpu time    0.0172: real time    0.0172
    EDDIAG:  cpu time    1.0878: real time    1.0884
  RMM-DIIS:  cpu time    6.7657: real time    6.7701
    ORTHCH:  cpu time    0.0564: real time    0.0564
       DOS:  cpu time    0.0005: real time    0.0005
    CHARGE:  cpu time    0.6519: real time    0.6523
    MIXING:  cpu time    0.0282: real time    0.0282
    --------------------------------------------
      LOOP:  cpu time    9.7647: real time    9.7724

 eigenvalue-minimisations  :   408
 total energy-change (2. order) :-0.9944893E-03  (-0.3194977E-03)
 number of electron     153.0000011 magnetization       1.0000000
 augmentation part       92.4005160 magnetization       0.0827460

 Broyden mixing:
  rms(total) = 0.10550E-01    rms(broyden)= 0.10550E-01
  rms(prec ) = 0.16953E-01
  weight for this iteration     100.00

 eigenvalues of (default mixing * dielectric matrix)
  average eigenvalue GAMMA=   1.1244
  2.3757  2.3757  1.3167  1.0213  0.7274  0.7274  0.6437  0.4967  0.4351

 Free energy of the ion-electron system (eV)
  ---------------------------------------------------
  alpha Z        PSCENC =        41.16232785
  Ewald energy   TEWEN  =     16373.01720120
  -Hartree energ DENC   =    -33341.42286585
  -exchange      EXHF   =         0.00000000
  -V(xc)+E(xc)   XCENC  =       615.62421439
  PAW double counting   =     17711.80730075   -19111.24603261
  entropy T*S    EENTRO =         0.00618915
  eigenvalues    EBANDS =      -999.78016032
  atomic energy  EATOM  =     18662.21924712
  Solvation  Ediel_sol  =         0.00000000
  ---------------------------------------------------
  free energy    TOTEN  =       -48.61257832 eV

  energy without entropy =      -48.61876747  energy(sigma->0) =      -48.61464137


--------------------------------------------------------------------------------------------------------




--------------------------------------- Iteration      1(  15)  ---------------------------------------


    POTLOK:  cpu time    1.1575: real time    1.1586
    SETDIJ:  cpu time    0.0171: real time    0.0171
    EDDIAG:  cpu time    1.0873: real time    1.0880
  RMM-DIIS:  cpu time    6.8624: real time    6.8663
    ORTHCH:  cpu time    0.0580: real time    0.0580
       DOS:  cpu time    0.0005: real time    0.0005
    CHARGE:  cpu time    0.6529: real time    0.6533
    MIXING:  cpu time    0.0284: real time    0.0289
    --------------------------------------------
      LOOP:  cpu time    9.8640: real time    9.8706

 eigenvalue-minimisations  :   409
 total energy-change (2. order) :-0.1205031E-02  (-0.1494971E-03)
 number of electron     153.0000011 magnetization       1.0000000
 augmentation part       92.3992108 magnetization       0.0829936

 Broyden mixing:
  rms(total) = 0.76664E-02    rms(broyden)= 0.76663E-02
  rms(prec ) = 0.12200E-01
  weight for this iteration     100.00

 eigenvalues of (default mixing * dielectric matrix)
  average eigenvalue GAMMA=   1.1892
  2.6868  2.6868  1.3869  1.3869  0.7466  0.7466  0.7817  0.5508  0.4351  0.4840

 Free energy of the ion-electron system (eV)
  ---------------------------------------------------
  alpha Z        PSCENC =        41.16232785
  Ewald energy   TEWEN  =     16373.01720120
  -Hartree energ DENC   =    -33344.83398235
  -exchange      EXHF   =         0.00000000
  -V(xc)+E(xc)   XCENC  =       615.65566486
  PAW double counting   =     17705.73062748   -19105.00658780
  entropy T*S    EENTRO =         0.00617775
  eigenvalues    EBANDS =      -996.56445946
  atomic energy  EATOM  =     18662.21924712
  Solvation  Ediel_sol  =         0.00000000
  ---------------------------------------------------
  free energy    TOTEN  =       -48.61378335 eV

  energy without entropy =      -48.61996110  energy(sigma->0) =      -48.61584260


--------------------------------------------------------------------------------------------------------




--------------------------------------- Iteration      1(  16)  ---------------------------------------


    POTLOK:  cpu time    1.1571: real time    1.1594
    SETDIJ:  cpu time    0.0174: real time    0.0174
    EDDIAG:  cpu time    1.0879: real time    1.0884
  RMM-DIIS:  cpu time    6.6555: real time    6.6585
    ORTHCH:  cpu time    0.0569: real time    0.0569
       DOS:  cpu time    0.0005: real time    0.0005
    CHARGE:  cpu time    0.6541: real time    0.6545
    MIXING:  cpu time    0.0297: real time    0.0297
    --------------------------------------------
      LOOP:  cpu time    9.6592: real time    9.6654

 eigenvalue-minimisations  :   395
 total energy-change (2. order) :-0.1722574E-02  (-0.1342546E-03)
 number of electron     153.0000011 magnetization       1.0000000
 augmentation part       92.3880363 magnetization       0.0830169

 Broyden mixing:
  rms(total) = 0.51814E-02    rms(broyden)= 0.51807E-02
  rms(prec ) = 0.76636E-02
  weight for this iteration     100.00

 eigenvalues of (default mixing * dielectric matrix)
  average eigenvalue GAMMA=   1.2201
  3.2038  2.6444  1.4948  1.4948  0.9465  0.7516  0.7516  0.6960  0.4336  0.5079
  0.4957

 Free energy of the ion-electron system (eV)
  ---------------------------------------------------
  alpha Z        PSCENC =        41.16232785
  Ewald energy   TEWEN  =     16373.01720120
  -Hartree energ DENC   =    -33348.28467908
  -exchange      EXHF   =         0.00000000
  -V(xc)+E(xc)   XCENC  =       615.69261551
  PAW double counting   =     17701.40489829   -19100.66742408
  entropy T*S    EENTRO =         0.00619165
  eigenvalues    EBANDS =      -993.16588438
  atomic energy  EATOM  =     18662.21924712
  Solvation  Ediel_sol  =         0.00000000
  ---------------------------------------------------
  free energy    TOTEN  =       -48.61550592 eV

  energy without entropy =      -48.62169757  energy(sigma->0) =      -48.61756981


--------------------------------------------------------------------------------------------------------




--------------------------------------- Iteration      1(  17)  ---------------------------------------


    POTLOK:  cpu time    1.1579: real time    1.1587
    SETDIJ:  cpu time    0.0172: real time    0.0172
    EDDIAG:  cpu time    1.0867: real time    1.0872
  RMM-DIIS:  cpu time    6.6080: real time    6.6115
    ORTHCH:  cpu time    0.0573: real time    0.0573
       DOS:  cpu time    0.0005: real time    0.0005
    CHARGE:  cpu time    0.6540: real time    0.6544
    MIXING:  cpu time    0.0307: real time    0.0307
    --------------------------------------------
      LOOP:  cpu time    9.6124: real time    9.6176

 eigenvalue-minimisations  :   397
 total energy-change (2. order) :-0.1611248E-02  (-0.4843175E-04)
 number of electron     153.0000011 magnetization       1.0000000
 augmentation part       92.3891451 magnetization       0.0829478

 Broyden mixing:
  rms(total) = 0.26399E-02    rms(broyden)= 0.26399E-02
  rms(prec ) = 0.43316E-02
  weight for this iteration     100.00

 eigenvalues of (default mixing * dielectric matrix)
  average eigenvalue GAMMA=   1.3177
  4.2578  2.5972  1.9952  1.3058  1.3058  0.7700  0.7700  0.7366  0.6383  0.4340
  0.5226  0.4796

 Free energy of the ion-electron system (eV)
  ---------------------------------------------------
  alpha Z        PSCENC =        41.16232785
  Ewald energy   TEWEN  =     16373.01720120
  -Hartree energ DENC   =    -33349.98120053
  -exchange      EXHF   =         0.00000000
  -V(xc)+E(xc)   XCENC  =       615.70098518
  PAW double counting   =     17699.49928375   -19098.73633560
  entropy T*S    EENTRO =         0.00619192
  eigenvalues    EBANDS =      -991.50481806
  atomic energy  EATOM  =     18662.21924712
  Solvation  Ediel_sol  =         0.00000000
  ---------------------------------------------------
  free energy    TOTEN  =       -48.61711717 eV

  energy without entropy =      -48.62330909  energy(sigma->0) =      -48.61918114


--------------------------------------------------------------------------------------------------------




--------------------------------------- Iteration      1(  18)  ---------------------------------------


    POTLOK:  cpu time    1.1594: real time    1.1607
    SETDIJ:  cpu time    0.0173: real time    0.0173
    EDDIAG:  cpu time    1.0871: real time    1.0876
  RMM-DIIS:  cpu time    6.6302: real time    6.6342
    ORTHCH:  cpu time    0.0565: real time    0.0565
       DOS:  cpu time    0.0005: real time    0.0005
    CHARGE:  cpu time    0.6547: real time    0.6549
    MIXING:  cpu time    0.0319: real time    0.0319
    --------------------------------------------
      LOOP:  cpu time    9.6376: real time    9.6436

 eigenvalue-minimisations  :   407
 total energy-change (2. order) :-0.1020033E-02  (-0.2406731E-04)
 number of electron     153.0000011 magnetization       1.0000000
 augmentation part       92.3889595 magnetization       0.0829808

 Broyden mixing:
  rms(total) = 0.14544E-02    rms(broyden)= 0.14543E-02
  rms(prec ) = 0.26978E-02
  weight for this iteration     100.00

 eigenvalues of (default mixing * dielectric matrix)
  average eigenvalue GAMMA=   1.3724
  5.1501  2.6363  2.2260  1.3400  1.3400  0.8153  0.8153  0.7551  0.7551  0.4340
  0.5812  0.5150  0.4781

 Free energy of the ion-electron system (eV)
  ---------------------------------------------------
  alpha Z        PSCENC =        41.16232785
  Ewald energy   TEWEN  =     16373.01720120
  -Hartree energ DENC   =    -33351.05661706
  -exchange      EXHF   =         0.00000000
  -V(xc)+E(xc)   XCENC  =       615.70397787
  PAW double counting   =     17699.21012126   -19098.46025890
  entropy T*S    EENTRO =         0.00619375
  eigenvalues    EBANDS =      -990.42033028
  atomic energy  EATOM  =     18662.21924712
  Solvation  Ediel_sol  =         0.00000000
  ---------------------------------------------------
  free energy    TOTEN  =       -48.61813721 eV

  energy without entropy =      -48.62433095  energy(sigma->0) =      -48.62020179


--------------------------------------------------------------------------------------------------------




--------------------------------------- Iteration      1(  19)  ---------------------------------------


    POTLOK:  cpu time    1.1598: real time    1.1607
    SETDIJ:  cpu time    0.0171: real time    0.0171
    EDDIAG:  cpu time    1.0875: real time    1.0885
  RMM-DIIS:  cpu time    7.3391: real time    7.3442
    ORTHCH:  cpu time    0.0570: real time    0.0570
       DOS:  cpu time    0.0005: real time    0.0005
    CHARGE:  cpu time    0.6547: real time    0.6551
    MIXING:  cpu time    0.0334: real time    0.0334
    --------------------------------------------
      LOOP:  cpu time   10.3490: real time   10.3565

 eigenvalue-minimisations  :   445
 total energy-change (2. order) :-0.7980374E-03  (-0.1011482E-04)
 number of electron     153.0000011 magnetization       1.0000000
 augmentation part       92.3905948 magnetization       0.0831245

 Broyden mixing:
  rms(total) = 0.12157E-02    rms(broyden)= 0.12157E-02
  rms(prec ) = 0.19748E-02
  weight for this iteration     100.00

 eigenvalues of (default mixing * dielectric matrix)
  average eigenvalue GAMMA=   1.4238
  5.7970  2.7030  2.2573  1.4468  1.4468  1.3382  0.7570  0.7570  0.7904  0.6691
  0.4339  0.5470  0.5121  0.4770

 Free energy of the ion-electron system (eV)
  ---------------------------------------------------
  alpha Z        PSCENC =        41.16232785
  Ewald energy   TEWEN  =     16373.01720120
  -Hartree energ DENC   =    -33351.42709760
  -exchange      EXHF   =         0.00000000
  -V(xc)+E(xc)   XCENC  =       615.70109903
  PAW double counting   =     17699.34062702   -19098.58476096
  entropy T*S    EENTRO =         0.00619161
  eigenvalues    EBANDS =      -990.05377052
  atomic energy  EATOM  =     18662.21924712
  Solvation  Ediel_sol  =         0.00000000
  ---------------------------------------------------
  free energy    TOTEN  =       -48.61893524 eV

  energy without entropy =      -48.62512685  energy(sigma->0) =      -48.62099911


--------------------------------------------------------------------------------------------------------




--------------------------------------- Iteration      1(  20)  ---------------------------------------


    POTLOK:  cpu time    1.1591: real time    1.1619
    SETDIJ:  cpu time    0.0173: real time    0.0173
    EDDIAG:  cpu time    1.0775: real time    1.0948
  RMM-DIIS:  cpu time    6.3970: real time    6.4010
    ORTHCH:  cpu time    0.0565: real time    0.0565
       DOS:  cpu time    0.0005: real time    0.0005
    CHARGE:  cpu time    0.6544: real time    0.6548
    MIXING:  cpu time    0.0351: real time    0.0351
    --------------------------------------------
      LOOP:  cpu time    9.3974: real time    9.4220

 eigenvalue-minimisations  :   398
 total energy-change (2. order) :-0.5621969E-03  (-0.5413168E-05)
 number of electron     153.0000011 magnetization       1.0000000
 augmentation part       92.3906421 magnetization       0.0830748

 Broyden mixing:
  rms(total) = 0.68066E-03    rms(broyden)= 0.68065E-03
  rms(prec ) = 0.12069E-02
  weight for this iteration     100.00

 eigenvalues of (default mixing * dielectric matrix)
  average eigenvalue GAMMA=   1.4514
  6.2920  2.8493  2.3156  1.9468  1.3282  1.3282  0.8313  0.8313  0.7460  0.7460
  0.6123  0.4340  0.4771  0.5167  0.5167

 Free energy of the ion-electron system (eV)
  ---------------------------------------------------
  alpha Z        PSCENC =        41.16232785
  Ewald energy   TEWEN  =     16373.01720120
  -Hartree energ DENC   =    -33351.62941611
  -exchange      EXHF   =         0.00000000
  -V(xc)+E(xc)   XCENC  =       615.69976253
  PAW double counting   =     17699.74726666   -19099.00031363
  entropy T*S    EENTRO =         0.00619087
  eigenvalues    EBANDS =      -989.84176392
  atomic energy  EATOM  =     18662.21924712
  Solvation  Ediel_sol  =         0.00000000
  ---------------------------------------------------
  free energy    TOTEN  =       -48.61949744 eV

  energy without entropy =      -48.62568831  energy(sigma->0) =      -48.62156106


--------------------------------------------------------------------------------------------------------




--------------------------------------- Iteration      1(  21)  ---------------------------------------


    POTLOK:  cpu time    1.1596: real time    1.1600
    SETDIJ:  cpu time    0.0174: real time    0.0174
    EDDIAG:  cpu time    1.0858: real time    1.0863
  RMM-DIIS:  cpu time    6.9634: real time    6.9668
    ORTHCH:  cpu time    0.0572: real time    0.0572
       DOS:  cpu time    0.0005: real time    0.0005
    CHARGE:  cpu time    0.6521: real time    0.6525
    MIXING:  cpu time    0.0363: real time    0.0363
    --------------------------------------------
      LOOP:  cpu time    9.9723: real time    9.9771

 eigenvalue-minimisations  :   403
 total energy-change (2. order) :-0.3694275E-03  (-0.2480895E-05)
 number of electron     153.0000011 magnetization       1.0000000
 augmentation part       92.3910088 magnetization       0.0830395

 Broyden mixing:
  rms(total) = 0.61150E-03    rms(broyden)= 0.61148E-03
  rms(prec ) = 0.94714E-03
  weight for this iteration     100.00

 eigenvalues of (default mixing * dielectric matrix)
  average eigenvalue GAMMA=   1.4963
  6.6708  3.2494  2.4365  2.1882  1.3921  1.3921  0.9750  0.9338  0.7500  0.7500
  0.6822  0.4340  0.5750  0.4770  0.5171  0.5171

 Free energy of the ion-electron system (eV)
  ---------------------------------------------------
  alpha Z        PSCENC =        41.16232785
  Ewald energy   TEWEN  =     16373.01720120
  -Hartree energ DENC   =    -33351.66152874
  -exchange      EXHF   =         0.00000000
  -V(xc)+E(xc)   XCENC  =       615.69868794
  PAW double counting   =     17699.92753463   -19099.18208305
  entropy T*S    EENTRO =         0.00619028
  eigenvalues    EBANDS =      -989.80744408
  atomic energy  EATOM  =     18662.21924712
  Solvation  Ediel_sol  =         0.00000000
  ---------------------------------------------------
  free energy    TOTEN  =       -48.61986687 eV

  energy without entropy =      -48.62605714  energy(sigma->0) =      -48.62193029


--------------------------------------------------------------------------------------------------------




--------------------------------------- Iteration      1(  22)  ---------------------------------------


    POTLOK:  cpu time    1.1590: real time    1.1604
    SETDIJ:  cpu time    0.0172: real time    0.0172
    EDDIAG:  cpu time    1.0868: real time    1.0874
  RMM-DIIS:  cpu time    6.5513: real time    6.5543
    ORTHCH:  cpu time    0.0564: real time    0.0567
       DOS:  cpu time    0.0005: real time    0.0005
    CHARGE:  cpu time    0.6530: real time    0.6531
    MIXING:  cpu time    0.0383: real time    0.0383
    --------------------------------------------
      LOOP:  cpu time    9.5625: real time    9.5678

 eigenvalue-minimisations  :   397
 total energy-change (2. order) :-0.3039107E-03  (-0.2419634E-05)
 number of electron     153.0000011 magnetization       1.0000000
 augmentation part       92.3903975 magnetization       0.0829969

 Broyden mixing:
  rms(total) = 0.27673E-03    rms(broyden)= 0.27669E-03
  rms(prec ) = 0.49354E-03
  weight for this iteration     100.00

 eigenvalues of (default mixing * dielectric matrix)
  average eigenvalue GAMMA=   1.5507
  7.0791  3.9815  2.4667  2.2194  1.5382  1.3420  1.3420  0.8699  0.8699  0.7528
  0.7528  0.6522  0.4339  0.5638  0.4765  0.5146  0.5061

 Free energy of the ion-electron system (eV)
  ---------------------------------------------------
  alpha Z        PSCENC =        41.16232785
  Ewald energy   TEWEN  =     16373.01720120
  -Hartree energ DENC   =    -33351.74685635
  -exchange      EXHF   =         0.00000000
  -V(xc)+E(xc)   XCENC  =       615.69877025
  PAW double counting   =     17700.14169363   -19099.40480079
  entropy T*S    EENTRO =         0.00619086
  eigenvalues    EBANDS =      -989.71394454
  atomic energy  EATOM  =     18662.21924712
  Solvation  Ediel_sol  =         0.00000000
  ---------------------------------------------------
  free energy    TOTEN  =       -48.62017078 eV

  energy without entropy =      -48.62636164  energy(sigma->0) =      -48.62223440


--------------------------------------------------------------------------------------------------------




--------------------------------------- Iteration      1(  23)  ---------------------------------------


    POTLOK:  cpu time    1.1582: real time    1.1590
    SETDIJ:  cpu time    0.0172: real time    0.0172
    EDDIAG:  cpu time    1.0844: real time    1.0850
  RMM-DIIS:  cpu time    6.9318: real time    6.9347
    ORTHCH:  cpu time    0.0569: real time    0.0569
       DOS:  cpu time    0.0005: real time    0.0005
    CHARGE:  cpu time    0.6524: real time    0.6525
    MIXING:  cpu time    0.0407: real time    0.0407
    --------------------------------------------
      LOOP:  cpu time    9.9420: real time    9.9464

 eigenvalue-minimisations  :   413
 total energy-change (2. order) :-0.1317549E-03  (-0.8382166E-06)
 number of electron     153.0000011 magnetization       1.0000000
 augmentation part       92.3900834 magnetization       0.0830383

 Broyden mixing:
  rms(total) = 0.24316E-03    rms(broyden)= 0.24315E-03
  rms(prec ) = 0.37351E-03
  weight for this iteration     100.00

 eigenvalues of (default mixing * dielectric matrix)
  average eigenvalue GAMMA=   1.5699
  7.4191  4.2996  2.4420  2.2684  1.8589  1.3509  1.3509  0.9432  0.9432  0.7561
  0.7561  0.7319  0.6469  0.4339  0.5668  0.4758  0.5069  0.5069

 Free energy of the ion-electron system (eV)
  ---------------------------------------------------
  alpha Z        PSCENC =        41.16232785
  Ewald energy   TEWEN  =     16373.01720120
  -Hartree energ DENC   =    -33351.81006361
  -exchange      EXHF   =         0.00000000
  -V(xc)+E(xc)   XCENC  =       615.69874433
  PAW double counting   =     17700.13263158   -19099.39636821
  entropy T*S    EENTRO =         0.00619109
  eigenvalues    EBANDS =      -989.65021388
  atomic energy  EATOM  =     18662.21924712
  Solvation  Ediel_sol  =         0.00000000
  ---------------------------------------------------
  free energy    TOTEN  =       -48.62030253 eV

  energy without entropy =      -48.62649363  energy(sigma->0) =      -48.62236623


--------------------------------------------------------------------------------------------------------




--------------------------------------- Iteration      1(  24)  ---------------------------------------


    POTLOK:  cpu time    1.1584: real time    1.1624
    SETDIJ:  cpu time    0.0171: real time    0.0171
    EDDIAG:  cpu time    1.0902: real time    1.0909
  RMM-DIIS:  cpu time    6.4696: real time    6.4725
    ORTHCH:  cpu time    0.0565: real time    0.0565
       DOS:  cpu time    0.0005: real time    0.0005
    CHARGE:  cpu time    0.6525: real time    0.6529
    MIXING:  cpu time    0.0423: real time    0.0423
    --------------------------------------------
      LOOP:  cpu time    9.4870: real time    9.4950

 eigenvalue-minimisations  :   396
 total energy-change (2. order) :-0.9403635E-04  (-0.6595227E-06)
 number of electron     153.0000011 magnetization       1.0000000
 augmentation part       92.3903151 magnetization       0.0830474

 Broyden mixing:
  rms(total) = 0.13623E-03    rms(broyden)= 0.13622E-03
  rms(prec ) = 0.22945E-03
  weight for this iteration     100.00

 eigenvalues of (default mixing * dielectric matrix)
  average eigenvalue GAMMA=   1.6037
  7.7292  4.7215  2.4795  2.4795  1.9228  1.4034  1.4034  1.2706  0.8804  0.8804
  0.7597  0.7597  0.6903  0.4339  0.6038  0.5584  0.4761  0.5137  0.5045

 Free energy of the ion-electron system (eV)
  ---------------------------------------------------
  alpha Z        PSCENC =        41.16232785
  Ewald energy   TEWEN  =     16373.01720120
  -Hartree energ DENC   =    -33351.81252666
  -exchange      EXHF   =         0.00000000
  -V(xc)+E(xc)   XCENC  =       615.69836101
  PAW double counting   =     17700.03099712   -19099.28969729
  entropy T*S    EENTRO =         0.00619091
  eigenvalues    EBANDS =      -989.65249783
  atomic energy  EATOM  =     18662.21924712
  Solvation  Ediel_sol  =         0.00000000
  ---------------------------------------------------
  free energy    TOTEN  =       -48.62039657 eV

  energy without entropy =      -48.62658748  energy(sigma->0) =      -48.62246021


--------------------------------------------------------------------------------------------------------




--------------------------------------- Iteration      1(  25)  ---------------------------------------


    POTLOK:  cpu time    1.1574: real time    1.1578
    SETDIJ:  cpu time    0.0172: real time    0.0172
    EDDIAG:  cpu time    1.0886: real time    1.0891
  RMM-DIIS:  cpu time    6.3256: real time    6.3295
    ORTHCH:  cpu time    0.0568: real time    0.0571
       DOS:  cpu time    0.0006: real time    0.0006
    CHARGE:  cpu time    0.6523: real time    0.6523
    MIXING:  cpu time    0.0449: real time    0.0449
    --------------------------------------------
      LOOP:  cpu time    9.3433: real time    9.3484

 eigenvalue-minimisations  :   386
 total energy-change (2. order) :-0.7300895E-04  (-0.6879545E-06)
 number of electron     153.0000011 magnetization       1.0000000
 augmentation part       92.3905549 magnetization       0.0830431

 Broyden mixing:
  rms(total) = 0.10283E-03    rms(broyden)= 0.10282E-03
  rms(prec ) = 0.15515E-03
  weight for this iteration     100.00

 eigenvalues of (default mixing * dielectric matrix)
  average eigenvalue GAMMA=   1.6425
  7.9462  5.1771  2.8071  2.5357  1.8913  1.8913  1.3351  1.3351  0.9511  0.9511
  0.7615  0.7615  0.7372  0.6906  0.4339  0.5791  0.5731  0.4760  0.5084  0.5084

 Free energy of the ion-electron system (eV)
  ---------------------------------------------------
  alpha Z        PSCENC =        41.16232785
  Ewald energy   TEWEN  =     16373.01720120
  -Hartree energ DENC   =    -33351.80166461
  -exchange      EXHF   =         0.00000000
  -V(xc)+E(xc)   XCENC  =       615.69814707
  PAW double counting   =     17699.93172031   -19099.18600802
  entropy T*S    EENTRO =         0.00619087
  eigenvalues    EBANDS =      -989.66763136
  atomic energy  EATOM  =     18662.21924712
  Solvation  Ediel_sol  =         0.00000000
  ---------------------------------------------------
  free energy    TOTEN  =       -48.62046958 eV

  energy without entropy =      -48.62666045  energy(sigma->0) =      -48.62253320


--------------------------------------------------------------------------------------------------------




--------------------------------------- Iteration      1(  26)  ---------------------------------------


    POTLOK:  cpu time    1.1573: real time    1.1595
    SETDIJ:  cpu time    0.0173: real time    0.0173
    EDDIAG:  cpu time    1.0900: real time    1.0908
  RMM-DIIS:  cpu time    5.9521: real time    5.9552
    ORTHCH:  cpu time    0.0580: real time    0.0580
       DOS:  cpu time    0.0004: real time    0.0004
    CHARGE:  cpu time    0.6532: real time    0.6536
    MIXING:  cpu time    0.0476: real time    0.0476
    --------------------------------------------
      LOOP:  cpu time    8.9759: real time    8.9826

 eigenvalue-minimisations  :   366
 total energy-change (2. order) :-0.2789546E-04  (-0.2773178E-06)
 number of electron     153.0000011 magnetization       1.0000000
 augmentation part       92.3905050 magnetization       0.0830395

 Broyden mixing:
  rms(total) = 0.58004E-04    rms(broyden)= 0.58001E-04
  rms(prec ) = 0.93809E-04
  weight for this iteration     100.00

 eigenvalues of (default mixing * dielectric matrix)
  average eigenvalue GAMMA=   1.6572
  8.1144  5.5225  3.1534  2.5268  2.0611  1.8518  1.3962  1.3962  1.0029  1.0029
  0.7681  0.7681  0.7557  0.7557  0.4339  0.6263  0.6014  0.5721  0.4760  0.5081
  0.5081

 Free energy of the ion-electron system (eV)
  ---------------------------------------------------
  alpha Z        PSCENC =        41.16232785
  Ewald energy   TEWEN  =     16373.01720120
  -Hartree energ DENC   =    -33351.80486050
  -exchange      EXHF   =         0.00000000
  -V(xc)+E(xc)   XCENC  =       615.69828543
  PAW double counting   =     17699.90703352   -19099.16130280
  entropy T*S    EENTRO =         0.00619085
  eigenvalues    EBANDS =      -989.66462014
  atomic energy  EATOM  =     18662.21924712
  Solvation  Ediel_sol  =         0.00000000
  ---------------------------------------------------
  free energy    TOTEN  =       -48.62049747 eV

  energy without entropy =      -48.62668832  energy(sigma->0) =      -48.62256109


--------------------------------------------------------------------------------------------------------




--------------------------------------- Iteration      1(  27)  ---------------------------------------


    POTLOK:  cpu time    1.1572: real time    1.1580
    SETDIJ:  cpu time    0.0173: real time    0.0173
    EDDIAG:  cpu time    1.0880: real time    1.0886
  RMM-DIIS:  cpu time    4.8798: real time    4.8827
    ORTHCH:  cpu time    0.0575: real time    0.0575
       DOS:  cpu time    0.0005: real time    0.0005
    CHARGE:  cpu time    0.6532: real time    0.6536
    MIXING:  cpu time    0.0512: real time    0.0512
    --------------------------------------------
      LOOP:  cpu time    7.9046: real time    7.9094

 eigenvalue-minimisations  :   268
 total energy-change (2. order) :-0.1137911E-04  (-0.1056689E-06)
 number of electron     153.0000011 magnetization       1.0000000
 augmentation part       92.3904063 magnetization       0.0830342

 Broyden mixing:
  rms(total) = 0.48380E-04    rms(broyden)= 0.48376E-04
  rms(prec ) = 0.71770E-04
  weight for this iteration     100.00

 eigenvalues of (default mixing * dielectric matrix)
  average eigenvalue GAMMA=   1.6470
  8.1632  5.6920  3.2871  2.5448  2.2149  1.6120  1.6120  1.3240  1.3240  0.9066
  0.9066  0.7623  0.7623  0.7171  0.7171  0.4339  0.6029  0.6029  0.4761  0.5084
  0.5084  0.5546

 Free energy of the ion-electron system (eV)
  ---------------------------------------------------
  alpha Z        PSCENC =        41.16232785
  Ewald energy   TEWEN  =     16373.01720120
  -Hartree energ DENC   =    -33351.81258939
  -exchange      EXHF   =         0.00000000
  -V(xc)+E(xc)   XCENC  =       615.69837585
  PAW double counting   =     17699.90723993   -19099.16264417
  entropy T*S    EENTRO =         0.00619089
  eigenvalues    EBANDS =      -989.65585812
  atomic energy  EATOM  =     18662.21924712
  Solvation  Ediel_sol  =         0.00000000
  ---------------------------------------------------
  free energy    TOTEN  =       -48.62050885 eV

  energy without entropy =      -48.62669974  energy(sigma->0) =      -48.62257248


--------------------------------------------------------------------------------------------------------




--------------------------------------- Iteration      1(  28)  ---------------------------------------


    POTLOK:  cpu time    1.1576: real time    1.1607
    SETDIJ:  cpu time    0.0173: real time    0.0173
    EDDIAG:  cpu time    1.0898: real time    1.0907
  RMM-DIIS:  cpu time    4.4339: real time    4.4363
    ORTHCH:  cpu time    0.0577: real time    0.0579
       DOS:  cpu time    0.0005: real time    0.0004
    CHARGE:  cpu time    0.6527: real time    0.6528
    MIXING:  cpu time    0.0559: real time    0.0559
[...]
     66      -4.8950      1.00000
     67      -4.8856      1.00000
     68      -4.8514      1.00000
     69      -4.8490      1.00000
     70      -4.8219      1.00000
     71      -4.7719      1.00000
     72      -4.7310      1.00000
     73      -4.7086      1.00000
     74      -4.5254      1.00000
     75      -4.2027      1.00000
     76      -4.0136      1.00000
     77      -3.6180      1.00000
     78      -2.9823     -0.00000
     79      -2.7875     -0.00000
     80      -2.5347     -0.00000
     81      -2.3544     -0.00000
     82      -1.9282     -0.00000
     83      -1.8232     -0.00000
     84      -1.8007     -0.00000
     85      -1.4184     -0.00000
     86      -1.1194     -0.00000
     87      -0.9095     -0.00000
     88      -0.6390      0.00000
     89      -0.3940      0.00000
     90      -0.2708      0.00000
     91      -0.0037      0.00000
     92       0.0937      0.00000

 spin component 2

 k-point     1 :       0.0000    0.0000    0.0000
  band No.  band energies     occupation 
      1     -28.7600      1.00000
      2     -13.8550      1.00000
      3     -11.4586      1.00000
      4     -11.3337      1.00000
      5     -10.9632      1.00000
      6     -10.1933      1.00000
      7      -8.5754      1.00000
      8      -8.1885      1.00000
      9      -7.7734      1.00000
     10      -7.5365      1.00000
     11      -7.4373      1.00000
     12      -7.3096      1.00000
     13      -7.1812      1.00000
     14      -7.1503      1.00000
     15      -6.9336      1.00000
     16      -6.9009      1.00000
     17      -6.7921      1.00000
     18      -6.6991      1.00000
     19      -6.5912      1.00000
     20      -6.5718      1.00000
     21      -6.5568      1.00000
     22      -6.4553      1.00000
     23      -6.4475      1.00000
     24      -6.4107      1.00000
     25      -6.3773      1.00000
     26      -6.3206      1.00000
     27      -6.2814      1.00000
     28      -6.2352      1.00000
     29      -6.2320      1.00000
     30      -6.1669      1.00000
     31      -6.1400      1.00000
     32      -6.1046      1.00000
     33      -6.0530      1.00000
     34      -6.0178      1.00000
     35      -5.9602      1.00000
     36      -5.8670      1.00000
     37      -5.8325      1.00000
     38      -5.6836      1.00000
     39      -5.6608      1.00000
     40      -5.6387      1.00000
     41      -5.6146      1.00000
     42      -5.5492      1.00000
     43      -5.4910      1.00000
     44      -5.4131      1.00000
     45      -5.4053      1.00000
     46      -5.3919      1.00000
     47      -5.3508      1.00000
     48      -5.3289      1.00000
     49      -5.3178      1.00000
     50      -5.2772      1.00000
     51      -5.2624      1.00000
     52      -5.2075      1.00000
     53      -5.1887      1.00000
     54      -5.1774      1.00000
     55      -5.1602      1.00000
     56      -5.1339      1.00000
     57      -5.1199      1.00000
     58      -5.0967      1.00000
     59      -5.0672      1.00000
     60      -5.0310      1.00000
     61      -5.0181      1.00000
     62      -4.9828      1.00000
     63      -4.9802      1.00000
     64      -4.9373      1.00000
     65      -4.9028      1.00000
     66      -4.8740      1.00000
     67      -4.8502      1.00000
     68      -4.8266      1.00000
     69      -4.8116      1.00000
     70      -4.7900      1.00000
     71      -4.7396      1.00000
     72      -4.7056      1.00000
     73      -4.6755      1.00000
     74      -4.4859      1.00000
     75      -4.1351      1.00228
     76      -3.9841      0.99772
     77      -3.4005     -0.00000
     78      -2.9281     -0.00000
     79      -2.7346     -0.00000
     80      -2.4725     -0.00000
     81      -2.2550     -0.00000
     82      -1.8792     -0.00000
     83      -1.7529     -0.00000
     84      -1.7243     -0.00000
     85      -1.3395     -0.00000
     86      -0.9482      0.00000
     87      -0.8572      0.00000
     88      -0.5847      0.00000
     89      -0.2812      0.00000
     90      -0.2021      0.00000
     91       0.0392      0.00000
     92       0.2676      0.00000


--------------------------------------------------------------------------------------------------------


 soft charge-density along one line, spin component           1
         0         1         2         3         4         5         6         7         8         9
 total charge-density along one line
 
 soft charge-density along one line, spin component           2
         0         1         2         3         4         5         6         7         8         9
 total charge-density along one line
 
 pseudopotential strength for first ion, spin component:           1
-10.509   0.005  -0.017   0.005  -0.010   1.013  -0.004   0.015
  0.005 -10.477  -0.005   0.008   0.003  -0.004   0.989   0.004
 -0.017  -0.005 -10.456   0.004  -0.013   0.015   0.004   0.972
  0.005   0.008   0.004 -10.460   0.000  -0.003  -0.008  -0.003
 -0.010   0.003  -0.013   0.000 -10.488   0.008  -0.002   0.011
  1.013  -0.004   0.015  -0.003   0.008   6.297   0.003  -0.012
 -0.004   0.989   0.004  -0.008  -0.002   0.003   6.311  -0.003
  0.015   0.004   0.972  -0.003   0.011  -0.012  -0.003   6.324
 -0.003  -0.008  -0.003   0.975  -0.000   0.002   0.008   0.002
  0.008  -0.002   0.011  -0.000   0.997  -0.005   0.002  -0.008
 -0.007   0.000  -0.006  -0.001  -0.004   0.006   0.000  -0.000
 -0.014   0.001  -0.011  -0.001  -0.008   0.011   0.000  -0.001
 -0.013   0.000   0.005  -0.000   0.011   0.008   0.000  -0.005
 -0.000  -0.009   0.000  -0.012  -0.000   0.001   0.006   0.000
 -0.008  -0.000   0.008  -0.000  -0.013   0.004   0.001  -0.005
 -0.013  -0.000   0.006  -0.001   0.012   0.007   0.001  -0.005
 -0.001  -0.009   0.000  -0.013  -0.000   0.001   0.006   0.001
 -0.007  -0.001   0.008  -0.000  -0.014   0.003   0.001  -0.006
 pseudopotential strength for first ion, spin component:           2
-10.463   0.003  -0.009  -0.006   0.004   0.976  -0.002   0.008
  0.003 -10.463  -0.006   0.008   0.001  -0.002   0.976   0.004
 -0.009  -0.006 -10.442   0.003  -0.010   0.008   0.004   0.960
 -0.006   0.008   0.003 -10.443  -0.003   0.004  -0.007  -0.002
  0.004   0.001  -0.010  -0.003 -10.472  -0.003  -0.000   0.008
  0.976  -0.002   0.008   0.004  -0.003   6.320   0.002  -0.005
 -0.002   0.976   0.004  -0.007  -0.000   0.002   6.318  -0.003
  0.008   0.004   0.960  -0.002   0.008  -0.005  -0.003   6.329
  0.004  -0.007  -0.002   0.961   0.002  -0.003   0.005   0.002
 -0.003  -0.000   0.008   0.002   0.983   0.002   0.000  -0.005
 -0.003   0.001  -0.003  -0.001  -0.003   0.001   0.000  -0.001
 -0.005   0.002  -0.006  -0.002  -0.005   0.001   0.001  -0.003
 -0.015   0.000   0.006   0.000   0.010   0.012  -0.001  -0.006
  0.000  -0.010   0.001  -0.014   0.000  -0.000   0.008  -0.001
 -0.010   0.000   0.009   0.001  -0.014   0.009  -0.000  -0.007
 -0.017   0.001   0.007   0.001   0.011   0.013  -0.001  -0.007
  0.001  -0.011   0.001  -0.016   0.000  -0.000   0.009  -0.001
 -0.012   0.001   0.010   0.002  -0.016   0.010  -0.000  -0.008
 total augmentation occupancy for first ion, spin component:           1
  1.931   0.005  -0.006   0.003  -0.003  -0.009  -0.002   0.008  -0.001   0.003  -0.025   0.013   0.032  -0.003   0.039  -0.019
  0.005   1.930  -0.006   0.008   0.001  -0.002  -0.020   0.005  -0.001   0.000  -0.004  -0.001  -0.003   0.039  -0.003   0.001
 -0.006  -0.006   1.948   0.004  -0.003   0.007   0.005  -0.027  -0.003   0.005  -0.011   0.010  -0.015  -0.003  -0.016   0.007
  0.003   0.008   0.004   1.938  -0.005  -0.001  -0.001  -0.003  -0.024   0.002   0.009   0.001   0.004   0.053  -0.003  -0.000
 -0.003   0.001  -0.003  -0.005   1.939   0.003   0.000   0.005   0.002  -0.016  -0.011   0.007  -0.014   0.006   0.029   0.013
 -0.009  -0.002   0.007  -0.001   0.003   0.014   0.000   0.002   0.000   0.001  -0.026  -0.000   0.019   0.001   0.010  -0.001
 -0.002  -0.020   0.005  -0.001   0.000   0.000   0.008  -0.000   0.001  -0.000   0.007  -0.001  -0.000   0.013   0.002  -0.000
  0.008   0.005  -0.027  -0.003   0.005   0.002  -0.000   0.007  -0.001   0.002  -0.042   0.005  -0.008  -0.002  -0.006   0.001
 -0.001  -0.001  -0.003  -0.024   0.002   0.000   0.001  -0.001   0.008  -0.001  -0.007   0.001  -0.000   0.018  -0.001  -0.000
  0.003   0.000   0.005   0.002  -0.016   0.001  -0.000   0.002  -0.001   0.012  -0.021   0.001  -0.022  -0.002   0.020   0.002
 -0.025  -0.004  -0.011   0.009  -0.011  -0.026   0.007  -0.042  -0.007  -0.021   1.624  -0.114   0.140  -0.010   0.161  -0.018
  0.013  -0.001   0.010   0.001   0.007  -0.000  -0.001   0.005   0.001   0.001  -0.114   0.013  -0.019   0.002  -0.025   0.002
  0.032  -0.003  -0.015   0.004  -0.014   0.019  -0.000  -0.008  -0.000  -0.022   0.140  -0.019   0.183   0.003  -0.039  -0.012
 -0.003   0.039  -0.003   0.053   0.006   0.001   0.013  -0.002   0.018  -0.002  -0.010   0.002   0.003   0.083  -0.006  -0.001
  0.039  -0.003  -0.016  -0.003   0.029   0.010   0.002  -0.006  -0.001   0.020   0.161  -0.025  -0.039  -0.006   0.136   0.001
 -0.019   0.001   0.007  -0.000   0.013  -0.001  -0.000   0.001  -0.000   0.002  -0.018   0.002  -0.012  -0.001   0.001   0.001
 -0.000  -0.015   0.002  -0.020   0.000  -0.000  -0.001   0.000  -0.001   0.000   0.001  -0.000  -0.001  -0.005   0.001   0.000
 -0.014  -0.000   0.010   0.001  -0.019  -0.000  -0.000   0.001   0.000  -0.001  -0.023   0.002   0.001   0.000  -0.010   0.000
 total augmentation occupancy for first ion, spin component:           2
  0.019  -0.002   0.002  -0.006   0.008  -0.003   0.000  -0.002   0.001  -0.002   0.040   0.007  -0.014   0.007  -0.017  -0.001
 -0.002   0.001  -0.000   0.002  -0.001   0.000   0.002  -0.000   0.001   0.001  -0.005  -0.001   0.003  -0.003   0.002   0.000
  0.002  -0.000   0.001  -0.001   0.001  -0.002  -0.000   0.002   0.000  -0.001   0.005   0.000   0.000   0.003   0.000   0.000
 -0.006   0.002  -0.001   0.004  -0.003   0.001   0.001   0.000   0.002   0.000  -0.013  -0.003   0.004  -0.006   0.006   0.000
  0.008  -0.001   0.001  -0.003   0.002  -0.002   0.001  -0.001   0.000   0.002   0.016   0.003  -0.002   0.003  -0.009  -0.000
 -0.003   0.000  -0.002   0.001  -0.002   0.001  -0.000   0.000  -0.000   0.000  -0.009  -0.001   0.002  -0.002   0.004   0.000
  0.000   0.002  -0.000   0.001   0.001  -0.000  -0.000   0.000  -0.000  -0.000   0.001   0.000  -0.000   0.000  -0.001  -0.000
 -0.002  -0.000   0.002   0.000  -0.001   0.000   0.000  -0.000  -0.000   0.000  -0.002  -0.000   0.001  -0.000   0.001  -0.000
  0.001   0.001   0.000   0.002   0.000  -0.000  -0.000  -0.000  -0.000  -0.000   0.002   0.000  -0.001   0.000  -0.001  -0.000
 -0.002   0.001  -0.001   0.000   0.002   0.000  -0.000   0.000  -0.000  -0.000  -0.004  -0.000   0.002  -0.001   0.001  -0.000
  0.040  -0.005   0.005  -0.013   0.016  -0.009   0.001  -0.002   0.002  -0.004   0.099   0.005  -0.027   0.017  -0.037  -0.000
  0.007  -0.001   0.000  -0.003   0.003  -0.001   0.000  -0.000   0.000  -0.000   0.005   0.001  -0.001   0.001  -0.002  -0.000
 -0.014   0.003   0.000   0.004  -0.002   0.002  -0.000   0.001  -0.001   0.002  -0.027  -0.001   0.007  -0.003   0.006   0.000
  0.007  -0.003   0.003  -0.006   0.003  -0.002   0.000  -0.000   0.000  -0.001   0.017   0.001  -0.003   0.003  -0.005  -0.000
 -0.017   0.002   0.000   0.006  -0.009   0.004  -0.001   0.001  -0.001   0.001  -0.037  -0.002   0.006  -0.005   0.011   0.000
 -0.001   0.000   0.000   0.000  -0.000   0.000  -0.000  -0.000  -0.000  -0.000  -0.000  -0.000   0.000  -0.000   0.000   0.000
  0.000  -0.001   0.000  -0.001   0.000   0.000  -0.000  -0.000   0.000  -0.000  -0.000   0.000   0.000   0.000  -0.000  -0.000
 -0.001   0.000   0.000   0.001  -0.001   0.000   0.000   0.000  -0.000   0.000  -0.000  -0.000   0.000  -0.000   0.000   0.000


------------------------ aborting loop because EDIFF is reached ----------------------------------------


    CHARGE:  cpu time    0.6576: real time    0.6580
    FORLOC:  cpu time    0.0649: real time    0.0649
    FORNL :  cpu time    1.5319: real time    1.5325
    STRESS:  cpu time    6.0055: real time    6.0081
    FORCOR:  cpu time    1.1639: real time    1.1655
    FORHAR:  cpu time    0.1890: real time    0.1890
    MIXING:  cpu time    0.1115: real time    0.1115
    OFIELD:  cpu time    0.0001: real time    0.0001

  FORCE on cell =-STRESS in cart. coord.  units (eV):
  Direction    XX          YY          ZZ          XY          YZ          ZX
  --------------------------------------------------------------------------------------
  Alpha Z    41.16233    41.16233    41.16233
  Ewald   10349.45827  7335.46150 -1311.91837  -650.06532   278.04325    61.72101
  Hartree 15477.43039 12817.01906  5057.36627  -598.60917   237.12192    17.00572
  E(xc)    -876.61755  -878.02990  -879.58827     0.04214     0.05149     0.37233
  Local  -27223.91772-21583.08258 -5182.38942  1253.30973  -512.20468   -71.42685
  n-local  -328.17830  -320.19653  -326.45770    -3.44733     0.05139    -1.48897
  augment  1222.84279  1225.94941  1232.05324     0.03112    -0.90547    -0.79748
  Kinetic  1339.33743  1363.97006  1369.29525    -3.28778    -1.43980    -6.28070
  Fock        0.00000     0.00000     0.00000     0.00000     0.00000     0.00000
  -------------------------------------------------------------------------------------
  Total       1.51764     2.25335    -0.47668    -2.02662     0.71809    -0.89496
  in kB       0.72045     1.06971    -0.22629    -0.96207     0.34089    -0.42485
  external pressure =        0.52 kB  Pullay stress =        0.00 kB


 VOLUME and BASIS-vectors are now :
 -----------------------------------------------------------------------------
  energy-cutoff  :      600.00
  volume of cell :     3375.00
      direct lattice vectors                 reciprocal lattice vectors
    15.000000000  0.000000000  0.000000000     0.066666667  0.000000000  0.000000000
     0.000000000 15.000000000  0.000000000     0.000000000  0.066666667  0.000000000
     0.000000000  0.000000000 15.000000000     0.000000000  0.000000000  0.066666667

  length of vectors
    15.000000000 15.000000000 15.000000000     0.066666667  0.066666667  0.066666667


 FORCES acting on ions
    electron-ion (+dipol)            ewald-force                    non-local-force                 convergence-correction
 -----------------------------------------------------------------------------------------------
   0.107E+04 0.723E+03 -.616E+02   -.107E+04 -.720E+03 0.613E+02   -.430E+01 -.364E+01 0.248E+00   -.226E-04 0.379E-05 -.167E-05
   0.472E+03 -.289E+03 0.878E+03   -.471E+03 0.287E+03 -.879E+03   -.105E+01 0.182E+01 0.291E+00   -.631E-05 -.161E-05 -.348E-04
   0.278E+03 0.126E+04 -.179E+03   -.275E+03 -.125E+04 0.177E+03   -.247E+01 -.899E+01 0.183E+01   -.821E-05 -.309E-04 -.608E-05
   -.833E+03 -.137E+03 0.898E+03   0.832E+03 0.136E+03 -.893E+03   0.641E+00 0.551E+00 -.501E+01   0.173E-04 0.293E-04 -.692E-05
   -.832E+03 0.101E+04 0.142E+03   0.829E+03 -.100E+04 -.141E+03   0.417E+01 -.530E+01 -.117E+01   0.296E-04 -.107E-04 -.279E-05
   -.181E+03 0.532E+03 -.952E+03   0.179E+03 -.529E+03 0.951E+03   0.164E+01 -.325E+01 0.425E+00   -.185E-05 0.280E-04 0.342E-04
   0.194E+03 0.612E+03 0.122E+04   -.193E+03 -.607E+03 -.121E+04   -.107E+01 -.482E+01 -.662E+01   -.997E-05 0.225E-04 -.189E-04
   0.128E+04 -.353E+03 0.113E+03   -.127E+04 0.350E+03 -.110E+03   -.901E+01 0.332E+01 -.243E+01   -.301E-04 -.233E-05 0.104E-05
   0.576E+03 -.220E+03 -.127E+04   -.572E+03 0.220E+03 0.127E+04   -.408E+01 0.691E+00 0.674E+01   0.110E-04 0.606E-05 0.500E-05
   0.470E+03 -.130E+04 -.152E+03   -.467E+03 0.129E+04 0.150E+03   -.330E+01 0.686E+01 0.220E+01   0.603E-05 0.303E-04 -.343E-06
   -.455E+03 -.104E+04 0.773E+03   0.451E+03 0.103E+04 -.766E+03   0.418E+01 0.596E+01 -.701E+01   0.385E-05 0.887E-05 -.515E-06
   -.868E+03 0.198E+01 -.262E+03   0.866E+03 -.297E+01 0.260E+03   0.182E+01 0.745E+00 0.307E+01   0.223E-04 0.115E-05 0.864E-05
   -.641E+03 -.763E+03 -.842E+03   0.638E+03 0.759E+03 0.839E+03   0.409E+01 0.427E+01 0.238E+01   0.690E-05 0.408E-05 0.138E-04
   -.833E+02 0.130E+02 -.124E+03   0.621E+02 -.160E+02 0.120E+03   0.199E+02 0.288E+01 0.333E+01   0.107E-05 0.751E-07 -.904E-06
   -.402E+03 -.462E+02 -.163E+03   0.462E+03 0.547E+02 0.175E+03   -.589E+02 -.837E+01 -.118E+02   -.284E-05 -.178E-05 -.245E-05
 -----------------------------------------------------------------------------------------------
   0.477E+02 0.727E+01 0.135E+02   -.739E-12 0.398E-12 0.000E+00   -.477E+02 -.727E+01 -.135E+02   0.162E-04 0.869E-04 -.127E-04
 
 
 POSITION                                       TOTAL-FORCE (eV/Angst)
 -----------------------------------------------------------------------------------
      4.32763      6.24430      8.38745         0.410194     -0.163252     -0.011006
      5.58746      8.18030      7.48392         0.062008     -0.400284     -0.626539
      5.93273      4.36588      8.42268        -0.012834      0.185956     -0.001188
      8.02311      7.61140      7.20429        -0.249554     -0.061500      0.049016
      8.14280      5.28952      8.01437         0.629050     -0.103235     -0.438879
      6.70306      6.58348      9.22030        -0.105952     -0.579935     -0.089174
      6.18973      6.01763      6.60154         0.098269     -0.069288      0.653529
      3.37368      8.41863      8.31232        -0.371939      0.491969     -0.108618
      5.07610      8.17229      9.88535        -0.347892      0.056609      0.262030
      5.34383     10.23520      8.48877        -0.643818      0.403954      0.424404
      7.18433      9.95221      7.04468         0.322719     -0.094403     -0.021752
      9.60885      7.31990      8.92367        -0.400003     -0.245314      0.307421
      7.22801      8.83788      9.21252         0.875321      0.565524     -0.113423
     11.19800      7.47700      9.87101        -1.350415     -0.117759     -0.640437
     12.30890      7.63447     10.09810         1.084845      0.130958      0.354616
 -----------------------------------------------------------------------------------
    total drift:                               -0.001679      0.003232      0.002056


--------------------------------------------------------------------------------------------------------



  FREE ENERGIE OF THE ION-ELECTRON SYSTEM (eV)
  ---------------------------------------------------
  free  energy   TOTEN  =       -48.62052031 eV

  energy  without entropy=      -48.62671112  energy(sigma->0) =      -48.62258392
 


--------------------------------------------------------------------------------------------------------


    POTLOK:  cpu time    1.1781: real time    1.1789


--------------------------------------------------------------------------------------------------------


     LOOP+:  cpu time  346.0589: real time  346.3061
    4ORBIT:  cpu time    0.0000: real time    0.0000

 total amount of memory used by VASP MPI-rank0   158680. kBytes
=======================================================================

   base      :      30000. kBytes
   nonl-proj :      12601. kBytes
   fftplans  :      27994. kBytes
   grid      :      74150. kBytes
   one-center:         93. kBytes
   wavefun   :      13842. kBytes
 
  
  
 General timing and accounting informations for this job:
 ========================================================
  
                  Total CPU time used (sec):      350.036
                            User time (sec):      337.716
                          System time (sec):       12.320
                         Elapsed time (sec):      350.320
  
                   Maximum memory used (kb):      280992.
                   Average memory used (kb):           0.
  
                          Minor page faults:       293781
                          Major page faults:            0
                 Voluntary context switches:          811
