180
Lattice="10.239521 0.0 0.0 0.0 11.3526 0.0 0.0 0.0 27.891432" Properties=species:S:1:pos:R:3:masses:R:1 E="-123798.19544636 eV" pbc="T T T"
Ti       6.17288821       3.39247335       0.69783092      47.86700000
Ti       7.47108871       3.38588050       4.28232447      47.86700000
Ti       8.87504103       3.38490233       7.81626507      47.86700000
Ti       0.09579833       3.34124768      11.38770176      47.86700000
Ti       1.03713864       1.50074376       0.70453697      47.86700000
Ti       2.35678905       1.49888952       4.27671304      47.86700000
Ti       3.75025188       1.50171583       7.82380910      47.86700000
Ti       5.13763765       1.49338299      11.40147814      47.86700000
Ti       3.83121477       1.50648695       1.52576531      47.86700000
Ti       5.20069646       1.50161125       5.10324108      47.86700000
Ti       6.60412469       1.50595961       8.64998713      47.86700000
Ti       7.91458120       1.49969526      12.23030084      47.86700000
Ti       8.94100576       3.39521556       1.54895270      47.86700000
Ti       0.10161714       3.38707761       5.13732302      47.86700000
Ti       1.51097825       3.38461705       8.74729211      47.86700000
Ti       2.88159586       3.38586922      12.51981375      47.86700000
O        4.24000129       3.39047173       1.53389429      15.99900000
O        5.57179766       3.38966828       4.96709508      15.99900000
O        6.97066849       3.39154053       8.53270284      15.99900000
O        8.42723586       3.38873112      12.31482562      15.99900000
O        9.33857873       1.49746571       1.54443832      15.99900000
O        0.48162501       1.49715473       4.96381494      15.99900000
O        1.88143105       1.49630362       8.52921406      15.99900000
O        3.28315597       1.48899908      12.24820125      15.99900000
O        1.95821265       1.49906115       2.31518658      15.99900000
O        3.36855459       1.49772079       5.88079279      15.99900000
O        4.82030038       1.50152817       9.42503583      15.99900000
O        6.22860354       1.42251273      12.95990273      15.99900000
O        7.04859021       3.39106074       2.31941923      15.99900000
O        8.50237779       3.39037835       5.87473416      15.99900000
O        9.91172334       3.38939414       9.40443079      15.99900000
O        1.06863867       3.31218970      13.00671763      15.99900000
O        0.50422804       3.38880827       0.62423366      15.99900000
O        1.96620992       3.39043068       4.40644361      15.99900000
O        3.35660550       3.38760012       7.90837286      15.99900000
O        4.74984366       3.39179032      11.46433887      15.99900000
O        5.65157725       1.49635640       0.62026786      15.99900000
O        7.05889746       1.49780335       4.40664949      15.99900000
O        8.44955492       1.49897289       7.90376785      15.99900000
O        9.83978326       1.49500210      11.38679976      15.99900000
O        2.71139112       1.48408460      -0.06004278      15.99900000
O        4.16032806       1.49781008       3.49902797      15.99900000
O        5.56718798       1.49788866       7.04818273      15.99900000
O        7.03727880       1.50136249      10.60979417      15.99900000
O        7.85636897       3.37542187      -0.05877666      15.99900000
O        9.25283829       3.38978664       3.51097143      15.99900000
O        0.42340696       3.39025589       7.04934944      15.99900000
O        1.87345185       3.38900863      10.61686400      15.99900000
H        3.99463561       0.05647820      -0.98219860       1.00800000
H        4.88947702       0.14321909      13.94637228       1.00800000
H        4.56935686       2.47827227      -1.42158111       1.00800000
O        4.83738863       3.39911534      -1.24294483      15.99900000
H        9.58484297       0.60054516      14.30086368       1.00800000
O        9.25243400       1.50941138      14.17640554      15.99900000
H       10.06290605       2.01342340      13.91716306       1.00800000
H        3.92513766       2.64879633      14.65961367       1.00800000
O        3.75927863       3.47412078      14.17385851      15.99900000
H        9.57654786       0.60317880      -1.35634376       1.00800000
O        9.91795848       1.50995973      -1.23901759      15.99900000
H        9.11327382       2.01557800      -0.97188679       1.00800000
Ti       6.16356546       7.17850281       0.70249586      47.86700000
Ti       7.45326890       7.17622169       4.28546790      47.86700000
Ti       8.83601242       7.17669609       7.81747815      47.86700000
Ti       0.00687015       7.23227132      11.36664147      47.86700000
Ti       1.03221153       5.28369633       0.70097327      47.86700000
Ti       2.33938947       5.27873834       4.25978196      47.86700000
Ti       3.70127409       5.27416619       7.77248053      47.86700000
Ti       5.04139326       5.26327120      11.29297732      47.86700000
Ti       3.83448820       5.28659397       1.51912390      47.86700000
Ti       5.20892090       5.27720425       5.08156656      47.86700000
Ti       6.59999272       5.27257011       8.60721926      47.86700000
Ti       8.05214555       5.26384619      12.09675130      47.86700000
Ti       8.93769034       7.18036145       1.53075306      47.86700000
Ti       0.08981919       7.17561754       5.08157197      47.86700000
Ti       1.48134141       7.17676578       8.59981597      47.86700000
Ti       2.77844924       7.19052727      12.17329703      47.86700000
O        4.24321453       7.17463014       1.53431825      15.99900000
O        5.57304992       7.17429153       4.96649896      15.99900000
O        6.97287020       7.17264269       8.53087789      15.99900000
O        8.43164656       7.17092846      12.24719225      15.99900000
O        9.33904637       5.28276071       1.54433623      15.99900000
O        0.48182187       5.28285864       4.96330717      15.99900000
O        1.87890541       5.28266936       8.52581284      15.99900000
O        3.27634653       5.28898187      12.23556401      15.99900000
O        1.95741511       5.28334846       2.31442531      15.99900000
O        3.36667748       5.28219417       5.87247217      15.99900000
O        4.76480278       5.27771510       9.40288913      15.99900000
O        6.22470560       5.27292747      13.02257407      15.99900000
O        7.04894680       7.17528797       2.31971264      15.99900000
O        8.50677421       7.17398353       5.87092909      15.99900000
O        9.91513962       7.17322393       9.38642317      15.99900000
O        1.08121844       7.16620016      12.93774394      15.99900000
O        0.50436307       7.17223673       0.62316070      15.99900000
O        1.96545355       7.17399277       4.40457009      15.99900000
O        3.35542571       7.17546146       7.90371873      15.99900000
O        4.74543393       7.17408620      11.40091829      15.99900000
O        5.65146377       5.28056286       0.62009254      15.99900000
O        7.05899999       5.28212519       4.40540834      15.99900000
O        8.44316245       5.28142219       7.90521043      15.99900000
O        9.83147790       5.27497860      11.38603026      15.99900000
O        2.71034177       5.26843431      -0.06014625      15.99900000
O        4.16010612       5.28199782       3.49604115      15.99900000
O        5.56352256       5.28236613       7.04330133      15.99900000
O        6.96567600       5.28411717      10.61448999      15.99900000
O        7.85488105       7.15964450      -0.05949117      15.99900000
O        9.25391552       7.17423602       3.50436240      15.99900000
O        0.42499370       7.17427513       7.03845052      15.99900000
O        1.88109132       7.17970319      10.56978663      15.99900000
H        3.99389828       3.83693948      -0.98128960       1.00800000
H        5.94121759       4.53109183      13.59585447       1.00800000
H        4.56924076       6.26315494      -1.42368978       1.00800000
O        4.83716335       7.18359517      -1.24291024      15.99900000
H        9.58313607       4.38677941      14.28557403       1.00800000
O        9.25293814       5.29889127      14.17314312      15.99900000
H       10.06645047       5.79638388      13.92236748       1.00800000
H        4.04930526       6.23121331      14.45213326       1.00800000
O        4.00588763       7.16896116      14.17900098      15.99900000
H        9.57184921       4.38550560      -1.34679912       1.00800000
O        9.91752525       5.29223222      -1.23901057      15.99900000
H        9.11429939       5.80251822      -0.97658344       1.00800000
Ti       6.16410791      10.96309962       0.70269910      47.86700000
Ti       7.45393837      10.96007909       4.28694610      47.86700000
Ti       8.83852878      10.96237342       7.82032585      47.86700000
Ti       0.00660222      10.97492036      11.38089001      47.86700000
Ti       1.03497060       9.06969506       0.70535962      47.86700000
Ti       2.35465791       9.06726425       4.27537400      47.86700000
Ti       3.74481081       9.06849697       7.81962350      47.86700000
Ti       5.14329160       9.07061721      11.38828000      47.86700000
Ti       3.83070076       9.07351638       1.52161961      47.86700000
Ti       5.19928521       9.06739860       5.09550337      47.86700000
Ti       6.60042799       9.06769739       8.62808235      47.86700000
Ti       7.90928024       9.07868167      12.21689590      47.86700000
Ti       8.93766876      10.96529763       1.53206764      47.86700000
Ti       0.09009276      10.96038473       5.08427541      47.86700000
Ti       1.47902313      10.96258396       8.60810190      47.86700000
Ti       2.78323746      10.96487421      12.19289678      47.86700000
O        4.24301510      10.95855553       1.53494586      15.99900000
O        5.57281345      10.95872651       4.96695580      15.99900000
O        6.97436565      10.95948650       8.53063812      15.99900000
O        8.43743212      10.95566057      12.31179502      15.99900000
O        9.33869740       9.06618184       1.54408740      15.99900000
O        0.48152979       9.06629816       4.96357419      15.99900000
O        1.88120593       9.06757919       8.52668802      15.99900000
O        3.28312032       9.06516709      12.24248392      15.99900000
O        1.95794969       9.06738187       2.31493829      15.99900000
O        3.36846937       9.06645701       5.87883461      15.99900000
O        4.82154299       9.06505326       9.40082792      15.99900000
O        6.22688619       9.05697501      12.95356627      15.99900000
O        7.04905380      10.95943145       2.31997723      15.99900000
O        8.50775628      10.95844901       5.87192480      15.99900000
O        9.91673128      10.95801198       9.38843365      15.99900000
O        1.08169535      10.94458801      12.94733347      15.99900000
O        0.50462269      10.95657369       0.62371228      15.99900000
O        1.96564700      10.95836067       4.40485156      15.99900000
O        3.35772382      10.95925231       7.90665187      15.99900000
O        4.74365849      10.95548128      11.39369491      15.99900000
O        5.65133726       9.06473040       0.62008021      15.99900000
O        7.05867520       9.06650267       4.40625340      15.99900000
O        8.44964622       9.06605240       7.90202630      15.99900000
O        9.84171540       9.07103267      11.38524925      15.99900000
O        2.71099740       9.05263146      -0.06024753      15.99900000
O        4.16011452       9.06615011       3.49740256      15.99900000
O        5.56817151       9.06651802       7.04118274      15.99900000
O        7.03459328       9.07002275      10.60419737      15.99900000
O        7.85493497      10.94388895      -0.05902822      15.99900000
O        9.25393211      10.95813666       3.50516244      15.99900000
O        0.42803907      10.95848708       7.04066941      15.99900000
O        1.88004922      10.95945927      10.59461035      15.99900000
H        3.99338132       7.62209711      -0.98304653       1.00800000
H        4.92495130       7.37823566      13.90228649       1.00800000
H        4.56625902      10.04791249      -1.42082967       1.00800000
O        4.83701213      10.96805706      -1.24267659      15.99900000
H        9.56352390       8.16146507      14.32691983       1.00800000
O        9.25133162       9.07311993      14.17587850      15.99900000
H       10.07064752       9.54984003      13.90346712       1.00800000
H        4.44166996      10.06043986      14.28298474       1.00800000
O        4.08989606      10.96535329      14.17507339      15.99900000
H        9.57842248       8.17069686      -1.35829050       1.00800000
O        9.91802725       9.07790282      -1.23951054      15.99900000
H        9.11165028       9.58207655      -0.97537734       1.00800000
