 vasp.5.4.4.18Apr17-6-g9f103f2a35 (build May 08 2019 13:49:07) complex          
  
 executed on             LinuxIFC date 2019.11.13  14:16:26
 running on   24 total cores
 distrk:  each k-point on   24 cores,    1 groups
 distr:  one band on NCORES_PER_BAND=   6 cores,    4 groups


--------------------------------------------------------------------------------------------------------


 INCAR:
 POTCAR:    PAW_PBE Cu 22Jun2005                  
 POTCAR:    PAW_PBE C 08Apr2002                   
 POTCAR:    PAW_PBE O 08Apr2002                   
 POTCAR:    PAW_PBE Cu 22Jun2005                  
   VRHFIN =Cu: d10 p1                                                           
   LEXCH  = PE                                                                  
   EATOM  =  1390.9808 eV,  102.2342 Ry                                         
                                                                                
   TITEL  = PAW_PBE Cu 22Jun2005                                                
   LULTRA =        F    use ultrasoft PP ?                                      
   IUNSCR =        1    unscreen: 0-lin 1-nonlin 2-no                           
   RPACOR =    2.000    partial core radius                                     
   POMASS =   63.546; ZVAL   =   11.000    mass and valenz                      
   RCORE  =    2.300    outmost cutoff radius                                   
   RWIGS  =    2.200; RWIGS  =    1.164    wigner-seitz radius (au A)           
   ENMAX  =  295.446; ENMIN  =  221.585 eV                                      
   ICORE  =        3    local potential                                         
   LCOR   =        T    correct aug charges                                     
   LPAW   =        T    paw PP                                                  
   EAUG   =  586.980                                                            
   DEXC   =    0.000                                                            
   RMAX   =    2.344    core radius for proj-oper                               
   RAUG   =    1.300    factor for augmentation sphere                          
   RDEP   =    2.302    radius for radial grids                                 
   RDEPT  =    1.771    core radius for aug-charge                              
                                                                                
   Atomic configuration                                                         
    9 entries                                                                   
     n  l   j            E        occ.                                          
     1  0  0.50     -8850.2468   2.0000                                         
     2  0  0.50     -1062.3498   2.0000                                         
     2  1  1.50      -916.8226   6.0000                                         
     3  0  0.50      -114.6929   2.0000                                         
     3  1  1.50       -72.1325   6.0000                                         
     3  2  2.50        -5.0394  10.0000                                         
     4  0  0.50        -4.6097   1.0000                                         
     4  1  0.50        -4.0817   0.0000                                         
     4  3  2.50        -1.3606   0.0000                                         
   Description                                                                  
     l       E           TYP  RCUT    TYP  RCUT                                 
     2     -5.0393973     23  2.200                                             
     2     10.8846608     23  2.200                                             
     0     -4.6097109     23  2.200                                             
     0      8.2520465     23  2.200                                             
     1     -2.7211652     23  2.200                                             
     1     21.7055443     23  2.200                                             
     3      2.7211652     23  2.300                                             
  local pseudopotential read in
  partial core-charges read in
  partial kinetic energy density read in
  atomic valenz-charges read in
  non local Contribution for L=           2  read in
    real space projection operators read in
  non local Contribution for L=           2  read in
    real space projection operators read in
  non local Contribution for L=           0  read in
    real space projection operators read in
  non local Contribution for L=           0  read in
    real space projection operators read in
  non local Contribution for L=           1  read in
    real space projection operators read in
  non local Contribution for L=           1  read in
    real space projection operators read in
    PAW grid and wavefunctions read in
 
   number of l-projection  operators is LMAX  =           6
   number of lm-projection operators is LMMAX =          18
 
 POTCAR:    PAW_PBE C 08Apr2002                   
   VRHFIN =C: s2p2                                                              
   LEXCH  = PE                                                                  
   EATOM  =   147.1560 eV,   10.8157 Ry                                         
                                                                                
   TITEL  = PAW_PBE C 08Apr2002                                                 
   LULTRA =        F    use ultrasoft PP ?                                      
   IUNSCR =        1    unscreen: 0-lin 1-nonlin 2-no                           
   RPACOR =    1.200    partial core radius                                     
   POMASS =   12.011; ZVAL   =    4.000    mass and valenz                      
   RCORE  =    1.500    outmost cutoff radius                                   
   RWIGS  =    1.630; RWIGS  =    0.863    wigner-seitz radius (au A)           
   ENMAX  =  400.000; ENMIN  =  300.000 eV                                      
   ICORE  =        2    local potential                                         
   LCOR   =        T    correct aug charges                                     
   LPAW   =        T    paw PP                                                  
   EAUG   =  644.873                                                            
   DEXC   =    0.000                                                            
   RMAX   =    1.529    core radius for proj-oper                               
   RAUG   =    1.300    factor for augmentation sphere                          
   RDEP   =    1.501    radius for radial grids                                 
   RDEPT  =    1.300    core radius for aug-charge                              
                                                                                
   Atomic configuration                                                         
    4 entries                                                                   
     n  l   j            E        occ.                                          
     1  0  0.50      -273.3789   2.0000                                         
     2  0  0.50       -13.7508   2.0000                                         
     2  1  0.50        -5.2854   2.0000                                         
     3  2  1.50        -5.4423   0.0000                                         
   Description                                                                  
     l       E           TYP  RCUT    TYP  RCUT                                 
     0    -13.7508458     23  1.200                                             
     0     -8.2022199     23  1.200                                             
     1     -5.2854383     23  1.500                                             
     1     34.0145650     23  1.500                                             
     2     -5.4423304      7  1.500                                             
  local pseudopotential read in
  partial core-charges read in
  partial kinetic energy density read in
  atomic valenz-charges read in
  non local Contribution for L=           0  read in
    real space projection operators read in
  non local Contribution for L=           0  read in
    real space projection operators read in
  non local Contribution for L=           1  read in
    real space projection operators read in
  non local Contribution for L=           1  read in
    real space projection operators read in
    PAW grid and wavefunctions read in
 
   number of l-projection  operators is LMAX  =           4
   number of lm-projection operators is LMMAX =           8
 
 POTCAR:    PAW_PBE O 08Apr2002                   
   VRHFIN =O: s2p4                                                              
   LEXCH  = PE                                                                  
   EATOM  =   432.3788 eV,   31.7789 Ry                                         
                                                                                
   TITEL  = PAW_PBE O 08Apr2002                                                 
   LULTRA =        F    use ultrasoft PP ?                                      
   IUNSCR =        1    unscreen: 0-lin 1-nonlin 2-no                           
   RPACOR =    1.200    partial core radius                                     
   POMASS =   16.000; ZVAL   =    6.000    mass and valenz                      
   RCORE  =    1.520    outmost cutoff radius                                   
   RWIGS  =    1.550; RWIGS  =    0.820    wigner-seitz radius (au A)           
   ENMAX  =  400.000; ENMIN  =  300.000 eV                                      
   ICORE  =        2    local potential                                         
   LCOR   =        T    correct aug charges                                     
   LPAW   =        T    paw PP                                                  
   EAUG   =  605.392                                                            
   DEXC   =    0.000                                                            
   RMAX   =    1.553    core radius for proj-oper                               
   RAUG   =    1.300    factor for augmentation sphere                          
   RDEP   =    1.550    radius for radial grids                                 
   RDEPT  =    1.329    core radius for aug-charge                              
                                                                                
   Atomic configuration                                                         
    4 entries                                                                   
     n  l   j            E        occ.                                          
     1  0  0.50      -514.6923   2.0000                                         
     2  0  0.50       -23.9615   2.0000                                         
     2  1  0.50        -9.0305   4.0000                                         
     3  2  1.50        -9.5241   0.0000                                         
   Description                                                                  
     l       E           TYP  RCUT    TYP  RCUT                                 
     0    -23.9615318     23  1.200                                             
     0     -9.5240782     23  1.200                                             
     1     -9.0304911     23  1.520                                             
     1      8.1634956     23  1.520                                             
     2     -9.5240782      7  1.500                                             
  local pseudopotential read in
  partial core-charges read in
  partial kinetic energy density read in
  kinetic energy density of atom read in
  atomic valenz-charges read in
  non local Contribution for L=           0  read in
    real space projection operators read in
  non local Contribution for L=           0  read in
    real space projection operators read in
  non local Contribution for L=           1  read in
    real space projection operators read in
  non local Contribution for L=           1  read in
    real space projection operators read in
    PAW grid and wavefunctions read in
 
   number of l-projection  operators is LMAX  =           4
   number of lm-projection operators is LMMAX =           8
 
  PAW_PBE Cu 22Jun2005                  :
 energy of atom  1       EATOM=-1390.9808
 kinetic energy error for atom=    0.0033 (will be added to EATOM!!)
  PAW_PBE C 08Apr2002                   :
 energy of atom  2       EATOM= -147.1560
 kinetic energy error for atom=    0.0057 (will be added to EATOM!!)
  PAW_PBE O 08Apr2002                   :
 energy of atom  3       EATOM= -432.3788
 kinetic energy error for atom=    0.0168 (will be added to EATOM!!)
 
 
 POSCAR: Cu13 C1 O1                              
  positions in cartesian coordinates
  No initial velocities read in
 exchange correlation table for  LEXCH =        8
   RHO(1)=    0.500       N(1)  =     2000
   RHO(2)=  100.500       N(2)  =     4000
 


--------------------------------------------------------------------------------------------------------


 ion  position               nearest neighbor table
   1  0.293  0.421  0.558-   8 2.41   6 2.44   9 2.45   3 2.49   2 2.49   7 2.56
   2  0.376  0.548  0.492-  10 2.40   7 2.43   8 2.45  11 2.46   1 2.49   4 2.52  13 2.56   9 2.57
                             6 2.66
   3  0.395  0.290  0.564-   7 2.47   6 2.47   1 2.49   5 2.51
   4  0.539  0.505  0.481-  12 2.31   7 2.50   2 2.52   5 2.52  13 2.55  11 2.55   6 2.64
   5  0.549  0.344  0.528-   6 2.48   3 2.51   7 2.52   4 2.52  12 2.66
   6  0.444  0.439  0.614-  13 2.37   9 2.42   1 2.44   3 2.47   5 2.48   4 2.64   2 2.66   7 2.69

   7  0.416  0.399  0.442-   2 2.43   3 2.47   4 2.50   5 2.52   1 2.56   6 2.69
   8  0.224  0.565  0.549-   9 2.30   1 2.41   2 2.45  10 2.65
   9  0.331  0.545  0.657-   8 2.30   6 2.42   1 2.45  13 2.48  10 2.51   2 2.57
  10  0.352  0.686  0.569-   2 2.40  11 2.47   9 2.51  13 2.54   8 2.65
  11  0.488  0.668  0.478-  13 2.37   2 2.46  10 2.47   4 2.55
  12  0.626  0.484  0.606-  14 1.86   4 2.31   5 2.66  13 2.68
  13  0.484  0.592  0.617-  11 2.37   6 2.37   9 2.48  10 2.54   4 2.55   2 2.56  12 2.68
  14  0.741  0.488  0.652-  15 1.19  12 1.86
  15  0.820  0.498  0.646-  14 1.19
 

IMPORTANT INFORMATION: All symmetrisations will be switched off!
NOSYMM: (Re-)initialisation of all symmetry stuff for point group C_1.

 
 

Automatic generation of k-mesh.
 generate k-points for:    1    1    1
Space group operators:
 irot       det(A)        alpha          n_x          n_y          n_z        tau_x        tau_y        tau_z
    1     1.000000     0.000000     1.000000     0.000000     0.000000     0.000000     0.000000     0.000000
 
 Subroutine IBZKPT returns following result:
 ===========================================
 
 Found      1 irreducible k-points:
 
 Following reciprocal coordinates:
            Coordinates               Weight
  0.000000  0.000000  0.000000      1.000000
 
 Following cartesian coordinates:
            Coordinates               Weight
  0.000000  0.000000  0.000000      1.000000
 


--------------------------------------------------------------------------------------------------------




 Dimension of arrays:
   k-points           NKPTS =      1   k-points in BZ     NKDIM =      1   number of bands    NBANDS=     92
   number of dos      NEDOS =    301   number of ions     NIONS =     15
   non local maximal  LDIM  =      6   non local SUM 2l+1 LMDIM =     18
   total plane-waves  NPLWV = ******
   max r-space proj   IRMAX =      1   max aug-charges    IRDMAX=  15028
   dimension x,y,z NGX =   120 NGY =  120 NGZ =  120
   dimension x,y,z NGXF=   240 NGYF=  240 NGZF=  240
   support grid    NGXF=   240 NGYF=  240 NGZF=  240
   ions per type =              13   1   1
   NGX,Y,Z   is equivalent  to a cutoff of  13.30, 13.30, 13.30 a.u.
   NGXF,Y,Z  is equivalent  to a cutoff of  26.60, 26.60, 26.60 a.u.

 SYSTEM =  CuCO                                    
 POSCAR =  Cu13 C1 O1                              

 Startparameter for this run:
   NWRITE =      2    write-flag & timer
   PREC   = accura    normal or accurate (medium, high low for compatibility)
   ISTART =      0    job   : 0-new  1-cont  2-samecut
   ICHARG =      2    charge: 1-file 2-atom 10-const
   ISPIN  =      2    spin polarized calculation?
   LNONCOLLINEAR =      F non collinear calculations
   LSORBIT =      F    spin-orbit coupling
   INIWAV =      1    electr: 0-lowe 1-rand  2-diag
   LASPH  =      F    aspherical Exc in radial PAW
   METAGGA=      F    non-selfconsistent MetaGGA calc.

 Electronic Relaxation 1
   ENCUT  =  600.0 eV  44.10 Ry    6.64 a.u.  29.96 29.96 29.96*2*pi/ulx,y,z
   ENINI  =  600.0     initial cutoff
   ENAUG  =  644.9 eV  augmentation charge cutoff
   NELM   =    300;   NELMIN=  3; NELMDL= -5     # of ELM steps 
   EDIFF  = 0.1E-06   stopping-criterion for ELM
   LREAL  =      F    real-space projection
   NLSPLINE    = F    spline interpolate recip. space projectors
   LCOMPAT=      F    compatible to vasp.4.4
   GGA_COMPAT  = T    GGA compatible to vasp.4.4-vasp.4.6
   LMAXPAW     = -100 max onsite density
   LMAXMIX     =    2 max onsite mixed and CHGCAR
   VOSKOWN=      0    Vosko Wilk Nusair interpolation
   ROPT   =    0.00000   0.00000   0.00000
 Ionic relaxation
   EDIFFG = -.1E-02   stopping-criterion for IOM
   NSW    =      0    number of steps for IOM
   NBLOCK =      1;   KBLOCK =      1    inner block; outer block 
   IBRION =     -1    ionic relax: 0-MD 1-quasi-New 2-CG
   NFREE  =      0    steps in history (QN), initial steepest desc. (CG)
   ISIF   =      2    stress and relaxation
   IWAVPR =     10    prediction:  0-non 1-charg 2-wave 3-comb
   ISYM   =      0    0-nonsym 1-usesym 2-fastsym
   LCORR  =      T    Harris-Foulkes like correction to forces

   POTIM  = 0.5000    time-step for ionic-motion
   TEIN   =    0.0    initial temperature
   TEBEG  =    0.0;   TEEND  =   0.0 temperature during run
   SMASS  =  -3.00    Nose mass-parameter (am)
   estimated Nose-frequenzy (Omega)   =  0.10E-29 period in steps =****** mass=  -0.514E-26a.u.
   SCALEE = 1.0000    scale energy and forces
   NPACO  =    256;   APACO  = 16.0  distance and # of slots for P.C.
   PSTRESS=    0.0 pullay stress

  Mass of Ions in am
   POMASS =  63.55 12.01 16.00
  Ionic Valenz
   ZVAL   =  11.00  4.00  6.00
  Atomic Wigner-Seitz radii
   RWIGS  =  -1.00 -1.00 -1.00
  virtual crystal weights 
   VCA    =   1.00  1.00  1.00
   NELECT =     153.0000    total number of electrons
   NUPDOWN=       1.0000    fix difference up-down

 DOS related values:
   EMIN   =  10.00;   EMAX   =-10.00  energy-range for DOS
   EFERMI =   0.00
   ISMEAR =     1;   SIGMA  =   0.10  broadening in eV -4-tet -1-fermi 0-gaus

 Electronic relaxation 2 (details)
   IALGO  =     68    algorithm
   LDIAG  =      T    sub-space diagonalisation (order eigenvalues)
   LSUBROT=      F    optimize rotation matrix (better conditioning)
   TURBO    =      0    0=normal 1=particle mesh
   IRESTART =      0    0=no restart 2=restart with 2 vectors
   NREBOOT  =      0    no. of reboots
   NMIN     =      0    reboot dimension
   EREF     =   0.00    reference energy to select bands
   IMIX   =      4    mixing-type and parameters
     AMIX     =   0.40;   BMIX     =  1.00
     AMIX_MAG =   1.60;   BMIX_MAG =  1.00
     AMIN     =   0.10
     WC   =   100.;   INIMIX=   1;  MIXPRE=   1;  MAXMIX= -45

 Intra band minimization:
   WEIMIN = 0.0000     energy-eigenvalue tresh-hold
   EBREAK =  0.27E-09  absolut break condition
   DEPER  =   0.30     relativ break condition  

   TIME   =   0.40     timestep for ELM

  volume/ion in A,a.u.               =     225.00      1518.37
  Fermi-wavevector in a.u.,A,eV,Ry     =   0.583733  1.103095  4.636102  0.340744
  Thomas-Fermi vector in A             =   1.629149
 
 Write flags
   LWAVE        =      F    write WAVECAR
   LDOWNSAMPLE  =      F    k-point downsampling of WAVECAR
   LCHARG       =      F    write CHGCAR
   LVTOT        =      F    write LOCPOT, total local potential
   LVHAR        =      F    write LOCPOT, Hartree potential only
   LELF         =      F    write electronic localiz. function (ELF)
   LORBIT       =      0    0 simple, 1 ext, 2 COOP (PROOUT), +10 PAW based schemes


 Dipole corrections
   LMONO  =      F    monopole corrections only (constant potential shift)
   LDIPOL =      F    correct potential (dipole corrections)
   IDIPOL =      0    1-x, 2-y, 3-z, 4-all directions 
   EPSILON=  1.0000000 bulk dielectric constant

 Exchange correlation treatment:
   GGA     =    PE    GGA type
   LEXCH   =     8    internal setting for exchange type
   VOSKOWN=      0    Vosko Wilk Nusair interpolation
   LHFCALC =     F    Hartree Fock is set to
   LHFONE  =     F    Hartree Fock one center treatment
   AEXX    =    0.0000 exact exchange contribution

 Linear response parameters
   LEPSILON=     F    determine dielectric tensor
   LRPA    =     F    only Hartree local field effects (RPA)
   LNABLA  =     F    use nabla operator in PAW spheres
   LVEL    =     F    velocity operator in full k-point grid
   LINTERFAST=   F  fast interpolation
   KINTER  =     0    interpolate to denser k-point grid
   CSHIFT  =0.1000    complex shift for real part using Kramers Kronig
   OMEGAMAX=  -1.0    maximum frequency
   DEG_THRESHOLD= 0.2000000E-02 threshold for treating states as degnerate
   RTIME   =   -0.100 relaxation time in fs
  (WPLASMAI=    0.000 imaginary part of plasma frequency in eV, 0.658/RTIME)
   DFIELD  = 0.0000000 0.0000000 0.0000000 field for delta impulse in time
 
 Orbital magnetization related:
   ORBITALMAG=     F  switch on orbital magnetization
   LCHIMAG   =     F  perturbation theory with respect to B field
   DQ        =  0.001000  dq finite difference perturbation B field
   LLRAUG    =     F  two centre corrections for induced B field



--------------------------------------------------------------------------------------------------------


 Static calculation
 charge density and potential will be updated during run
 spin polarized calculation
 RMM-DIIS sequential band-by-band and
  variant of blocked Davidson during initial phase
 perform sub-space diagonalisation
    before iterative eigenvector-optimisation
 modified Broyden-mixing scheme, WC =      100.0
 initial mixing is a Kerker type mixing with AMIX =  0.4000 and BMIX =      1.0000
 Hartree-type preconditioning will be used
 using additional bands           15
 reciprocal scheme for non local part
 use partial core corrections
 calculate Harris-corrections to forces 
   (improved forces if not selfconsistent)
 use gradient corrections 
 use of overlap-Matrix (Vanderbilt PP)
 Methfessel and Paxton  Order N= 1 SIGMA  =   0.10


--------------------------------------------------------------------------------------------------------


  energy-cutoff  :      600.00
  volume of cell :     3375.00
      direct lattice vectors                 reciprocal lattice vectors
    15.000000000  0.000000000  0.000000000     0.066666667  0.000000000  0.000000000
     0.000000000 15.000000000  0.000000000     0.000000000  0.066666667  0.000000000
     0.000000000  0.000000000 15.000000000     0.000000000  0.000000000  0.066666667

  length of vectors
    15.000000000 15.000000000 15.000000000     0.066666667  0.066666667  0.066666667


 
 k-points in units of 2pi/SCALE and weight: read from INCAR                         
   0.00000000  0.00000000  0.00000000       1.000
 
 k-points in reciprocal lattice and weights: read from INCAR                         
   0.00000000  0.00000000  0.00000000       1.000
 
 position of ions in fractional coordinates (direct lattice) 
   0.29283333  0.42079000  0.55811000
   0.37647200  0.54799333  0.49197467
   0.39466000  0.29016867  0.56377267
   0.53850933  0.50532533  0.48088067
   0.54900667  0.34423800  0.52840800
   0.44432533  0.43923200  0.61415333
   0.41581267  0.39893267  0.44205800
   0.22388000  0.56527867  0.54856667
   0.33054267  0.54520400  0.65683467
   0.35168267  0.68584000  0.56896600
   0.48788067  0.66767333  0.47839533
   0.62609000  0.48389133  0.60596467
   0.48430267  0.59202000  0.61676133
   0.74134000  0.48833733  0.65169000
   0.81955333  0.49799467  0.64600133
 
 position of ions in cartesian coordinates  (Angst):
   4.39250000  6.31185000  8.37165000
   5.64708000  8.21990000  7.37962000
   5.91990000  4.35253000  8.45659000
   8.07764000  7.57988000  7.21321000
   8.23510000  5.16357000  7.92612000
   6.66488000  6.58848000  9.21230000
   6.23719000  5.98399000  6.63087000
   3.35820000  8.47918000  8.22850000
   4.95814000  8.17806000  9.85252000
   5.27524000 10.28760000  8.53449000
   7.31821000 10.01510000  7.17593000
   9.39135000  7.25837000  9.08947000
   7.26454000  8.88030000  9.25142000
  11.12010000  7.32506000  9.77535000
  12.29330000  7.46992000  9.69002000
 


--------------------------------------------------------------------------------------------------------


 k-point  1 :   0.0000 0.0000 0.0000  plane waves:  112451

 maximum and minimum number of plane-waves per node :     18753    18726

 maximum number of plane-waves:    112451
 maximum index in each direction: 
   IXMAX=   29   IYMAX=   29   IZMAX=   29
   IXMIN=  -29   IYMIN=  -29   IZMIN=  -29


 parallel 3D FFT for wavefunctions:
    minimum data exchange during FFTs selected (reduces bandwidth)
 parallel 3D FFT for charge:
    minimum data exchange during FFTs selected (reduces bandwidth)


 total amount of memory used by VASP MPI-rank0   158680. kBytes
=======================================================================

   base      :      30000. kBytes
   nonl-proj :      12601. kBytes
   fftplans  :      27994. kBytes
   grid      :      74150. kBytes
   one-center:         93. kBytes
   wavefun   :      13842. kBytes
 
     INWAV:  cpu time    0.0000: real time    0.0001
 Broyden mixing: mesh for mixing (old mesh)
   NGX = 59   NGY = 59   NGZ = 59
  (NGX  =240   NGY  =240   NGZ  =240)
  gives a total of 205379 points

 initial charge density was supplied:
 charge density of overlapping atoms calculated
 number of electron     153.0000000 magnetization       1.0000000
 keeping initial charge density in first step


--------------------------------------------------------------------------------------------------------


 Maximum index for augmentation-charges          711 (set IRDMAX)


--------------------------------------------------------------------------------------------------------


 First call to EWALD:  gamma=   0.118
 Maximum number of real-space cells 3x 3x 3
 Maximum number of reciprocal cells 3x 3x 3

    FEWALD:  cpu time    0.0016: real time    0.0018


--------------------------------------- Iteration      1(   1)  ---------------------------------------


    POTLOK:  cpu time    1.1749: real time    1.1781
    SETDIJ:  cpu time    0.0168: real time    0.0168
     EDDAV:  cpu time    7.4286: real time    7.4549
       DOS:  cpu time    0.0011: real time    0.0011
    --------------------------------------------
      LOOP:  cpu time    8.6214: real time    8.6510

 eigenvalue-minimisations  :   376
 total energy-change (2. order) : 0.1114322E+04  (-0.4456979E+04)
 number of electron     153.0000000 magnetization       1.0000000
 augmentation part      153.0000000 magnetization       1.0000000

 Free energy of the ion-electron system (eV)
  ---------------------------------------------------
  alpha Z        PSCENC =        41.16232785
  Ewald energy   TEWEN  =     16088.47869272
  -Hartree energ DENC   =    -33119.48680390
  -exchange      EXHF   =         0.00000000
  -V(xc)+E(xc)   XCENC  =       622.91895771
  PAW double counting   =     16421.75059358   -17800.06104309
  entropy T*S    EENTRO =         0.00228827
  eigenvalues    EBANDS =       197.33756981
  atomic energy  EATOM  =     18662.21924712
  Solvation  Ediel_sol  =         0.00000000
  ---------------------------------------------------
  free energy    TOTEN  =      1114.32183008 eV

  energy without entropy =     1114.31954180  energy(sigma->0) =     1114.32106732


--------------------------------------------------------------------------------------------------------




--------------------------------------- Iteration      1(   2)  ---------------------------------------


     EDDAV:  cpu time    7.3438: real time    7.3489
       DOS:  cpu time    0.0003: real time    0.0003
    --------------------------------------------
      LOOP:  cpu time    7.3441: real time    7.3492

 eigenvalue-minimisations  :   368
 total energy-change (2. order) :-0.1026731E+04  (-0.9751715E+03)
 number of electron     153.0000000 magnetization       1.0000000
 augmentation part      153.0000000 magnetization       1.0000000

 Free energy of the ion-electron system (eV)
  ---------------------------------------------------
  alpha Z        PSCENC =        41.16232785
  Ewald energy   TEWEN  =     16088.47869272
  -Hartree energ DENC   =    -33119.48680390
  -exchange      EXHF   =         0.00000000
  -V(xc)+E(xc)   XCENC  =       622.91895771
  PAW double counting   =     16421.75059358   -17800.06104309
  entropy T*S    EENTRO =         0.00635463
  eigenvalues    EBANDS =      -829.39729919
  atomic energy  EATOM  =     18662.21924712
  Solvation  Ediel_sol  =         0.00000000
  ---------------------------------------------------
  free energy    TOTEN  =        87.59102744 eV

  energy without entropy =       87.58467281  energy(sigma->0) =       87.58890923


--------------------------------------------------------------------------------------------------------




--------------------------------------- Iteration      1(   3)  ---------------------------------------


     EDDAV:  cpu time   11.3130: real time   11.3190
       DOS:  cpu time    0.0003: real time    0.0003
    --------------------------------------------
      LOOP:  cpu time   11.3133: real time   11.3194

 eigenvalue-minimisations  :   640
 total energy-change (2. order) :-0.1197990E+03  (-0.1112382E+03)
 number of electron     153.0000000 magnetization       1.0000000
 augmentation part      153.0000000 magnetization       1.0000000

 Free energy of the ion-electron system (eV)
  ---------------------------------------------------
  alpha Z        PSCENC =        41.16232785
  Ewald energy   TEWEN  =     16088.47869272
  -Hartree energ DENC   =    -33119.48680390
  -exchange      EXHF   =         0.00000000
  -V(xc)+E(xc)   XCENC  =       622.91895771
  PAW double counting   =     16421.75059358   -17800.06104309
  entropy T*S    EENTRO =         0.00591423
  eigenvalues    EBANDS =      -949.19582957
  atomic energy  EATOM  =     18662.21924712
  Solvation  Ediel_sol  =         0.00000000
  ---------------------------------------------------
  free energy    TOTEN  =       -32.20794335 eV

  energy without entropy =      -32.21385757  energy(sigma->0) =      -32.20991476


--------------------------------------------------------------------------------------------------------




--------------------------------------- Iteration      1(   4)  ---------------------------------------


     EDDAV:  cpu time   10.0793: real time   10.0841
       DOS:  cpu time    0.0007: real time    0.0007
    --------------------------------------------
      LOOP:  cpu time   10.0800: real time   10.0848

 eigenvalue-minimisations  :   552
 total energy-change (2. order) :-0.2304952E+02  (-0.2267478E+02)
 number of electron     153.0000000 magnetization       1.0000000
 augmentation part      153.0000000 magnetization       1.0000000

 Free energy of the ion-electron system (eV)
  ---------------------------------------------------
  alpha Z        PSCENC =        41.16232785
  Ewald energy   TEWEN  =     16088.47869272
  -Hartree energ DENC   =    -33119.48680390
  -exchange      EXHF   =         0.00000000
  -V(xc)+E(xc)   XCENC  =       622.91895771
  PAW double counting   =     16421.75059358   -17800.06104309
  entropy T*S    EENTRO =         0.00936579
  eigenvalues    EBANDS =      -972.24880221
  atomic energy  EATOM  =     18662.21924712
  Solvation  Ediel_sol  =         0.00000000
  ---------------------------------------------------
  free energy    TOTEN  =       -55.25746442 eV

  energy without entropy =      -55.26683021  energy(sigma->0) =      -55.26058635


--------------------------------------------------------------------------------------------------------




--------------------------------------- Iteration      1(   5)  ---------------------------------------


     EDDAV:  cpu time   12.0550: real time   12.0596
       DOS:  cpu time    0.0005: real time    0.0005
    CHARGE:  cpu time    0.6628: real time    0.6631
    MIXING:  cpu time    0.0230: real time    0.0231
    --------------------------------------------
      LOOP:  cpu time   12.7413: real time   12.7463

 eigenvalue-minimisations  :   688
 total energy-change (2. order) :-0.1915822E+01  (-0.1721847E+01)
 number of electron     153.0000000 magnetization       1.0000000
 augmentation part       87.4659947 magnetization       0.3803661

 Broyden mixing:
  rms(total) = 0.23673E+01    rms(broyden)= 0.23672E+01
  rms(prec ) = 0.27264E+01
  weight for this iteration     100.00

 Free energy of the ion-electron system (eV)
  ---------------------------------------------------
  alpha Z        PSCENC =        41.16232785
  Ewald energy   TEWEN  =     16088.47869272
  -Hartree energ DENC   =    -33119.48680390
  -exchange      EXHF   =         0.00000000
  -V(xc)+E(xc)   XCENC  =       622.91895771
  PAW double counting   =     16421.75059358   -17800.06104309
  entropy T*S    EENTRO =         0.01053673
  eigenvalues    EBANDS =      -974.16579545
  atomic energy  EATOM  =     18662.21924712
  Solvation  Ediel_sol  =         0.00000000
  ---------------------------------------------------
  free energy    TOTEN  =       -57.17328672 eV

  energy without entropy =      -57.18382345  energy(sigma->0) =      -57.17679897


--------------------------------------------------------------------------------------------------------




--------------------------------------- Iteration      1(   6)  ---------------------------------------


    POTLOK:  cpu time    1.1611: real time    1.1643
    SETDIJ:  cpu time    0.0176: real time    0.0176
    EDDIAG:  cpu time    1.0919: real time    1.0926
  RMM-DIIS:  cpu time    7.6496: real time    7.6524
    ORTHCH:  cpu time    0.0584: real time    0.0584
       DOS:  cpu time    0.0006: real time    0.0006
    CHARGE:  cpu time    0.6324: real time    0.6326
    MIXING:  cpu time    0.0233: real time    0.0233
    --------------------------------------------
      LOOP:  cpu time   10.6349: real time   10.6419

 eigenvalue-minimisations  :   416
 total energy-change (2. order) : 0.5310791E+00  (-0.1232847E+02)
 number of electron     153.0000000 magnetization       1.0000000
 augmentation part       95.8106060 magnetization       0.0748937

 Broyden mixing:
  rms(total) = 0.15804E+01    rms(broyden)= 0.15802E+01
  rms(prec ) = 0.18248E+01
  weight for this iteration     100.00

 eigenvalues of (default mixing * dielectric matrix)
  average eigenvalue GAMMA=   0.6079
  0.6079

 Free energy of the ion-electron system (eV)
  ---------------------------------------------------
  alpha Z        PSCENC =        41.16232785
  Ewald energy   TEWEN  =     16088.47869272
  -Hartree energ DENC   =    -32862.69202805
  -exchange      EXHF   =         0.00000000
  -V(xc)+E(xc)   XCENC  =       610.71348564
  PAW double counting   =     16654.80770891   -17977.48185389
  entropy T*S    EENTRO =         0.00756652
  eigenvalues    EBANDS =     -1273.85735442
  atomic energy  EATOM  =     18662.21924712
  Solvation  Ediel_sol  =         0.00000000
  ---------------------------------------------------
  free energy    TOTEN  =       -56.64220760 eV

  energy without entropy =      -56.64977412  energy(sigma->0) =      -56.64472977


--------------------------------------------------------------------------------------------------------




--------------------------------------- Iteration      1(   7)  ---------------------------------------


    POTLOK:  cpu time    1.1592: real time    1.1607
    SETDIJ:  cpu time    0.0175: real time    0.0176
    EDDIAG:  cpu time    1.0923: real time    1.0930
  RMM-DIIS:  cpu time    6.5100: real time    6.5136
    ORTHCH:  cpu time    0.0589: real time    0.0589
       DOS:  cpu time    0.0005: real time    0.0005
    CHARGE:  cpu time    0.6436: real time    0.6438
    MIXING:  cpu time    0.0243: real time    0.0243
    --------------------------------------------
      LOOP:  cpu time    9.5064: real time    9.5123

 eigenvalue-minimisations  :   381
 total energy-change (2. order) : 0.7399028E+01  (-0.2537280E+01)
 number of electron     153.0000000 magnetization       1.0000000
 augmentation part       92.9643678 magnetization       0.1016796

 Broyden mixing:
  rms(total) = 0.40178E+00    rms(broyden)= 0.40175E+00
  rms(prec ) = 0.50428E+00
  weight for this iteration     100.00

 eigenvalues of (default mixing * dielectric matrix)
  average eigenvalue GAMMA=   0.8872
  1.0898  0.6846

 Free energy of the ion-electron system (eV)
  ---------------------------------------------------
  alpha Z        PSCENC =        41.16232785
  Ewald energy   TEWEN  =     16088.47869272
  -Hartree energ DENC   =    -32999.53942144
  -exchange      EXHF   =         0.00000000
  -V(xc)+E(xc)   XCENC  =       615.19437972
  PAW double counting   =     16982.78357645   -18355.58950289
  entropy T*S    EENTRO =         0.00850590
  eigenvalues    EBANDS =     -1083.96098505
  atomic energy  EATOM  =     18662.21924712
  Solvation  Ediel_sol  =         0.00000000
  ---------------------------------------------------
  free energy    TOTEN  =       -49.24317961 eV

  energy without entropy =      -49.25168551  energy(sigma->0) =      -49.24601491


--------------------------------------------------------------------------------------------------------




--------------------------------------- Iteration      1(   8)  ---------------------------------------


    POTLOK:  cpu time    1.1600: real time    1.1646
    SETDIJ:  cpu time    0.0173: real time    0.0173
    EDDIAG:  cpu time    1.0931: real time    1.0936
  RMM-DIIS:  cpu time    7.7365: real time    7.7551
    ORTHCH:  cpu time    0.0589: real time    0.0589
       DOS:  cpu time    0.0006: real time    0.0006
    CHARGE:  cpu time    0.6479: real time    0.6481
    MIXING:  cpu time    0.0241: real time    0.0241
    --------------------------------------------
      LOOP:  cpu time   10.7384: real time   10.7622

 eigenvalue-minimisations  :   429
 total energy-change (2. order) : 0.3167578E+00  (-0.4226657E+00)
 number of electron     153.0000000 magnetization       1.0000000
 augmentation part       92.1850154 magnetization       0.0993902

 Broyden mixing:
  rms(total) = 0.27900E+00    rms(broyden)= 0.27897E+00
  rms(prec ) = 0.31622E+00
  weight for this iteration     100.00

 eigenvalues of (default mixing * dielectric matrix)
  average eigenvalue GAMMA=   0.9052
  1.2858  0.7149  0.7149

 Free energy of the ion-electron system (eV)
  ---------------------------------------------------
  alpha Z        PSCENC =        41.16232785
  Ewald energy   TEWEN  =     16088.47869272
  -Hartree energ DENC   =    -33047.10045420
  -exchange      EXHF   =         0.00000000
  -V(xc)+E(xc)   XCENC  =       615.59634862
  PAW double counting   =     17295.66179766   -18686.75326714
  entropy T*S    EENTRO =         0.00897977
  eigenvalues    EBANDS =     -1018.20009420
  atomic energy  EATOM  =     18662.21924712
  Solvation  Ediel_sol  =         0.00000000
  ---------------------------------------------------
  free energy    TOTEN  =       -48.92642179 eV

  energy without entropy =      -48.93540156  energy(sigma->0) =      -48.92941505


--------------------------------------------------------------------------------------------------------




--------------------------------------- Iteration      1(   9)  ---------------------------------------


    POTLOK:  cpu time    1.1613: real time    1.1638
    SETDIJ:  cpu time    0.0167: real time    0.0166
    EDDIAG:  cpu time    1.0934: real time    1.0939
  RMM-DIIS:  cpu time    6.8869: real time    6.8928
    ORTHCH:  cpu time    0.0588: real time    0.0588
       DOS:  cpu time    0.0005: real time    0.0005
    CHARGE:  cpu time    0.6911: real time    0.6912
    MIXING:  cpu time    0.0248: real time    0.0248
    --------------------------------------------
      LOOP:  cpu time    9.9334: real time    9.9425

 eigenvalue-minimisations  :   415
 total energy-change (2. order) : 0.2695319E-01  (-0.9752698E-01)
 number of electron     153.0000000 magnetization       1.0000000
 augmentation part       92.3302689 magnetization       0.0874954

 Broyden mixing:
  rms(total) = 0.18769E+00    rms(broyden)= 0.18768E+00
  rms(prec ) = 0.22213E+00
  weight for this iteration     100.00

 eigenvalues of (default mixing * dielectric matrix)
  average eigenvalue GAMMA=   1.0121
  2.0041  0.7723  0.7723  0.4998

 Free energy of the ion-electron system (eV)
  ---------------------------------------------------
  alpha Z        PSCENC =        41.16232785
  Ewald energy   TEWEN  =     16088.47869272
  -Hartree energ DENC   =    -33046.77190585
  -exchange      EXHF   =         0.00000000
  -V(xc)+E(xc)   XCENC  =       615.17566622
  PAW double counting   =     17404.56509419   -18798.01634755
  entropy T*S    EENTRO =         0.00923277
  eigenvalues    EBANDS =     -1015.72147608
  atomic energy  EATOM  =     18662.21924712
  Solvation  Ediel_sol  =         0.00000000
  ---------------------------------------------------
  free energy    TOTEN  =       -48.89946861 eV

  energy without entropy =      -48.90870137  energy(sigma->0) =      -48.90254620


--------------------------------------------------------------------------------------------------------




--------------------------------------- Iteration      1(  10)  ---------------------------------------


    POTLOK:  cpu time    1.1604: real time    1.1622
    SETDIJ:  cpu time    0.0165: real time    0.0165
    EDDIAG:  cpu time    1.0913: real time    1.0918
  RMM-DIIS:  cpu time    7.3700: real time    7.3772
    ORTHCH:  cpu time    0.0573: real time    0.0573
       DOS:  cpu time    0.0004: real time    0.0004
    CHARGE:  cpu time    0.6926: real time    0.6930
    MIXING:  cpu time    0.0249: real time    0.0250
    --------------------------------------------
      LOOP:  cpu time   10.4135: real time   10.4233

 eigenvalue-minimisations  :   413
 total energy-change (2. order) : 0.6140930E-01  (-0.2251582E-01)
 number of electron     153.0000000 magnetization       1.0000000
 augmentation part       92.4719125 magnetization       0.0751047

 Broyden mixing:
  rms(total) = 0.56309E-01    rms(broyden)= 0.56303E-01
  rms(prec ) = 0.72588E-01
  weight for this iteration     100.00

 eigenvalues of (default mixing * dielectric matrix)
  average eigenvalue GAMMA=   1.0310
  2.0688  0.9183  0.8479  0.8479  0.4722

 Free energy of the ion-electron system (eV)
  ---------------------------------------------------
  alpha Z        PSCENC =        41.16232785
  Ewald energy   TEWEN  =     16088.47869272
  -Hartree energ DENC   =    -33046.27160856
  -exchange      EXHF   =         0.00000000
  -V(xc)+E(xc)   XCENC  =       614.81552634
  PAW double counting   =     17499.43428112   -18894.72401369
  entropy T*S    EENTRO =         0.00910257
  eigenvalues    EBANDS =     -1013.96161478
  atomic energy  EATOM  =     18662.21924712
  Solvation  Ediel_sol  =         0.00000000
  ---------------------------------------------------
  free energy    TOTEN  =       -48.83805931 eV

  energy without entropy =      -48.84716188  energy(sigma->0) =      -48.84109350


--------------------------------------------------------------------------------------------------------




--------------------------------------- Iteration      1(  11)  ---------------------------------------


    POTLOK:  cpu time    1.1604: real time    1.1607
    SETDIJ:  cpu time    0.0165: real time    0.0165
    EDDIAG:  cpu time    1.0908: real time    1.0915
  RMM-DIIS:  cpu time    7.0452: real time    7.0540
    ORTHCH:  cpu time    0.0554: real time    0.0555
       DOS:  cpu time    0.0004: real time    0.0004
    CHARGE:  cpu time    0.6873: real time    0.6875
    MIXING:  cpu time    0.0259: real time    0.0259
    --------------------------------------------
      LOOP:  cpu time   10.0819: real time   10.0920

 eigenvalue-minimisations  :   429
 total energy-change (2. order) : 0.6347202E-02  (-0.7800617E-02)
 number of electron     153.0000000 magnetization       1.0000000
 augmentation part       92.4163093 magnetization       0.0778824

 Broyden mixing:
  rms(total) = 0.46973E-01    rms(broyden)= 0.46971E-01
  rms(prec ) = 0.58649E-01
  weight for this iteration     100.00

 eigenvalues of (default mixing * dielectric matrix)
  average eigenvalue GAMMA=   1.0320
  2.1662  1.3957  0.7943  0.7943  0.5565  0.4849

 Free energy of the ion-electron system (eV)
  ---------------------------------------------------
  alpha Z        PSCENC =        41.16232785
  Ewald energy   TEWEN  =     16088.47869272
  -Hartree energ DENC   =    -33053.93218366
  -exchange      EXHF   =         0.00000000
  -V(xc)+E(xc)   XCENC  =       614.92320007
  PAW double counting   =     17550.43830012   -18947.97900204
  entropy T*S    EENTRO =         0.00924632
  eigenvalues    EBANDS =     -1004.15154061
  atomic energy  EATOM  =     18662.21924712
  Solvation  Ediel_sol  =         0.00000000
  ---------------------------------------------------
  free energy    TOTEN  =       -48.83171210 eV

  energy without entropy =      -48.84095842  energy(sigma->0) =      -48.83479421


--------------------------------------------------------------------------------------------------------




--------------------------------------- Iteration      1(  12)  ---------------------------------------


    POTLOK:  cpu time    1.1635: real time    1.1665
    SETDIJ:  cpu time    0.0164: real time    0.0164
    EDDIAG:  cpu time    1.0889: real time    1.0894
  RMM-DIIS:  cpu time    7.0054: real time    7.0135
    ORTHCH:  cpu time    0.0548: real time    0.0548
       DOS:  cpu time    0.0004: real time    0.0004
    CHARGE:  cpu time    0.6938: real time    0.6938
    MIXING:  cpu time    0.0273: real time    0.0273
    --------------------------------------------
      LOOP:  cpu time   10.0505: real time   10.0621

 eigenvalue-minimisations  :   417
 total energy-change (2. order) : 0.3685589E-02  (-0.2071023E-02)
 number of electron     153.0000000 magnetization       1.0000000
 augmentation part       92.4269741 magnetization       0.0774128

 Broyden mixing:
  rms(total) = 0.19672E-01    rms(broyden)= 0.19671E-01
  rms(prec ) = 0.30570E-01
  weight for this iteration     100.00

 eigenvalues of (default mixing * dielectric matrix)
  average eigenvalue GAMMA=   1.0527
  2.4104  1.5588  0.9179  0.7381  0.7381  0.5441  0.4618

 Free energy of the ion-electron system (eV)
  ---------------------------------------------------
  alpha Z        PSCENC =        41.16232785
  Ewald energy   TEWEN  =     16088.47869272
  -Hartree energ DENC   =    -33056.54603997
  -exchange      EXHF   =         0.00000000
  -V(xc)+E(xc)   XCENC  =       614.95010885
  PAW double counting   =     17560.80190774   -18958.68782972
  entropy T*S    EENTRO =         0.00918085
  eigenvalues    EBANDS =     -1001.21562195
  atomic energy  EATOM  =     18662.21924712
  Solvation  Ediel_sol  =         0.00000000
  ---------------------------------------------------
  free energy    TOTEN  =       -48.82802651 eV

  energy without entropy =      -48.83720736  energy(sigma->0) =      -48.83108680


--------------------------------------------------------------------------------------------------------




--------------------------------------- Iteration      1(  13)  ---------------------------------------


    POTLOK:  cpu time    1.1611: real time    1.1625
    SETDIJ:  cpu time    0.0167: real time    0.0167
    EDDIAG:  cpu time    1.0884: real time    1.0889
  RMM-DIIS:  cpu time    6.8683: real time    6.8748
    ORTHCH:  cpu time    0.0550: real time    0.0550
       DOS:  cpu time    0.0004: real time    0.0004
    CHARGE:  cpu time    0.6943: real time    0.6944
    MIXING:  cpu time    0.0271: real time    0.0271
    --------------------------------------------
      LOOP:  cpu time    9.9113: real time    9.9198

 eigenvalue-minimisations  :   416
 total energy-change (2. order) : 0.8047671E-03  (-0.6445953E-03)
 number of electron     153.0000000 magnetization       1.0000000
 augmentation part       92.4508219 magnetization       0.0779733

 Broyden mixing:
  rms(total) = 0.99043E-02    rms(broyden)= 0.99037E-02
  rms(prec ) = 0.19990E-01
  weight for this iteration     100.00

 eigenvalues of (default mixing * dielectric matrix)
  average eigenvalue GAMMA=   1.0896
  2.4223  1.8477  1.0154  1.0154  0.7188  0.7188  0.5315  0.4471

 Free energy of the ion-electron system (eV)
  ---------------------------------------------------
  alpha Z        PSCENC =        41.16232785
  Ewald energy   TEWEN  =     16088.47869272
  -Hartree energ DENC   =    -33059.44410403
  -exchange      EXHF   =         0.00000000
  -V(xc)+E(xc)   XCENC  =       614.94252760
  PAW double counting   =     17564.22378050   -18962.01684999
  entropy T*S    EENTRO =         0.00919626
  eigenvalues    EBANDS =      -998.40203978
  atomic energy  EATOM  =     18662.21924712
  Solvation  Ediel_sol  =         0.00000000
  ---------------------------------------------------
  free energy    TOTEN  =       -48.82722175 eV

  energy without entropy =      -48.83641800  energy(sigma->0) =      -48.83028717


--------------------------------------------------------------------------------------------------------




--------------------------------------- Iteration      1(  14)  ---------------------------------------


    POTLOK:  cpu time    1.1578: real time    1.1607
    SETDIJ:  cpu time    0.0173: real time    0.0173
    EDDIAG:  cpu time    1.0886: real time    1.0890
  RMM-DIIS:  cpu time    7.3966: real time    7.3996
    ORTHCH:  cpu time    0.0549: real time    0.0548
       DOS:  cpu time    0.0004: real time    0.0004
    CHARGE:  cpu time    0.6937: real time    0.6940
    MIXING:  cpu time    0.0287: real time    0.0287
    --------------------------------------------
      LOOP:  cpu time   10.4380: real time   10.4446

 eigenvalue-minimisations  :   446
 total energy-change (2. order) :-0.9383222E-03  (-0.3157142E-03)
 number of electron     153.0000000 magnetization       1.0000000
 augmentation part       92.4513664 magnetization       0.0785017

 Broyden mixing:
  rms(total) = 0.10610E-01    rms(broyden)= 0.10609E-01
  rms(prec ) = 0.16536E-01
  weight for this iteration     100.00

 eigenvalues of (default mixing * dielectric matrix)
  average eigenvalue GAMMA=   1.1073
  2.3207  2.3207  1.1589  0.9619  0.7855  0.7313  0.7313  0.5021  0.4536

 Free energy of the ion-electron system (eV)
  ---------------------------------------------------
  alpha Z        PSCENC =        41.16232785
  Ewald energy   TEWEN  =     16088.47869272
  -Hartree energ DENC   =    -33064.36504194
  -exchange      EXHF   =         0.00000000
  -V(xc)+E(xc)   XCENC  =       614.97885053
  PAW double counting   =     17558.17961694   -18955.74502566
  entropy T*S    EENTRO =         0.00920183
  eigenvalues    EBANDS =      -993.74602946
  atomic energy  EATOM  =     18662.21924712
  Solvation  Ediel_sol  =         0.00000000
  ---------------------------------------------------
  free energy    TOTEN  =       -48.82816007 eV

  energy without entropy =      -48.83736190  energy(sigma->0) =      -48.83122735


--------------------------------------------------------------------------------------------------------




--------------------------------------- Iteration      1(  15)  ---------------------------------------


    POTLOK:  cpu time    1.1633: real time    1.1655
    SETDIJ:  cpu time    0.0169: real time    0.0169
    EDDIAG:  cpu time    1.0885: real time    1.0891
  RMM-DIIS:  cpu time    6.5659: real time    6.5685
    ORTHCH:  cpu time    0.0552: real time    0.0552
       DOS:  cpu time    0.0004: real time    0.0004
    CHARGE:  cpu time    0.6933: real time    0.6935
    MIXING:  cpu time    0.0288: real time    0.0288
    --------------------------------------------
      LOOP:  cpu time    9.6123: real time    9.6180

 eigenvalue-minimisations  :   400
 total energy-change (2. order) :-0.9707445E-03  (-0.1494999E-03)
 number of electron     153.0000000 magnetization       1.0000000
 augmentation part       92.4426938 magnetization       0.0789191

 Broyden mixing:
  rms(total) = 0.51744E-02    rms(broyden)= 0.51741E-02
  rms(prec ) = 0.98951E-02
  weight for this iteration     100.00

 eigenvalues of (default mixing * dielectric matrix)
  average eigenvalue GAMMA=   1.1507
  2.6094  2.6094  1.1848  1.1848  0.9847  0.7120  0.7120  0.5727  0.4536  0.4833

 Free energy of the ion-electron system (eV)
  ---------------------------------------------------
  alpha Z        PSCENC =        41.16232785
  Ewald energy   TEWEN  =     16088.47869272
  -Hartree energ DENC   =    -33067.99094053
  -exchange      EXHF   =         0.00000000
  -V(xc)+E(xc)   XCENC  =       615.01967750
  PAW double counting   =     17553.48669729   -18950.99356224
  entropy T*S    EENTRO =         0.00919778
  eigenvalues    EBANDS =      -990.22046830
  atomic energy  EATOM  =     18662.21924712
  Solvation  Ediel_sol  =         0.00000000
  ---------------------------------------------------
  free energy    TOTEN  =       -48.82913081 eV

  energy without entropy =      -48.83832859  energy(sigma->0) =      -48.83219674


--------------------------------------------------------------------------------------------------------




--------------------------------------- Iteration      1(  16)  ---------------------------------------


    POTLOK:  cpu time    1.1608: real time    1.1613
    SETDIJ:  cpu time    0.0166: real time    0.0166
    EDDIAG:  cpu time    1.0893: real time    1.0897
  RMM-DIIS:  cpu time    7.0499: real time    7.0528
    ORTHCH:  cpu time    0.0554: real time    0.0554
       DOS:  cpu time    0.0004: real time    0.0004
    CHARGE:  cpu time    0.6882: real time    0.6885
    MIXING:  cpu time    0.0298: real time    0.0298
    --------------------------------------------
      LOOP:  cpu time   10.0905: real time   10.0945

 eigenvalue-minimisations  :   394
 total energy-change (2. order) :-0.1359505E-02  (-0.1038226E-03)
 number of electron     153.0000000 magnetization       1.0000000
 augmentation part       92.4376818 magnetization       0.0789610

 Broyden mixing:
  rms(total) = 0.58257E-02    rms(broyden)= 0.58255E-02
  rms(prec ) = 0.84801E-02
  weight for this iteration     100.00

 eigenvalues of (default mixing * dielectric matrix)
  average eigenvalue GAMMA=   1.1689
  2.8969  2.6944  1.2493  1.2493  0.9811  0.7592  0.7592  0.8011  0.4492  0.5216
  0.4972

 Free energy of the ion-electron system (eV)
  ---------------------------------------------------
  alpha Z        PSCENC =        41.16232785
  Ewald energy   TEWEN  =     16088.47869272
  -Hartree energ DENC   =    -33070.72210040
  -exchange      EXHF   =         0.00000000
  -V(xc)+E(xc)   XCENC  =       615.04818809
  PAW double counting   =     17550.35188049   -18947.84152579
  entropy T*S    EENTRO =         0.00921038
  eigenvalues    EBANDS =      -987.53641076
  atomic energy  EATOM  =     18662.21924712
  Solvation  Ediel_sol  =         0.00000000
  ---------------------------------------------------
  free energy    TOTEN  =       -48.83049032 eV

  energy without entropy =      -48.83970069  energy(sigma->0) =      -48.83356044


--------------------------------------------------------------------------------------------------------




--------------------------------------- Iteration      1(  17)  ---------------------------------------


    POTLOK:  cpu time    1.1614: real time    1.1626
    SETDIJ:  cpu time    0.0165: real time    0.0165
    EDDIAG:  cpu time    1.0887: real time    1.0892
  RMM-DIIS:  cpu time    6.6342: real time    6.6371
    ORTHCH:  cpu time    0.0555: real time    0.0555
       DOS:  cpu time    0.0004: real time    0.0004
    CHARGE:  cpu time    0.6889: real time    0.6892
    MIXING:  cpu time    0.0313: real time    0.0313
    --------------------------------------------
      LOOP:  cpu time    9.6768: real time    9.6818

 eigenvalue-minimisations  :   392
 total energy-change (2. order) :-0.1636208E-02  (-0.6214002E-04)
 number of electron     153.0000000 magnetization       1.0000000
 augmentation part       92.4453079 magnetization       0.0789438

 Broyden mixing:
  rms(total) = 0.31823E-02    rms(broyden)= 0.31819E-02
  rms(prec ) = 0.49655E-02
  weight for this iteration     100.00

 eigenvalues of (default mixing * dielectric matrix)
  average eigenvalue GAMMA=   1.2566
  3.7578  2.5789  1.7670  1.4510  0.9541  0.9541  0.7509  0.7509  0.6627  0.5225
  0.4511  0.4784

 Free energy of the ion-electron system (eV)
  ---------------------------------------------------
  alpha Z        PSCENC =        41.16232785
  Ewald energy   TEWEN  =     16088.47869272
  -Hartree energ DENC   =    -33072.60582506
  -exchange      EXHF   =         0.00000000
  -V(xc)+E(xc)   XCENC  =       615.05304140
  PAW double counting   =     17547.36821747   -18944.74525946
  entropy T*S    EENTRO =         0.00920946
  eigenvalues    EBANDS =      -985.77177803
  atomic energy  EATOM  =     18662.21924712
  Solvation  Ediel_sol  =         0.00000000
  ---------------------------------------------------
  free energy    TOTEN  =       -48.83212653 eV

  energy without entropy =      -48.84133598  energy(sigma->0) =      -48.83519635


--------------------------------------------------------------------------------------------------------




--------------------------------------- Iteration      1(  18)  ---------------------------------------


    POTLOK:  cpu time    1.1632: real time    1.1636
    SETDIJ:  cpu time    0.0165: real time    0.0165
    EDDIAG:  cpu time    1.0898: real time    1.0903
  RMM-DIIS:  cpu time    6.6971: real time    6.7006
    ORTHCH:  cpu time    0.0554: real time    0.0554
       DOS:  cpu time    0.0004: real time    0.0004
    CHARGE:  cpu time    0.6916: real time    0.6919
    MIXING:  cpu time    0.0323: real time    0.0323
    --------------------------------------------
      LOOP:  cpu time    9.7463: real time    9.7509

 eigenvalue-minimisations  :   400
 total energy-change (2. order) :-0.8862128E-03  (-0.2444046E-04)
 number of electron     153.0000000 magnetization       1.0000000
 augmentation part       92.4432809 magnetization       0.0790977

 Broyden mixing:
  rms(total) = 0.16714E-02    rms(broyden)= 0.16713E-02
  rms(prec ) = 0.29704E-02
  weight for this iteration     100.00

 eigenvalues of (default mixing * dielectric matrix)
  average eigenvalue GAMMA=   1.3448
  5.0119  2.6118  2.1635  1.4066  1.0071  1.0071  0.7571  0.7571  0.7434  0.5809
  0.5120  0.4505  0.4733

 Free energy of the ion-electron system (eV)
  ---------------------------------------------------
  alpha Z        PSCENC =        41.16232785
  Ewald energy   TEWEN  =     16088.47869272
  -Hartree energ DENC   =    -33073.73454565
  -exchange      EXHF   =         0.00000000
  -V(xc)+E(xc)   XCENC  =       615.05756749
  PAW double counting   =     17546.99939146   -18944.38907592
  entropy T*S    EENTRO =         0.00921215
  eigenvalues    EBANDS =      -984.63582995
  atomic energy  EATOM  =     18662.21924712
  Solvation  Ediel_sol  =         0.00000000
  ---------------------------------------------------
  free energy    TOTEN  =       -48.83301274 eV

  energy without entropy =      -48.84222488  energy(sigma->0) =      -48.83608345


--------------------------------------------------------------------------------------------------------




--------------------------------------- Iteration      1(  19)  ---------------------------------------


    POTLOK:  cpu time    1.1620: real time    1.1657
    SETDIJ:  cpu time    0.0166: real time    0.0166
    EDDIAG:  cpu time    1.0890: real time    1.0895
  RMM-DIIS:  cpu time    7.5260: real time    7.5309
    ORTHCH:  cpu time    0.0551: real time    0.0554
       DOS:  cpu time    0.0004: real time    0.0004
    CHARGE:  cpu time    0.6923: real time    0.6924
    MIXING:  cpu time    0.0339: real time    0.0339
    --------------------------------------------
      LOOP:  cpu time   10.5753: real time   10.5848

 eigenvalue-minimisations  :   433
 total energy-change (2. order) :-0.7184735E-03  (-0.1444706E-04)
 number of electron     153.0000000 magnetization       1.0000000
 augmentation part       92.4414202 magnetization       0.0791270

 Broyden mixing:
  rms(total) = 0.11172E-02    rms(broyden)= 0.11171E-02
  rms(prec ) = 0.20231E-02
  weight for this iteration     100.00

 eigenvalues of (default mixing * dielectric matrix)
  average eigenvalue GAMMA=   1.3772
  5.5857  2.6554  2.2107  1.3147  1.3147  1.0124  1.0124  0.7461  0.7461  0.6910
  0.5541  0.5105  0.4495  0.4772

 Free energy of the ion-electron system (eV)
  ---------------------------------------------------
  alpha Z        PSCENC =        41.16232785
  Ewald energy   TEWEN  =     16088.47869272
  -Hartree energ DENC   =    -33074.45421494
  -exchange      EXHF   =         0.00000000
  -V(xc)+E(xc)   XCENC  =       615.05943934
  PAW double counting   =     17546.92521504   -18944.33110365
  entropy T*S    EENTRO =         0.00921157
  eigenvalues    EBANDS =      -983.90254627
  atomic energy  EATOM  =     18662.21924712
  Solvation  Ediel_sol  =         0.00000000
  ---------------------------------------------------
  free energy    TOTEN  =       -48.83373121 eV

  energy without entropy =      -48.84294279  energy(sigma->0) =      -48.83680174


--------------------------------------------------------------------------------------------------------




--------------------------------------- Iteration      1(  20)  ---------------------------------------


    POTLOK:  cpu time    1.1629: real time    1.1643
    SETDIJ:  cpu time    0.0161: real time    0.0161
    EDDIAG:  cpu time    1.0885: real time    1.0889
  RMM-DIIS:  cpu time    7.1764: real time    7.1824
    ORTHCH:  cpu time    0.0553: real time    0.0553
       DOS:  cpu time    0.0004: real time    0.0004
    CHARGE:  cpu time    0.6880: real time    0.6884
    MIXING:  cpu time    0.0354: real time    0.0354
    --------------------------------------------
      LOOP:  cpu time   10.2231: real time   10.2312

 eigenvalue-minimisations  :   424
 total energy-change (2. order) :-0.6545682E-03  (-0.5123692E-05)
 number of electron     153.0000000 magnetization       1.0000000
 augmentation part       92.4406980 magnetization       0.0790669

 Broyden mixing:
  rms(total) = 0.93465E-03    rms(broyden)= 0.93465E-03
  rms(prec ) = 0.14817E-02
  weight for this iteration     100.00

 eigenvalues of (default mixing * dielectric matrix)
  average eigenvalue GAMMA=   1.4395
  6.2514  2.8067  2.2842  1.8784  1.4850  1.0063  1.0063  0.7657  0.7657  0.7239
  0.6473  0.5235  0.5235  0.4500  0.4742

 Free energy of the ion-electron system (eV)
  ---------------------------------------------------
  alpha Z        PSCENC =        41.16232785
  Ewald energy   TEWEN  =     16088.47869272
  -Hartree energ DENC   =    -33074.69894284
  -exchange      EXHF   =         0.00000000
  -V(xc)+E(xc)   XCENC  =       615.05917700
  PAW double counting   =     17547.36572265   -18944.79322463
  entropy T*S    EENTRO =         0.00921098
  eigenvalues    EBANDS =      -983.63659665
  atomic energy  EATOM  =     18662.21924712
  Solvation  Ediel_sol  =         0.00000000
  ---------------------------------------------------
  free energy    TOTEN  =       -48.83438578 eV

  energy without entropy =      -48.84359676  energy(sigma->0) =      -48.83745611


--------------------------------------------------------------------------------------------------------




--------------------------------------- Iteration      1(  21)  ---------------------------------------


    POTLOK:  cpu time    1.1605: real time    1.1608
    SETDIJ:  cpu time    0.0166: real time    0.0166
    EDDIAG:  cpu time    1.0890: real time    1.0893
  RMM-DIIS:  cpu time    6.7831: real time    6.7857
    ORTHCH:  cpu time    0.0566: real time    0.0566
       DOS:  cpu time    0.0004: real time    0.0004
    CHARGE:  cpu time    0.6892: real time    0.6894
    MIXING:  cpu time    0.0364: real time    0.0364
    --------------------------------------------
      LOOP:  cpu time    9.8317: real time    9.8352

 eigenvalue-minimisations  :   405
 total energy-change (2. order) :-0.3980474E-03  (-0.2991951E-05)
 number of electron     153.0000000 magnetization       1.0000000
 augmentation part       92.4419685 magnetization       0.0790888

 Broyden mixing:
  rms(total) = 0.54766E-03    rms(broyden)= 0.54756E-03
  rms(prec ) = 0.91007E-03
  weight for this iteration     100.00

 eigenvalues of (default mixing * dielectric matrix)
  average eigenvalue GAMMA=   1.4634
  6.6504  3.1060  2.4101  2.1028  1.3873  0.9864  0.9864  0.9938  0.7566  0.7566
  0.7123  0.5982  0.4501  0.5337  0.5102  0.4729

 Free energy of the ion-electron system (eV)
  ---------------------------------------------------
  alpha Z        PSCENC =        41.16232785
  Ewald energy   TEWEN  =     16088.47869272
  -Hartree energ DENC   =    -33074.71940228
  -exchange      EXHF   =         0.00000000
  -V(xc)+E(xc)   XCENC  =       615.05671589
  PAW double counting   =     17547.59523072   -18945.01988409
  entropy T*S    EENTRO =         0.00920848
  eigenvalues    EBANDS =      -983.61692023
  atomic energy  EATOM  =     18662.21924712
  Solvation  Ediel_sol  =         0.00000000
  ---------------------------------------------------
  free energy    TOTEN  =       -48.83478383 eV

  energy without entropy =      -48.84399231  energy(sigma->0) =      -48.83785332


--------------------------------------------------------------------------------------------------------




--------------------------------------- Iteration      1(  22)  ---------------------------------------


    POTLOK:  cpu time    1.1611: real time    1.1638
    SETDIJ:  cpu time    0.0172: real time    0.0172
    EDDIAG:  cpu time    1.0894: real time    1.0900
  RMM-DIIS:  cpu time    6.7112: real time    6.7139
    ORTHCH:  cpu time    0.0564: real time    0.0564
       DOS:  cpu time    0.0004: real time    0.0004
    CHARGE:  cpu time    0.6915: real time    0.6916
    MIXING:  cpu time    0.0383: real time    0.0383
    --------------------------------------------
      LOOP:  cpu time    9.7655: real time    9.7714

 eigenvalue-minimisations  :   402
 total energy-change (2. order) :-0.2619255E-03  (-0.1634072E-05)
 number of electron     153.0000000 magnetization       1.0000000
 augmentation part       92.4426662 magnetization       0.0791178

 Broyden mixing:
  rms(total) = 0.39037E-03    rms(broyden)= 0.39036E-03
  rms(prec ) = 0.61348E-03
  weight for this iteration     100.00

 eigenvalues of (default mixing * dielectric matrix)
  average eigenvalue GAMMA=   1.5244
  7.0467  3.7294  2.4991  2.1301  1.4977  1.4977  1.0155  1.0155  0.7738  0.7738
  0.7119  0.7119  0.4498  0.5609  0.4748  0.5196  0.5073

 Free energy of the ion-electron system (eV)
  ---------------------------------------------------
  alpha Z        PSCENC =        41.16232785
  Ewald energy   TEWEN  =     16088.47869272
  -Hartree energ DENC   =    -33074.73128212
  -exchange      EXHF   =         0.00000000
  -V(xc)+E(xc)   XCENC  =       615.05482151
  PAW double counting   =     17547.74063326   -18945.15984529
  entropy T*S    EENTRO =         0.00920943
  eigenvalues    EBANDS =      -983.60885023
  atomic energy  EATOM  =     18662.21924712
  Solvation  Ediel_sol  =         0.00000000
  ---------------------------------------------------
  free energy    TOTEN  =       -48.83504575 eV

  energy without entropy =      -48.84425518  energy(sigma->0) =      -48.83811556


--------------------------------------------------------------------------------------------------------




--------------------------------------- Iteration      1(  23)  ---------------------------------------


    POTLOK:  cpu time    1.1613: real time    1.1620
    SETDIJ:  cpu time    0.0164: real time    0.0164
    EDDIAG:  cpu time    1.0900: real time    1.0904
  RMM-DIIS:  cpu time    6.4511: real time    6.4537
    ORTHCH:  cpu time    0.0566: real time    0.0566
       DOS:  cpu time    0.0004: real time    0.0004
    CHARGE:  cpu time    0.6897: real time    0.6900
    MIXING:  cpu time    0.0410: real time    0.0410
    --------------------------------------------
      LOOP:  cpu time    9.5067: real time    9.5105

 eigenvalue-minimisations  :   401
 total energy-change (2. order) :-0.1959953E-03  (-0.1295007E-05)
 number of electron     153.0000000 magnetization       1.0000000
 augmentation part       92.4424995 magnetization       0.0791212

 Broyden mixing:
  rms(total) = 0.25945E-03    rms(broyden)= 0.25943E-03
  rms(prec ) = 0.39175E-03
  weight for this iteration     100.00

 eigenvalues of (default mixing * dielectric matrix)
  average eigenvalue GAMMA=   1.5597
  7.4569  4.2966  2.5083  2.2261  1.7424  1.3773  0.9930  0.9930  1.0357  0.7581
  0.7581  0.7706  0.6562  0.5605  0.4500  0.4730  0.5091  0.5091

 Free energy of the ion-electron system (eV)
  ---------------------------------------------------
  alpha Z        PSCENC =        41.16232785
  Ewald energy   TEWEN  =     16088.47869272
  -Hartree energ DENC   =    -33074.78354855
  -exchange      EXHF   =         0.00000000
  -V(xc)+E(xc)   XCENC  =       615.05460258
  PAW double counting   =     17547.78298375   -18945.20163888
  entropy T*S    EENTRO =         0.00920952
  eigenvalues    EBANDS =      -983.55711786
  atomic energy  EATOM  =     18662.21924712
  Solvation  Ediel_sol  =         0.00000000
  ---------------------------------------------------
  free energy    TOTEN  =       -48.83524175 eV

  energy without entropy =      -48.84445126  energy(sigma->0) =      -48.83831159


--------------------------------------------------------------------------------------------------------




--------------------------------------- Iteration      1(  24)  ---------------------------------------


    POTLOK:  cpu time    1.1618: real time    1.1630
    SETDIJ:  cpu time    0.0171: real time    0.0171
    EDDIAG:  cpu time    1.0890: real time    1.0897
  RMM-DIIS:  cpu time    6.4551: real time    6.4576
    ORTHCH:  cpu time    0.0566: real time    0.0566
       DOS:  cpu time    0.0004: real time    0.0004
    CHARGE:  cpu time    0.6909: real time    0.6912
    MIXING:  cpu time    0.0423: real time    0.0423
    --------------------------------------------
      LOOP:  cpu time    9.5131: real time    9.5179

 eigenvalue-minimisations  :   396
 total energy-change (2. order) :-0.8183184E-04  (-0.5196628E-06)
 number of electron     153.0000000 magnetization       1.0000000
 augmentation part       92.4419140 magnetization       0.0790985

 Broyden mixing:
  rms(total) = 0.13568E-03    rms(broyden)= 0.13568E-03
  rms(prec ) = 0.23262E-03
  weight for this iteration     100.00

 eigenvalues of (default mixing * dielectric matrix)
  average eigenvalue GAMMA=   1.5704
  7.7066  4.5622  2.4334  2.3706  1.8454  1.3565  1.3565  1.0107  1.0107  0.7933
  0.7933  0.7320  0.7320  0.6164  0.4499  0.5655  0.4732  0.5143  0.5143

 Free energy of the ion-electron system (eV)
  ---------------------------------------------------
  alpha Z        PSCENC =        41.16232785
  Ewald energy   TEWEN  =     16088.47869272
  -Hartree energ DENC   =    -33074.82630479
  -exchange      EXHF   =         0.00000000
  -V(xc)+E(xc)   XCENC  =       615.05552165
  PAW double counting   =     17547.75882669   -18945.18216662
  entropy T*S    EENTRO =         0.00920977
  eigenvalues    EBANDS =      -983.51067798
  atomic energy  EATOM  =     18662.21924712
  Solvation  Ediel_sol  =         0.00000000
  ---------------------------------------------------
  free energy    TOTEN  =       -48.83532358 eV

  energy without entropy =      -48.84453335  energy(sigma->0) =      -48.83839350


--------------------------------------------------------------------------------------------------------




--------------------------------------- Iteration      1(  25)  ---------------------------------------


    POTLOK:  cpu time    1.1617: real time    1.1622
    SETDIJ:  cpu time    0.0167: real time    0.0167
    EDDIAG:  cpu time    1.0887: real time    1.0892
  RMM-DIIS:  cpu time    6.3202: real time    6.3227
    ORTHCH:  cpu time    0.0567: real time    0.0567
       DOS:  cpu time    0.0004: real time    0.0004
    CHARGE:  cpu time    0.6889: real time    0.6891
    MIXING:  cpu time    0.0450: real time    0.0450
    --------------------------------------------
      LOOP:  cpu time    9.3783: real time    9.3821

 eigenvalue-minimisations  :   392
 total energy-change (2. order) :-0.7287245E-04  (-0.5890438E-06)
 number of electron     153.0000000 magnetization       1.0000000
 augmentation part       92.4418381 magnetization       0.0790992

 Broyden mixing:
  rms(total) = 0.13232E-03    rms(broyden)= 0.13232E-03
  rms(prec ) = 0.19484E-03
  weight for this iteration     100.00

 eigenvalues of (default mixing * dielectric matrix)
  average eigenvalue GAMMA=   1.6104
  8.0276  4.8848  2.5916  2.5916  1.9314  1.5203  1.5203  0.9971  0.9971  0.9711
  0.7537  0.7537  0.7879  0.7343  0.6297  0.4499  0.5668  0.4732  0.5128  0.5128

 Free energy of the ion-electron system (eV)
  ---------------------------------------------------
  alpha Z        PSCENC =        41.16232785
  Ewald energy   TEWEN  =     16088.47869272
  -Hartree energ DENC   =    -33074.83679086
  -exchange      EXHF   =         0.00000000
  -V(xc)+E(xc)   XCENC  =       615.05563235
  PAW double counting   =     17547.68126370   -18945.10363543
  entropy T*S    EENTRO =         0.00920979
  eigenvalues    EBANDS =      -983.50134370
  atomic energy  EATOM  =     18662.21924712
  Solvation  Ediel_sol  =         0.00000000
  ---------------------------------------------------
  free energy    TOTEN  =       -48.83539645 eV

  energy without entropy =      -48.84460624  energy(sigma->0) =      -48.83846638


--------------------------------------------------------------------------------------------------------




--------------------------------------- Iteration      1(  26)  ---------------------------------------


    POTLOK:  cpu time    1.1607: real time    1.1639
    SETDIJ:  cpu time    0.0168: real time    0.0168
    EDDIAG:  cpu time    1.0893: real time    1.0900
  RMM-DIIS:  cpu time    6.3070: real time    6.3094
    ORTHCH:  cpu time    0.0550: real time    0.0550
       DOS:  cpu time    0.0004: real time    0.0004
    CHARGE:  cpu time    0.6899: real time    0.6900
    MIXING:  cpu time    0.0479: real time    0.0479
    --------------------------------------------
      LOOP:  cpu time    9.3670: real time    9.3735

 eigenvalue-minimisations  :   381
 total energy-change (2. order) :-0.3822237E-04  (-0.3753125E-06)
 number of electron     153.0000000 magnetization       1.0000000
 augmentation part       92.4420987 magnetization       0.0791183

 Broyden mixing:
  rms(total) = 0.65613E-04    rms(broyden)= 0.65604E-04
  rms(prec ) = 0.10144E-03
  weight for this iteration     100.00

 eigenvalues of (default mixing * dielectric matrix)
  average eigenvalue GAMMA=   1.6317
  8.1968  5.3056  2.9717  2.5610  2.0090  1.7800  1.2651  1.2651  1.0055  1.0055
  0.8079  0.8079  0.7384  0.7384  0.6490  0.6490  0.4499  0.5646  0.4731  0.5117
  0.5117

 Free energy of the ion-electron system (eV)
  ---------------------------------------------------
  alpha Z        PSCENC =        41.16232785
  Ewald energy   TEWEN  =     16088.47869272
  -Hartree energ DENC   =    -33074.81934580
  -exchange      EXHF   =         0.00000000
  -V(xc)+E(xc)   XCENC  =       615.05523387
  PAW double counting   =     17547.60467878   -18945.02294805
  entropy T*S    EENTRO =         0.00920973
  eigenvalues    EBANDS =      -983.52253090
  atomic energy  EATOM  =     18662.21924712
  Solvation  Ediel_sol  =         0.00000000
  ---------------------------------------------------
  free energy    TOTEN  =       -48.83543468 eV

  energy without entropy =      -48.84464441  energy(sigma->0) =      -48.83850459


--------------------------------------------------------------------------------------------------------




--------------------------------------- Iteration      1(  27)  ---------------------------------------


    POTLOK:  cpu time    1.1605: real time    1.1610
    SETDIJ:  cpu time    0.0162: real time    0.0162
    EDDIAG:  cpu time    1.0901: real time    1.0906
  RMM-DIIS:  cpu time    4.8797: real time    4.8814
    ORTHCH:  cpu time    0.0552: real time    0.0552
       DOS:  cpu time    0.0004: real time    0.0004
    CHARGE:  cpu time    0.6874: real time    0.6876
    MIXING:  cpu time    0.0514: real time    0.0514
    --------------------------------------------
      LOOP:  cpu time    7.9408: real time    7.9439

 eigenvalue-minimisations  :   286
 total energy-change (2. order) :-0.1093852E-04  (-0.1059757E-06)
 number of electron     153.0000000 magnetization       1.0000000
 augmentation part       92.4422570 magnetization       0.0791093

 Broyden mixing:
  rms(total) = 0.78255E-04    rms(broyden)= 0.78253E-04
  rms(prec ) = 0.10142E-03
  weight for this iteration     100.00

 eigenvalues of (default mixing * dielectric matrix)
  average eigenvalue GAMMA=   1.6159
  8.2327  5.5414  3.1318  2.5057  2.0682  1.7460  1.3461  1.3461  1.0118  1.0118
  0.8766  0.8766  0.7488  0.7488  0.6537  0.6537  0.4499  0.4733  0.5545  0.5545
  0.5093  0.5093

 Free energy of the ion-electron system (eV)
  ---------------------------------------------------
  alpha Z        PSCENC =        41.16232785
  Ewald energy   TEWEN  =     16088.47869272
  -Hartree energ DENC   =    -33074.81395695
  -exchange      EXHF   =         0.00000000
  -V(xc)+E(xc)   XCENC  =       615.05506347
  PAW double counting   =     17547.59721516   -18945.01455864
  entropy T*S    EENTRO =         0.00920970
  eigenvalues    EBANDS =      -983.52868606
  atomic energy  EATOM  =     18662.21924712
  Solvation  Ediel_sol  =         0.00000000
  ---------------------------------------------------
  free energy    TOTEN  =       -48.83544561 eV

  energy without entropy =      -48.84465532  energy(sigma->0) =      -48.83851552


--------------------------------------------------------------------------------------------------------




--------------------------------------- Iteration      1(  28)  ---------------------------------------


    POTLOK:  cpu time    1.1594: real time    1.1609
    SETDIJ:  cpu time    0.0169: real time    0.0169
    EDDIAG:  cpu time    1.0885: real time    1.0889
  RMM-DIIS:  cpu time    4.5428: real time    4.5447
    ORTHCH:  cpu time    0.0555: real time    0.0555
       DOS:  cpu time    0.0004: real time    0.0004
    CHARGE:  cpu time    0.6871: real time    0.6874
    MIXING:  cpu time    0.0559: real time    0.0559
[...]
     66      -4.9336      1.00000
     67      -4.9065      1.00000
     68      -4.8959      1.00000
     69      -4.8866      1.00000
     70      -4.8493      1.00000
     71      -4.8368      1.00000
     72      -4.7948      1.00000
     73      -4.7528      1.00000
     74      -4.5283      1.00000
     75      -4.2224      1.00000
     76      -4.1299      1.00000
     77      -3.6166      1.00000
     78      -3.0021     -0.00000
     79      -2.8953     -0.00000
     80      -2.6055     -0.00000
     81      -2.3505     -0.00000
     82      -2.0188     -0.00000
     83      -1.9361     -0.00000
     84      -1.8247     -0.00000
     85      -1.4372     -0.00000
     86      -1.0792     -0.00000
     87      -0.9593     -0.00000
     88      -0.7740      0.00000
     89      -0.4332      0.00000
     90      -0.3259      0.00000
     91       0.0583      0.00000
     92       0.0852      0.00000

 spin component 2

 k-point     1 :       0.0000    0.0000    0.0000
  band No.  band energies     occupation 
      1     -27.8348      1.00000
      2     -13.6558      1.00000
      3     -11.0033      1.00000
      4     -10.6930      1.00000
      5     -10.4494      1.00000
      6     -10.0470      1.00000
      7      -8.4758      1.00000
      8      -8.1655      1.00000
      9      -7.6140      1.00000
     10      -7.4326      1.00000
     11      -7.3412      1.00000
     12      -7.2396      1.00000
     13      -7.1750      1.00000
     14      -7.0685      1.00000
     15      -6.9686      1.00000
     16      -6.8533      1.00000
     17      -6.7391      1.00000
     18      -6.6780      1.00000
     19      -6.6323      1.00000
     20      -6.5401      1.00000
     21      -6.5034      1.00000
     22      -6.4897      1.00000
     23      -6.4459      1.00000
     24      -6.3911      1.00000
     25      -6.3804      1.00000
     26      -6.3205      1.00000
     27      -6.2604      1.00000
     28      -6.2400      1.00000
     29      -6.2028      1.00000
     30      -6.1934      1.00000
     31      -6.0991      1.00000
     32      -6.0828      1.00000
     33      -6.0006      1.00000
     34      -5.9639      1.00000
     35      -5.9261      1.00000
     36      -5.7996      1.00000
     37      -5.7728      1.00000
     38      -5.6887      1.00000
     39      -5.6471      1.00000
     40      -5.5899      1.00000
     41      -5.5672      1.00000
     42      -5.5079      1.00000
     43      -5.4840      1.00000
     44      -5.4500      1.00000
     45      -5.4354      1.00000
     46      -5.3830      1.00000
     47      -5.3753      1.00000
     48      -5.3416      1.00000
     49      -5.3359      1.00000
     50      -5.3167      1.00000
     51      -5.2894      1.00000
     52      -5.2546      1.00000
     53      -5.2120      1.00000
     54      -5.2057      1.00000
     55      -5.1836      1.00000
     56      -5.1557      1.00000
     57      -5.1443      1.00000
     58      -5.1250      1.00000
     59      -5.1078      1.00000
     60      -5.0656      1.00000
     61      -5.0520      1.00000
     62      -5.0068      1.00000
     63      -4.9976      1.00000
     64      -4.9644      1.00000
     65      -4.9247      1.00000
     66      -4.9080      1.00000
     67      -4.8727      1.00000
     68      -4.8636      1.00000
     69      -4.8604      1.00000
     70      -4.8192      1.00000
     71      -4.8012      1.00000
     72      -4.7678      1.00000
     73      -4.7259      1.00000
     74      -4.4874      1.00000
     75      -4.1583      1.03309
     76      -4.0943      0.96691
     77      -3.4110     -0.00000
     78      -2.9499     -0.00000
     79      -2.8424     -0.00000
     80      -2.5184     -0.00000
     81      -2.2460     -0.00000
     82      -1.9885     -0.00000
     83      -1.8514     -0.00000
     84      -1.7570     -0.00000
     85      -1.3238     -0.00000
     86      -0.9498      0.00000
     87      -0.8888      0.00000
     88      -0.7054      0.00000
     89      -0.3351      0.00000
     90      -0.2672      0.00000
     91      -0.0937      0.00000
     92       0.1292      0.00000


--------------------------------------------------------------------------------------------------------


 soft charge-density along one line, spin component           1
         0         1         2         3         4         5         6         7         8         9
 total charge-density along one line
 
 soft charge-density along one line, spin component           2
         0         1         2         3         4         5         6         7         8         9
 total charge-density along one line
 
 pseudopotential strength for first ion, spin component:           1
-10.578   0.000  -0.017  -0.001  -0.010   1.067  -0.000   0.015
  0.000 -10.553  -0.008   0.008   0.006  -0.000   1.048   0.006
 -0.017  -0.008 -10.534   0.002  -0.011   0.015   0.006   1.033
 -0.001   0.008   0.002 -10.537  -0.005   0.000  -0.008  -0.002
 -0.010   0.006  -0.011  -0.005 -10.561   0.008  -0.005   0.010
  1.067  -0.000   0.015   0.000   0.008   6.257   0.000  -0.012
 -0.000   1.048   0.006  -0.008  -0.005   0.000   6.267  -0.004
  0.015   0.006   1.033  -0.002   0.010  -0.012  -0.004   6.279
  0.000  -0.008  -0.002   1.034   0.004  -0.000   0.008   0.001
  0.008  -0.005   0.010   0.004   1.054  -0.005   0.003  -0.007
 -0.007   0.001  -0.005   0.000  -0.004   0.005   0.000  -0.000
 -0.014   0.002  -0.010   0.000  -0.008   0.010   0.001  -0.001
 -0.012   0.000   0.004  -0.000   0.009   0.008   0.001  -0.004
 -0.000  -0.007   0.000  -0.012  -0.000   0.000   0.005   0.000
 -0.005  -0.000   0.007   0.000  -0.012   0.003   0.000  -0.006
 -0.013   0.000   0.004  -0.000   0.010   0.008   0.001  -0.004
 -0.000  -0.006   0.000  -0.012  -0.000   0.001   0.005   0.000
 -0.005  -0.000   0.008   0.000  -0.013   0.002   0.001  -0.006
 pseudopotential strength for first ion, spin component:           2
-10.533  -0.002  -0.008  -0.008   0.004   1.031   0.001   0.007
 -0.002 -10.539  -0.009   0.007   0.004   0.001   1.036   0.006
 -0.008  -0.009 -10.519   0.001  -0.008   0.007   0.006   1.020
 -0.008   0.007   0.001 -10.522  -0.008   0.006  -0.006  -0.001
  0.004   0.004  -0.008  -0.008 -10.544  -0.003  -0.003   0.006
  1.031   0.001   0.007   0.006  -0.003   6.280  -0.000  -0.005
  0.001   1.036   0.006  -0.006  -0.003  -0.000   6.275  -0.004
  0.007   0.006   1.020  -0.001   0.006  -0.005  -0.004   6.286
  0.006  -0.006  -0.001   1.022   0.006  -0.004   0.005   0.001
 -0.003  -0.003   0.006   0.006   1.040   0.002   0.002  -0.004
 -0.003   0.002  -0.002   0.000  -0.003   0.001   0.000  -0.002
 -0.006   0.003  -0.004   0.000  -0.005   0.002   0.001  -0.003
 -0.014   0.001   0.005   0.000   0.008   0.012  -0.000  -0.005
  0.000  -0.008   0.001  -0.013   0.000  -0.000   0.007  -0.001
 -0.009   0.000   0.008   0.001  -0.013   0.008  -0.000  -0.007
 -0.016   0.001   0.006   0.001   0.008   0.013  -0.000  -0.006
  0.001  -0.008   0.001  -0.015   0.000  -0.000   0.008  -0.001
 -0.010   0.001   0.009   0.002  -0.015   0.009  -0.000  -0.008
 total augmentation occupancy for first ion, spin component:           1
  1.932   0.005  -0.007   0.002  -0.003  -0.012  -0.001   0.007   0.000   0.003  -0.015   0.013   0.032  -0.001   0.038  -0.019
  0.005   1.928  -0.007   0.008  -0.001  -0.001  -0.018   0.006  -0.001  -0.001  -0.001  -0.001   0.003   0.042  -0.003  -0.000
 -0.007  -0.007   1.945   0.003  -0.004   0.007   0.006  -0.027  -0.004   0.003  -0.012   0.009  -0.012  -0.000  -0.017   0.006
  0.002   0.008   0.003   1.938  -0.005   0.000  -0.001  -0.004  -0.022   0.004   0.009   0.001   0.007   0.057   0.002  -0.000
 -0.003  -0.001  -0.004  -0.005   1.938   0.003  -0.001   0.003   0.004  -0.014  -0.006   0.006  -0.013   0.007   0.035   0.012
 -0.012  -0.001   0.007   0.000   0.003   0.015   0.000   0.002   0.001   0.001  -0.025  -0.000   0.020   0.001   0.011  -0.001
 -0.001  -0.018   0.006  -0.001  -0.001   0.000   0.009   0.000   0.001  -0.001   0.012  -0.001   0.002   0.014   0.002  -0.000
  0.007   0.006  -0.027  -0.004   0.003   0.002   0.000   0.007  -0.000   0.001  -0.038   0.005  -0.007  -0.001  -0.007   0.001
  0.000  -0.001  -0.004  -0.022   0.004   0.001   0.001  -0.000   0.009  -0.001  -0.001   0.000  -0.000   0.020   0.000  -0.000
  0.003  -0.001   0.003   0.004  -0.014   0.001  -0.001   0.001  -0.001   0.013  -0.017   0.001  -0.021  -0.003   0.022   0.002
 -0.015  -0.001  -0.012   0.009  -0.006  -0.025   0.012  -0.038  -0.001  -0.017   1.666  -0.120   0.138   0.006   0.179  -0.018
  0.013  -0.001   0.009   0.001   0.006  -0.000  -0.001   0.005   0.000   0.001  -0.120   0.014  -0.019   0.000  -0.026   0.002
  0.032   0.003  -0.012   0.007  -0.013   0.020   0.002  -0.007  -0.000  -0.021   0.138  -0.019   0.190   0.005  -0.039  -0.012
 -0.001   0.042  -0.000   0.057   0.007   0.001   0.014  -0.001   0.020  -0.003   0.006   0.000   0.005   0.094  -0.004  -0.001
  0.038  -0.003  -0.017   0.002   0.035   0.011   0.002  -0.007   0.000   0.022   0.179  -0.026  -0.039  -0.004   0.145   0.001
 -0.019  -0.000   0.006  -0.000   0.012  -0.001  -0.000   0.001  -0.000   0.002  -0.018   0.002  -0.012  -0.001   0.001   0.001
  0.000  -0.013   0.000  -0.021   0.000  -0.000  -0.001   0.000  -0.001   0.000   0.000  -0.000  -0.001  -0.006   0.000   0.000
 -0.013  -0.000   0.010   0.000  -0.019  -0.000  -0.000   0.001   0.000  -0.001  -0.025   0.003   0.001   0.000  -0.010   0.000
 total augmentation occupancy for first ion, spin component:           2
  0.018  -0.002   0.003  -0.005   0.008  -0.003   0.000  -0.002   0.001  -0.002   0.034   0.006  -0.011   0.006  -0.018  -0.001
 -0.002   0.000  -0.000   0.001  -0.001   0.000   0.001  -0.000   0.001   0.000  -0.003  -0.001   0.002  -0.003   0.002   0.000
  0.003  -0.000   0.002  -0.001   0.001  -0.002  -0.000   0.001   0.000  -0.001   0.005   0.000  -0.000   0.003  -0.001   0.000
 -0.005   0.001  -0.001   0.003  -0.002   0.001   0.001   0.000   0.002   0.000  -0.009  -0.002   0.002  -0.005   0.005   0.000
  0.008  -0.001   0.001  -0.002   0.003  -0.002   0.000  -0.001   0.000   0.001   0.014   0.002  -0.002   0.002  -0.010  -0.000
 -0.003   0.000  -0.002   0.001  -0.002   0.001  -0.000   0.000  -0.000   0.000  -0.008  -0.001   0.002  -0.002   0.004   0.000
  0.000   0.001  -0.000   0.001   0.000  -0.000  -0.000   0.000  -0.000  -0.000   0.000   0.000   0.000   0.000  -0.001  -0.000
 -0.002  -0.000   0.001   0.000  -0.001   0.000   0.000   0.000  -0.000   0.000  -0.002  -0.000   0.000  -0.000   0.001   0.000
  0.001   0.001   0.000   0.002   0.000  -0.000  -0.000  -0.000  -0.000  -0.000   0.002   0.000  -0.001   0.000  -0.001   0.000
 -0.002   0.000  -0.001   0.000   0.001   0.000  -0.000   0.000  -0.000  -0.000  -0.003  -0.000   0.001  -0.001   0.001  -0.000
  0.034  -0.003   0.005  -0.009   0.014  -0.008   0.000  -0.002   0.002  -0.003   0.078   0.004  -0.021   0.014  -0.036  -0.000
  0.006  -0.001   0.000  -0.002   0.002  -0.001   0.000  -0.000   0.000  -0.000   0.004   0.001  -0.001   0.001  -0.002  -0.000
 -0.011   0.002  -0.000   0.002  -0.002   0.002   0.000   0.000  -0.001   0.001  -0.021  -0.001   0.004  -0.003   0.007   0.000
  0.006  -0.003   0.003  -0.005   0.002  -0.002   0.000  -0.000   0.000  -0.001   0.014   0.001  -0.003   0.002  -0.005  -0.000
 -0.018   0.002  -0.001   0.005  -0.010   0.004  -0.001   0.001  -0.001   0.001  -0.036  -0.002   0.007  -0.005   0.013   0.000
 -0.001   0.000   0.000   0.000  -0.000   0.000  -0.000   0.000   0.000  -0.000  -0.000  -0.000   0.000  -0.000   0.000   0.000
  0.000  -0.001   0.000  -0.001   0.000   0.000  -0.000  -0.000   0.000  -0.000  -0.000   0.000   0.000   0.000   0.000  -0.000
 -0.001   0.000   0.000   0.000  -0.001   0.000   0.000   0.000  -0.000   0.000  -0.000  -0.000   0.000  -0.000   0.000   0.000


------------------------ aborting loop because EDIFF is reached ----------------------------------------


    CHARGE:  cpu time    0.6875: real time    0.6876
    FORLOC:  cpu time    0.0651: real time    0.0651
    FORNL :  cpu time    1.5323: real time    1.5327
    STRESS:  cpu time    6.2161: real time    6.2182
    FORCOR:  cpu time    1.1672: real time    1.1674
    FORHAR:  cpu time    0.1860: real time    0.1860
    MIXING:  cpu time    0.1129: real time    0.1130
    OFIELD:  cpu time    0.0000: real time    0.0000

  FORCE on cell =-STRESS in cart. coord.  units (eV):
  Direction    XX          YY          ZZ          XY          YZ          ZX
  --------------------------------------------------------------------------------------
  Alpha Z    41.16233    41.16233    41.16233
  Ewald   10232.29780  7427.96617 -1571.80134  -819.45636   338.94788    65.90348
  Hartree 15367.66542 12902.70411  4804.45535  -745.50848   306.28325    40.85431
  E(xc)    -875.88092  -877.34128  -879.02363    -0.03282     0.01632     0.08881
  Local  -26996.16346-21757.73392 -4666.47773  1567.85608  -644.44827  -104.96726
  n-local  -332.69404  -325.04021  -330.36242    -2.33870    -0.08826     1.74872
  augment  1222.79579  1225.87783  1231.79925     0.44877    -0.42366    -1.53963
  Kinetic  1334.50401  1360.63434  1368.52066    -2.00410    -0.69225    -0.65489
  Fock        0.00000     0.00000     0.00000     0.00000     0.00000     0.00000
  -------------------------------------------------------------------------------------
  Total      -6.31307    -1.77064    -1.72753    -1.03561    -0.40499     1.43354
  in kB      -2.99693    -0.84056    -0.82009    -0.49163    -0.19226     0.68053
  external pressure =       -1.55 kB  Pullay stress =        0.00 kB


 VOLUME and BASIS-vectors are now :
 -----------------------------------------------------------------------------
  energy-cutoff  :      600.00
  volume of cell :     3375.00
      direct lattice vectors                 reciprocal lattice vectors
    15.000000000  0.000000000  0.000000000     0.066666667  0.000000000  0.000000000
     0.000000000 15.000000000  0.000000000     0.000000000  0.066666667  0.000000000
     0.000000000  0.000000000 15.000000000     0.000000000  0.000000000  0.066666667

  length of vectors
    15.000000000 15.000000000 15.000000000     0.066666667  0.066666667  0.066666667


 FORCES acting on ions
    electron-ion (+dipol)            ewald-force                    non-local-force                 convergence-correction
 -----------------------------------------------------------------------------------------------
   0.107E+04 0.706E+03 -.373E+02   -.107E+04 -.703E+03 0.373E+02   -.461E+01 -.333E+01 -.220E+00   -.433E-04 -.251E-04 0.991E-05
   0.425E+03 -.334E+03 0.917E+03   -.424E+03 0.331E+03 -.917E+03   -.150E+01 0.239E+01 0.137E+00   -.310E-04 0.105E-04 -.644E-04
   0.288E+03 0.124E+04 -.201E+03   -.286E+03 -.123E+04 0.199E+03   -.204E+01 -.905E+01 0.223E+01   -.857E-05 -.221E-04 0.121E-04
   -.828E+03 -.136E+03 0.891E+03   0.826E+03 0.136E+03 -.886E+03   0.160E+01 0.956E+00 -.510E+01   0.440E-04 0.397E-05 -.791E-06
   -.791E+03 0.985E+03 0.176E+03   0.786E+03 -.979E+03 -.175E+03   0.485E+01 -.610E+01 -.124E+01   0.233E-04 -.327E-05 0.167E-04
   -.160E+03 0.517E+03 -.922E+03   0.158E+03 -.514E+03 0.922E+03   0.184E+01 -.336E+01 0.158E+00   0.233E-04 -.174E-04 0.784E-04
   0.184E+03 0.613E+03 0.119E+04   -.183E+03 -.609E+03 -.119E+04   -.108E+01 -.467E+01 -.637E+01   -.101E-04 -.183E-05 -.248E-04
   0.125E+04 -.348E+03 0.175E+03   -.124E+04 0.345E+03 -.172E+03   -.907E+01 0.317E+01 -.334E+01   -.350E-04 -.102E-04 0.714E-06
   0.582E+03 -.218E+03 -.122E+04   -.579E+03 0.217E+03 0.121E+04   -.307E+01 0.680E+00 0.700E+01   -.236E-05 -.239E-05 0.386E-04
   0.452E+03 -.124E+04 -.148E+03   -.448E+03 0.123E+04 0.147E+03   -.332E+01 0.729E+01 0.171E+01   -.528E-05 0.407E-04 0.108E-04
   -.484E+03 -.104E+04 0.687E+03   0.480E+03 0.104E+04 -.681E+03   0.440E+01 0.619E+01 -.651E+01   0.331E-05 0.159E-04 0.107E-05
   -.857E+03 0.254E+02 -.417E+03   0.855E+03 -.258E+02 0.414E+03   0.131E+01 0.112E+00 0.418E+01   -.455E-05 -.897E-05 -.700E-05
   -.563E+03 -.745E+03 -.848E+03   0.560E+03 0.741E+03 0.845E+03   0.295E+01 0.406E+01 0.310E+01   0.258E-04 -.327E-05 0.381E-04
   -.114E+03 0.218E+02 -.165E+03   0.965E+02 -.240E+02 0.167E+03   0.199E+02 0.260E+01 -.259E+01   0.323E-05 -.111E-05 0.440E-06
   -.414E+03 -.326E+02 -.794E+02   0.468E+03 0.393E+02 0.754E+02   -.568E+02 -.709E+01 0.439E+01   0.169E-04 0.111E-05 -.555E-05
 -----------------------------------------------------------------------------------------------
   0.446E+02 0.613E+01 0.248E+01   -.568E-12 0.554E-12 -.284E-13   -.446E+02 -.613E+01 -.247E+01   -.316E-06 -.234E-04 0.104E-03
 
 
 POSITION                                       TOTAL-FORCE (eV/Angst)
 -----------------------------------------------------------------------------------
      4.39250      6.31185      8.37165         0.077450     -0.321203     -0.191296
      5.64708      8.21990      7.37962         0.024653      0.034871      0.027569
      5.91990      4.35253      8.45659         0.119469      0.303436     -0.073996
      8.07764      7.57988      7.21321        -0.562000      0.023128     -0.001595
      8.23510      5.16357      7.92612        -0.218189      0.494820      0.062982
      6.66488      6.58848      9.21230         0.556020     -0.554365     -0.444921
      6.23719      5.98399      6.63087         0.148870      0.002550      0.672183
      3.35820      8.47918      8.22850        -0.172785      0.372057     -0.269112
      4.95814      8.17806      9.85252         0.445328      0.222636      0.061641
      5.27524     10.28760      8.53449        -0.070028     -0.238825      0.062469
      7.31821     10.01510      7.17593        -0.038576     -0.134250      0.028089
      9.39135      7.25837      9.08947        -0.055359     -0.281637      0.357603
      7.26454      8.88030      9.25142         0.092767      0.026548     -0.101536
     11.12010      7.32506      9.77535         2.163512      0.404935     -0.506037
     12.29330      7.46992      9.69002        -2.511133     -0.354700      0.315957
 -----------------------------------------------------------------------------------
    total drift:                               -0.004668     -0.000179      0.000815


--------------------------------------------------------------------------------------------------------



  FREE ENERGIE OF THE ION-ELECTRON SYSTEM (eV)
  ---------------------------------------------------
  free  energy   TOTEN  =       -48.83546093 eV

  energy  without entropy=      -48.84467050  energy(sigma->0) =      -48.83853078
 


--------------------------------------------------------------------------------------------------------


    POTLOK:  cpu time    1.1788: real time    1.1792


--------------------------------------------------------------------------------------------------------


     LOOP+:  cpu time  350.2856: real time  350.5852
    4ORBIT:  cpu time    0.0000: real time    0.0000

 total amount of memory used by VASP MPI-rank0   158680. kBytes
=======================================================================

   base      :      30000. kBytes
   nonl-proj :      12601. kBytes
   fftplans  :      27994. kBytes
   grid      :      74150. kBytes
   one-center:         93. kBytes
   wavefun   :      13842. kBytes
 
  
  
 General timing and accounting informations for this job:
 ========================================================
  
                  Total CPU time used (sec):      354.311
                            User time (sec):      341.881
                          System time (sec):       12.430
                         Elapsed time (sec):      354.646
  
                   Maximum memory used (kb):      281024.
                   Average memory used (kb):           0.
  
                          Minor page faults:       290025
                          Major page faults:            0
                 Voluntary context switches:          715
