 vasp.5.4.4.18Apr17-6-g9f103f2a35 (build May 08 2019 13:49:07) complex          
  
 executed on             LinuxIFC date 2019.11.13  13:26:18
 running on   24 total cores
 distrk:  each k-point on   24 cores,    1 groups
 distr:  one band on NCORES_PER_BAND=   6 cores,    4 groups


--------------------------------------------------------------------------------------------------------


 INCAR:
 POTCAR:    PAW_PBE Cu 22Jun2005                  
 POTCAR:    PAW_PBE C 08Apr2002                   
 POTCAR:    PAW_PBE O 08Apr2002                   
 POTCAR:    PAW_PBE Cu 22Jun2005                  
   VRHFIN =Cu: d10 p1                                                           
   LEXCH  = PE                                                                  
   EATOM  =  1390.9808 eV,  102.2342 Ry                                         
                                                                                
   TITEL  = PAW_PBE Cu 22Jun2005                                                
   LULTRA =        F    use ultrasoft PP ?                                      
   IUNSCR =        1    unscreen: 0-lin 1-nonlin 2-no                           
   RPACOR =    2.000    partial core radius                                     
   POMASS =   63.546; ZVAL   =   11.000    mass and valenz                      
   RCORE  =    2.300    outmost cutoff radius                                   
   RWIGS  =    2.200; RWIGS  =    1.164    wigner-seitz radius (au A)           
   ENMAX  =  295.446; ENMIN  =  221.585 eV                                      
   ICORE  =        3    local potential                                         
   LCOR   =        T    correct aug charges                                     
   LPAW   =        T    paw PP                                                  
   EAUG   =  586.980                                                            
   DEXC   =    0.000                                                            
   RMAX   =    2.344    core radius for proj-oper                               
   RAUG   =    1.300    factor for augmentation sphere                          
   RDEP   =    2.302    radius for radial grids                                 
   RDEPT  =    1.771    core radius for aug-charge                              
                                                                                
   Atomic configuration                                                         
    9 entries                                                                   
     n  l   j            E        occ.                                          
     1  0  0.50     -8850.2468   2.0000                                         
     2  0  0.50     -1062.3498   2.0000                                         
     2  1  1.50      -916.8226   6.0000                                         
     3  0  0.50      -114.6929   2.0000                                         
     3  1  1.50       -72.1325   6.0000                                         
     3  2  2.50        -5.0394  10.0000                                         
     4  0  0.50        -4.6097   1.0000                                         
     4  1  0.50        -4.0817   0.0000                                         
     4  3  2.50        -1.3606   0.0000                                         
   Description                                                                  
     l       E           TYP  RCUT    TYP  RCUT                                 
     2     -5.0393973     23  2.200                                             
     2     10.8846608     23  2.200                                             
     0     -4.6097109     23  2.200                                             
     0      8.2520465     23  2.200                                             
     1     -2.7211652     23  2.200                                             
     1     21.7055443     23  2.200                                             
     3      2.7211652     23  2.300                                             
  local pseudopotential read in
  partial core-charges read in
  partial kinetic energy density read in
  atomic valenz-charges read in
  non local Contribution for L=           2  read in
    real space projection operators read in
  non local Contribution for L=           2  read in
    real space projection operators read in
  non local Contribution for L=           0  read in
    real space projection operators read in
  non local Contribution for L=           0  read in
    real space projection operators read in
  non local Contribution for L=           1  read in
    real space projection operators read in
  non local Contribution for L=           1  read in
    real space projection operators read in
    PAW grid and wavefunctions read in
 
   number of l-projection  operators is LMAX  =           6
   number of lm-projection operators is LMMAX =          18
 
 POTCAR:    PAW_PBE C 08Apr2002                   
   VRHFIN =C: s2p2                                                              
   LEXCH  = PE                                                                  
   EATOM  =   147.1560 eV,   10.8157 Ry                                         
                                                                                
   TITEL  = PAW_PBE C 08Apr2002                                                 
   LULTRA =        F    use ultrasoft PP ?                                      
   IUNSCR =        1    unscreen: 0-lin 1-nonlin 2-no                           
   RPACOR =    1.200    partial core radius                                     
   POMASS =   12.011; ZVAL   =    4.000    mass and valenz                      
   RCORE  =    1.500    outmost cutoff radius                                   
   RWIGS  =    1.630; RWIGS  =    0.863    wigner-seitz radius (au A)           
   ENMAX  =  400.000; ENMIN  =  300.000 eV                                      
   ICORE  =        2    local potential                                         
   LCOR   =        T    correct aug charges                                     
   LPAW   =        T    paw PP                                                  
   EAUG   =  644.873                                                            
   DEXC   =    0.000                                                            
   RMAX   =    1.529    core radius for proj-oper                               
   RAUG   =    1.300    factor for augmentation sphere                          
   RDEP   =    1.501    radius for radial grids                                 
   RDEPT  =    1.300    core radius for aug-charge                              
                                                                                
   Atomic configuration                                                         
    4 entries                                                                   
     n  l   j            E        occ.                                          
     1  0  0.50      -273.3789   2.0000                                         
     2  0  0.50       -13.7508   2.0000                                         
     2  1  0.50        -5.2854   2.0000                                         
     3  2  1.50        -5.4423   0.0000                                         
   Description                                                                  
     l       E           TYP  RCUT    TYP  RCUT                                 
     0    -13.7508458     23  1.200                                             
     0     -8.2022199     23  1.200                                             
     1     -5.2854383     23  1.500                                             
     1     34.0145650     23  1.500                                             
     2     -5.4423304      7  1.500                                             
  local pseudopotential read in
  partial core-charges read in
  partial kinetic energy density read in
  atomic valenz-charges read in
  non local Contribution for L=           0  read in
    real space projection operators read in
  non local Contribution for L=           0  read in
    real space projection operators read in
  non local Contribution for L=           1  read in
    real space projection operators read in
  non local Contribution for L=           1  read in
    real space projection operators read in
    PAW grid and wavefunctions read in
 
   number of l-projection  operators is LMAX  =           4
   number of lm-projection operators is LMMAX =           8
 
 POTCAR:    PAW_PBE O 08Apr2002                   
   VRHFIN =O: s2p4                                                              
   LEXCH  = PE                                                                  
   EATOM  =   432.3788 eV,   31.7789 Ry                                         
                                                                                
   TITEL  = PAW_PBE O 08Apr2002                                                 
   LULTRA =        F    use ultrasoft PP ?                                      
   IUNSCR =        1    unscreen: 0-lin 1-nonlin 2-no                           
   RPACOR =    1.200    partial core radius                                     
   POMASS =   16.000; ZVAL   =    6.000    mass and valenz                      
   RCORE  =    1.520    outmost cutoff radius                                   
   RWIGS  =    1.550; RWIGS  =    0.820    wigner-seitz radius (au A)           
   ENMAX  =  400.000; ENMIN  =  300.000 eV                                      
   ICORE  =        2    local potential                                         
   LCOR   =        T    correct aug charges                                     
   LPAW   =        T    paw PP                                                  
   EAUG   =  605.392                                                            
   DEXC   =    0.000                                                            
   RMAX   =    1.553    core radius for proj-oper                               
   RAUG   =    1.300    factor for augmentation sphere                          
   RDEP   =    1.550    radius for radial grids                                 
   RDEPT  =    1.329    core radius for aug-charge                              
                                                                                
   Atomic configuration                                                         
    4 entries                                                                   
     n  l   j            E        occ.                                          
     1  0  0.50      -514.6923   2.0000                                         
     2  0  0.50       -23.9615   2.0000                                         
     2  1  0.50        -9.0305   4.0000                                         
     3  2  1.50        -9.5241   0.0000                                         
   Description                                                                  
     l       E           TYP  RCUT    TYP  RCUT                                 
     0    -23.9615318     23  1.200                                             
     0     -9.5240782     23  1.200                                             
     1     -9.0304911     23  1.520                                             
     1      8.1634956     23  1.520                                             
     2     -9.5240782      7  1.500                                             
  local pseudopotential read in
  partial core-charges read in
  partial kinetic energy density read in
  kinetic energy density of atom read in
  atomic valenz-charges read in
  non local Contribution for L=           0  read in
    real space projection operators read in
  non local Contribution for L=           0  read in
    real space projection operators read in
  non local Contribution for L=           1  read in
    real space projection operators read in
  non local Contribution for L=           1  read in
    real space projection operators read in
    PAW grid and wavefunctions read in
 
   number of l-projection  operators is LMAX  =           4
   number of lm-projection operators is LMMAX =           8
 
  PAW_PBE Cu 22Jun2005                  :
 energy of atom  1       EATOM=-1390.9808
 kinetic energy error for atom=    0.0033 (will be added to EATOM!!)
  PAW_PBE C 08Apr2002                   :
 energy of atom  2       EATOM= -147.1560
 kinetic energy error for atom=    0.0057 (will be added to EATOM!!)
  PAW_PBE O 08Apr2002                   :
 energy of atom  3       EATOM= -432.3788
 kinetic energy error for atom=    0.0168 (will be added to EATOM!!)
 
 
 POSCAR: Cu13 C1 O1                              
  positions in cartesian coordinates
  No initial velocities read in
 exchange correlation table for  LEXCH =        8
   RHO(1)=    0.500       N(1)  =     2000
   RHO(2)=  100.500       N(2)  =     4000
 


--------------------------------------------------------------------------------------------------------


 ion  position               nearest neighbor table
   1  0.288  0.417  0.555-   3 2.45   7 2.51   9 2.54   8 2.56   6 2.57   2 2.59
   2  0.380  0.548  0.490-   4 2.38   7 2.41  10 2.42  11 2.42   8 2.43   9 2.52  13 2.55   1 2.59
                             6 2.68
   3  0.395  0.295  0.569-   6 2.32   7 2.37   1 2.45   5 2.55
   4  0.532  0.504  0.483-   2 2.38  12 2.39   7 2.43   5 2.47  13 2.48   6 2.50  11 2.51
   5  0.553  0.348  0.531-   6 2.34   4 2.47  12 2.48   7 2.50   3 2.55
   6  0.449  0.434  0.609-   3 2.32   5 2.34   9 2.44  13 2.47   4 2.50   7 2.51  12 2.52   1 2.57
                             2 2.68
   7  0.416  0.397  0.450-   3 2.37   2 2.41   4 2.43   5 2.50   1 2.51   6 2.51
   8  0.229  0.577  0.541-   9 2.40   2 2.43  10 2.51   1 2.56
   9  0.339  0.546  0.653-   8 2.40  13 2.40   6 2.44  10 2.45   2 2.52   1 2.54
  10  0.352  0.686  0.569-   2 2.42   9 2.45  11 2.51   8 2.51  13 2.53
  11  0.489  0.666  0.476-  13 2.34   2 2.42   4 2.51  10 2.51
  12  0.612  0.475  0.618-  14 1.81   4 2.39   5 2.48   6 2.52  13 2.60
  13  0.487  0.594  0.614-  11 2.34   9 2.40   6 2.47   4 2.48  10 2.53   2 2.55  12 2.60
  14  0.729  0.489  0.644-  15 1.15  12 1.81
  15  0.805  0.496  0.635-  14 1.15
 

IMPORTANT INFORMATION: All symmetrisations will be switched off!
NOSYMM: (Re-)initialisation of all symmetry stuff for point group C_1.

 
 

Automatic generation of k-mesh.
 generate k-points for:    1    1    1
Space group operators:
 irot       det(A)        alpha          n_x          n_y          n_z        tau_x        tau_y        tau_z
    1     1.000000     0.000000     1.000000     0.000000     0.000000     0.000000     0.000000     0.000000
 
 Subroutine IBZKPT returns following result:
 ===========================================
 
 Found      1 irreducible k-points:
 
 Following reciprocal coordinates:
            Coordinates               Weight
  0.000000  0.000000  0.000000      1.000000
 
 Following cartesian coordinates:
            Coordinates               Weight
  0.000000  0.000000  0.000000      1.000000
 


--------------------------------------------------------------------------------------------------------




 Dimension of arrays:
   k-points           NKPTS =      1   k-points in BZ     NKDIM =      1   number of bands    NBANDS=     92
   number of dos      NEDOS =    301   number of ions     NIONS =     15
   non local maximal  LDIM  =      6   non local SUM 2l+1 LMDIM =     18
   total plane-waves  NPLWV = ******
   max r-space proj   IRMAX =      1   max aug-charges    IRDMAX=  15028
   dimension x,y,z NGX =   120 NGY =  120 NGZ =  120
   dimension x,y,z NGXF=   240 NGYF=  240 NGZF=  240
   support grid    NGXF=   240 NGYF=  240 NGZF=  240
   ions per type =              13   1   1
   NGX,Y,Z   is equivalent  to a cutoff of  13.30, 13.30, 13.30 a.u.
   NGXF,Y,Z  is equivalent  to a cutoff of  26.60, 26.60, 26.60 a.u.

 SYSTEM =  CuCO                                    
 POSCAR =  Cu13 C1 O1                              

 Startparameter for this run:
   NWRITE =      2    write-flag & timer
   PREC   = accura    normal or accurate (medium, high low for compatibility)
   ISTART =      0    job   : 0-new  1-cont  2-samecut
   ICHARG =      2    charge: 1-file 2-atom 10-const
   ISPIN  =      2    spin polarized calculation?
   LNONCOLLINEAR =      F non collinear calculations
   LSORBIT =      F    spin-orbit coupling
   INIWAV =      1    electr: 0-lowe 1-rand  2-diag
   LASPH  =      F    aspherical Exc in radial PAW
   METAGGA=      F    non-selfconsistent MetaGGA calc.

 Electronic Relaxation 1
   ENCUT  =  600.0 eV  44.10 Ry    6.64 a.u.  29.96 29.96 29.96*2*pi/ulx,y,z
   ENINI  =  600.0     initial cutoff
   ENAUG  =  644.9 eV  augmentation charge cutoff
   NELM   =    300;   NELMIN=  3; NELMDL= -5     # of ELM steps 
   EDIFF  = 0.1E-06   stopping-criterion for ELM
   LREAL  =      F    real-space projection
   NLSPLINE    = F    spline interpolate recip. space projectors
   LCOMPAT=      F    compatible to vasp.4.4
   GGA_COMPAT  = T    GGA compatible to vasp.4.4-vasp.4.6
   LMAXPAW     = -100 max onsite density
   LMAXMIX     =    2 max onsite mixed and CHGCAR
   VOSKOWN=      0    Vosko Wilk Nusair interpolation
   ROPT   =    0.00000   0.00000   0.00000
 Ionic relaxation
   EDIFFG = -.1E-02   stopping-criterion for IOM
   NSW    =      0    number of steps for IOM
   NBLOCK =      1;   KBLOCK =      1    inner block; outer block 
   IBRION =     -1    ionic relax: 0-MD 1-quasi-New 2-CG
   NFREE  =      0    steps in history (QN), initial steepest desc. (CG)
   ISIF   =      2    stress and relaxation
   IWAVPR =     10    prediction:  0-non 1-charg 2-wave 3-comb
   ISYM   =      0    0-nonsym 1-usesym 2-fastsym
   LCORR  =      T    Harris-Foulkes like correction to forces

   POTIM  = 0.5000    time-step for ionic-motion
   TEIN   =    0.0    initial temperature
   TEBEG  =    0.0;   TEEND  =   0.0 temperature during run
   SMASS  =  -3.00    Nose mass-parameter (am)
   estimated Nose-frequenzy (Omega)   =  0.10E-29 period in steps =****** mass=  -0.514E-26a.u.
   SCALEE = 1.0000    scale energy and forces
   NPACO  =    256;   APACO  = 16.0  distance and # of slots for P.C.
   PSTRESS=    0.0 pullay stress

  Mass of Ions in am
   POMASS =  63.55 12.01 16.00
  Ionic Valenz
   ZVAL   =  11.00  4.00  6.00
  Atomic Wigner-Seitz radii
   RWIGS  =  -1.00 -1.00 -1.00
  virtual crystal weights 
   VCA    =   1.00  1.00  1.00
   NELECT =     153.0000    total number of electrons
   NUPDOWN=       1.0000    fix difference up-down

 DOS related values:
   EMIN   =  10.00;   EMAX   =-10.00  energy-range for DOS
   EFERMI =   0.00
   ISMEAR =     1;   SIGMA  =   0.10  broadening in eV -4-tet -1-fermi 0-gaus

 Electronic relaxation 2 (details)
   IALGO  =     68    algorithm
   LDIAG  =      T    sub-space diagonalisation (order eigenvalues)
   LSUBROT=      F    optimize rotation matrix (better conditioning)
   TURBO    =      0    0=normal 1=particle mesh
   IRESTART =      0    0=no restart 2=restart with 2 vectors
   NREBOOT  =      0    no. of reboots
   NMIN     =      0    reboot dimension
   EREF     =   0.00    reference energy to select bands
   IMIX   =      4    mixing-type and parameters
     AMIX     =   0.40;   BMIX     =  1.00
     AMIX_MAG =   1.60;   BMIX_MAG =  1.00
     AMIN     =   0.10
     WC   =   100.;   INIMIX=   1;  MIXPRE=   1;  MAXMIX= -45

 Intra band minimization:
   WEIMIN = 0.0000     energy-eigenvalue tresh-hold
   EBREAK =  0.27E-09  absolut break condition
   DEPER  =   0.30     relativ break condition  

   TIME   =   0.40     timestep for ELM

  volume/ion in A,a.u.               =     225.00      1518.37
  Fermi-wavevector in a.u.,A,eV,Ry     =   0.583733  1.103095  4.636102  0.340744
  Thomas-Fermi vector in A             =   1.629149
 
 Write flags
   LWAVE        =      F    write WAVECAR
   LDOWNSAMPLE  =      F    k-point downsampling of WAVECAR
   LCHARG       =      F    write CHGCAR
   LVTOT        =      F    write LOCPOT, total local potential
   LVHAR        =      F    write LOCPOT, Hartree potential only
   LELF         =      F    write electronic localiz. function (ELF)
   LORBIT       =      0    0 simple, 1 ext, 2 COOP (PROOUT), +10 PAW based schemes


 Dipole corrections
   LMONO  =      F    monopole corrections only (constant potential shift)
   LDIPOL =      F    correct potential (dipole corrections)
   IDIPOL =      0    1-x, 2-y, 3-z, 4-all directions 
   EPSILON=  1.0000000 bulk dielectric constant

 Exchange correlation treatment:
   GGA     =    PE    GGA type
   LEXCH   =     8    internal setting for exchange type
   VOSKOWN=      0    Vosko Wilk Nusair interpolation
   LHFCALC =     F    Hartree Fock is set to
   LHFONE  =     F    Hartree Fock one center treatment
   AEXX    =    0.0000 exact exchange contribution

 Linear response parameters
   LEPSILON=     F    determine dielectric tensor
   LRPA    =     F    only Hartree local field effects (RPA)
   LNABLA  =     F    use nabla operator in PAW spheres
   LVEL    =     F    velocity operator in full k-point grid
   LINTERFAST=   F  fast interpolation
   KINTER  =     0    interpolate to denser k-point grid
   CSHIFT  =0.1000    complex shift for real part using Kramers Kronig
   OMEGAMAX=  -1.0    maximum frequency
   DEG_THRESHOLD= 0.2000000E-02 threshold for treating states as degnerate
   RTIME   =   -0.100 relaxation time in fs
  (WPLASMAI=    0.000 imaginary part of plasma frequency in eV, 0.658/RTIME)
   DFIELD  = 0.0000000 0.0000000 0.0000000 field for delta impulse in time
 
 Orbital magnetization related:
   ORBITALMAG=     F  switch on orbital magnetization
   LCHIMAG   =     F  perturbation theory with respect to B field
   DQ        =  0.001000  dq finite difference perturbation B field
   LLRAUG    =     F  two centre corrections for induced B field



--------------------------------------------------------------------------------------------------------


 Static calculation
 charge density and potential will be updated during run
 spin polarized calculation
 RMM-DIIS sequential band-by-band and
  variant of blocked Davidson during initial phase
 perform sub-space diagonalisation
    before iterative eigenvector-optimisation
 modified Broyden-mixing scheme, WC =      100.0
 initial mixing is a Kerker type mixing with AMIX =  0.4000 and BMIX =      1.0000
 Hartree-type preconditioning will be used
 using additional bands           15
 reciprocal scheme for non local part
 use partial core corrections
 calculate Harris-corrections to forces 
   (improved forces if not selfconsistent)
 use gradient corrections 
 use of overlap-Matrix (Vanderbilt PP)
 Methfessel and Paxton  Order N= 1 SIGMA  =   0.10


--------------------------------------------------------------------------------------------------------


  energy-cutoff  :      600.00
  volume of cell :     3375.00
      direct lattice vectors                 reciprocal lattice vectors
    15.000000000  0.000000000  0.000000000     0.066666667  0.000000000  0.000000000
     0.000000000 15.000000000  0.000000000     0.000000000  0.066666667  0.000000000
     0.000000000  0.000000000 15.000000000     0.000000000  0.000000000  0.066666667

  length of vectors
    15.000000000 15.000000000 15.000000000     0.066666667  0.066666667  0.066666667


 
 k-points in units of 2pi/SCALE and weight: read from INCAR                         
   0.00000000  0.00000000  0.00000000       1.000
 
 k-points in reciprocal lattice and weights: read from INCAR                         
   0.00000000  0.00000000  0.00000000       1.000
 
 position of ions in fractional coordinates (direct lattice) 
   0.28778733  0.41712733  0.55534333
   0.37981733  0.54810933  0.49017733
   0.39543533  0.29505800  0.56868933
   0.53243667  0.50437267  0.48321667
   0.55294533  0.34784933  0.53116200
   0.44936000  0.43425067  0.60948533
   0.41580867  0.39688800  0.44952067
   0.22878800  0.57657333  0.54099333
   0.33902733  0.54593200  0.65289600
   0.35227267  0.68558000  0.56939667
   0.48922333  0.66554533  0.47583200
   0.61234933  0.47531667  0.61811333
   0.48672667  0.59436800  0.61430067
   0.72917333  0.48933267  0.64408467
   0.80493333  0.49572533  0.63471000
 
 position of ions in cartesian coordinates  (Angst):
   4.31681000  6.25691000  8.33015000
   5.69726000  8.22164000  7.35266000
   5.93153000  4.42587000  8.53034000
   7.98655000  7.56559000  7.24825000
   8.29418000  5.21774000  7.96743000
   6.74040000  6.51376000  9.14228000
   6.23713000  5.95332000  6.74281000
   3.43182000  8.64860000  8.11490000
   5.08541000  8.18898000  9.79344000
   5.28409000 10.28370000  8.54095000
   7.33835000  9.98318000  7.13748000
   9.18524000  7.12975000  9.27170000
   7.30090000  8.91552000  9.21451000
  10.93760000  7.33999000  9.66127000
  12.07400000  7.43588000  9.52065000
 


--------------------------------------------------------------------------------------------------------


 k-point  1 :   0.0000 0.0000 0.0000  plane waves:  112451

 maximum and minimum number of plane-waves per node :     18753    18726

 maximum number of plane-waves:    112451
 maximum index in each direction: 
   IXMAX=   29   IYMAX=   29   IZMAX=   29
   IXMIN=  -29   IYMIN=  -29   IZMIN=  -29


 parallel 3D FFT for wavefunctions:
    minimum data exchange during FFTs selected (reduces bandwidth)
 parallel 3D FFT for charge:
    minimum data exchange during FFTs selected (reduces bandwidth)


 total amount of memory used by VASP MPI-rank0   158680. kBytes
=======================================================================

   base      :      30000. kBytes
   nonl-proj :      12601. kBytes
   fftplans  :      27994. kBytes
   grid      :      74150. kBytes
   one-center:         93. kBytes
   wavefun   :      13842. kBytes
 
     INWAV:  cpu time    0.0000: real time    0.0001
 Broyden mixing: mesh for mixing (old mesh)
   NGX = 59   NGY = 59   NGZ = 59
  (NGX  =240   NGY  =240   NGZ  =240)
  gives a total of 205379 points

 initial charge density was supplied:
 charge density of overlapping atoms calculated
 number of electron     153.0000000 magnetization       1.0000000
 keeping initial charge density in first step


--------------------------------------------------------------------------------------------------------


 Maximum index for augmentation-charges          710 (set IRDMAX)


--------------------------------------------------------------------------------------------------------


 First call to EWALD:  gamma=   0.118
 Maximum number of real-space cells 3x 3x 3
 Maximum number of reciprocal cells 3x 3x 3

    FEWALD:  cpu time    0.0016: real time    0.0021


--------------------------------------- Iteration      1(   1)  ---------------------------------------


    POTLOK:  cpu time    1.1746: real time    1.1789
    SETDIJ:  cpu time    0.0200: real time    0.0200
     EDDAV:  cpu time    7.5088: real time    7.5137
       DOS:  cpu time    0.0012: real time    0.0012
    --------------------------------------------
      LOOP:  cpu time    8.7046: real time    8.7139

 eigenvalue-minimisations  :   376
 total energy-change (2. order) : 0.1121848E+04  (-0.4466133E+04)
 number of electron     153.0000000 magnetization       1.0000000
 augmentation part      153.0000000 magnetization       1.0000000

 Free energy of the ion-electron system (eV)
  ---------------------------------------------------
  alpha Z        PSCENC =        41.16232785
  Ewald energy   TEWEN  =     16692.78509724
  -Hartree energ DENC   =    -33709.24546062
  -exchange      EXHF   =         0.00000000
  -V(xc)+E(xc)   XCENC  =       623.86344739
  PAW double counting   =     16421.75059358   -17800.06104309
  entropy T*S    EENTRO =         0.00266856
  eigenvalues    EBANDS =       189.37142500
  atomic energy  EATOM  =     18662.21924712
  Solvation  Ediel_sol  =         0.00000000
  ---------------------------------------------------
  free energy    TOTEN  =      1121.84830303 eV

  energy without entropy =     1121.84563447  energy(sigma->0) =     1121.84741351


--------------------------------------------------------------------------------------------------------




--------------------------------------- Iteration      1(   2)  ---------------------------------------


     EDDAV:  cpu time    7.5241: real time    7.5321
       DOS:  cpu time    0.0007: real time    0.0007
    --------------------------------------------
      LOOP:  cpu time    7.5248: real time    7.5328

 eigenvalue-minimisations  :   376
 total energy-change (2. order) :-0.1032284E+04  (-0.9821551E+03)
 number of electron     153.0000000 magnetization       1.0000000
 augmentation part      153.0000000 magnetization       1.0000000

 Free energy of the ion-electron system (eV)
  ---------------------------------------------------
  alpha Z        PSCENC =        41.16232785
  Ewald energy   TEWEN  =     16692.78509724
  -Hartree energ DENC   =    -33709.24546062
  -exchange      EXHF   =         0.00000000
  -V(xc)+E(xc)   XCENC  =       623.86344739
  PAW double counting   =     16421.75059358   -17800.06104309
  entropy T*S    EENTRO =         0.00666144
  eigenvalues    EBANDS =      -842.91637479
  atomic energy  EATOM  =     18662.21924712
  Solvation  Ediel_sol  =         0.00000000
  ---------------------------------------------------
  free energy    TOTEN  =        89.56449612 eV

  energy without entropy =       89.55783468  energy(sigma->0) =       89.56227564


--------------------------------------------------------------------------------------------------------




--------------------------------------- Iteration      1(   3)  ---------------------------------------


     EDDAV:  cpu time   11.4397: real time   11.4467
       DOS:  cpu time    0.0005: real time    0.0005
    --------------------------------------------
      LOOP:  cpu time   11.4402: real time   11.4472

 eigenvalue-minimisations  :   640
 total energy-change (2. order) :-0.1226850E+03  (-0.1145822E+03)
 number of electron     153.0000000 magnetization       1.0000000
 augmentation part      153.0000000 magnetization       1.0000000

 Free energy of the ion-electron system (eV)
  ---------------------------------------------------
  alpha Z        PSCENC =        41.16232785
  Ewald energy   TEWEN  =     16692.78509724
  -Hartree energ DENC   =    -33709.24546062
  -exchange      EXHF   =         0.00000000
  -V(xc)+E(xc)   XCENC  =       623.86344739
  PAW double counting   =     16421.75059358   -17800.06104309
  entropy T*S    EENTRO =         0.01892153
  eigenvalues    EBANDS =      -965.61363500
  atomic energy  EATOM  =     18662.21924712
  Solvation  Ediel_sol  =         0.00000000
  ---------------------------------------------------
  free energy    TOTEN  =       -33.12050399 eV

  energy without entropy =      -33.13942553  energy(sigma->0) =      -33.12681117


--------------------------------------------------------------------------------------------------------




--------------------------------------- Iteration      1(   4)  ---------------------------------------


     EDDAV:  cpu time   10.1397: real time   10.1476
       DOS:  cpu time    0.0008: real time    0.0008
    --------------------------------------------
      LOOP:  cpu time   10.1404: real time   10.1484

 eigenvalue-minimisations  :   552
 total energy-change (2. order) :-0.2283433E+02  (-0.2225890E+02)
 number of electron     153.0000000 magnetization       1.0000000
 augmentation part      153.0000000 magnetization       1.0000000

 Free energy of the ion-electron system (eV)
  ---------------------------------------------------
  alpha Z        PSCENC =        41.16232785
  Ewald energy   TEWEN  =     16692.78509724
  -Hartree energ DENC   =    -33709.24546062
  -exchange      EXHF   =         0.00000000
  -V(xc)+E(xc)   XCENC  =       623.86344739
  PAW double counting   =     16421.75059358   -17800.06104309
  entropy T*S    EENTRO =         0.01128761
  eigenvalues    EBANDS =      -988.44032677
  atomic energy  EATOM  =     18662.21924712
  Solvation  Ediel_sol  =         0.00000000
  ---------------------------------------------------
  free energy    TOTEN  =       -55.95482970 eV

  energy without entropy =      -55.96611730  energy(sigma->0) =      -55.95859223


--------------------------------------------------------------------------------------------------------




--------------------------------------- Iteration      1(   5)  ---------------------------------------


     EDDAV:  cpu time   12.0533: real time   12.0602
       DOS:  cpu time    0.0011: real time    0.0011
    CHARGE:  cpu time    0.6934: real time    0.6939
    MIXING:  cpu time    0.0230: real time    0.0230
    --------------------------------------------
      LOOP:  cpu time   12.7707: real time   12.7782

 eigenvalue-minimisations  :   680
 total energy-change (2. order) :-0.1785054E+01  (-0.1643134E+01)
 number of electron     153.0000006 magnetization       1.0000000
 augmentation part       87.4529673 magnetization       0.3792169

 Broyden mixing:
  rms(total) = 0.23925E+01    rms(broyden)= 0.23924E+01
  rms(prec ) = 0.27450E+01
  weight for this iteration     100.00

 Free energy of the ion-electron system (eV)
  ---------------------------------------------------
  alpha Z        PSCENC =        41.16232785
  Ewald energy   TEWEN  =     16692.78509724
  -Hartree energ DENC   =    -33709.24546062
  -exchange      EXHF   =         0.00000000
  -V(xc)+E(xc)   XCENC  =       623.86344739
  PAW double counting   =     16421.75059358   -17800.06104309
  entropy T*S    EENTRO =         0.01094456
  eigenvalues    EBANDS =      -990.22503746
  atomic energy  EATOM  =     18662.21924712
  Solvation  Ediel_sol  =         0.00000000
  ---------------------------------------------------
  free energy    TOTEN  =       -57.73988342 eV

  energy without entropy =      -57.75082798  energy(sigma->0) =      -57.74353161


--------------------------------------------------------------------------------------------------------




--------------------------------------- Iteration      1(   6)  ---------------------------------------


    POTLOK:  cpu time    1.1618: real time    1.1630
    SETDIJ:  cpu time    0.0196: real time    0.0196
    EDDIAG:  cpu time    1.0889: real time    1.0898
  RMM-DIIS:  cpu time    6.9961: real time    6.9998
    ORTHCH:  cpu time    0.0596: real time    0.0596
       DOS:  cpu time    0.0006: real time    0.0006
    CHARGE:  cpu time    0.6386: real time    0.6391
    MIXING:  cpu time    0.0232: real time    0.0232
    --------------------------------------------
      LOOP:  cpu time    9.9884: real time    9.9947

 eigenvalue-minimisations  :   426
 total energy-change (2. order) : 0.1201593E+01  (-0.1212102E+02)
 number of electron     153.0000009 magnetization       1.0000000
 augmentation part       95.6675725 magnetization       0.0723893

 Broyden mixing:
  rms(total) = 0.15469E+01    rms(broyden)= 0.15467E+01
  rms(prec ) = 0.17879E+01
  weight for this iteration     100.00

 eigenvalues of (default mixing * dielectric matrix)
  average eigenvalue GAMMA=   0.6174
  0.6174

 Free energy of the ion-electron system (eV)
  ---------------------------------------------------
  alpha Z        PSCENC =        41.16232785
  Ewald energy   TEWEN  =     16692.78509724
  -Hartree energ DENC   =    -33458.72540926
  -exchange      EXHF   =         0.00000000
  -V(xc)+E(xc)   XCENC  =       611.71820578
  PAW double counting   =     16725.56762056   -18049.59052564
  entropy T*S    EENTRO =         0.00726714
  eigenvalues    EBANDS =     -1281.68212146
  atomic energy  EATOM  =     18662.21924712
  Solvation  Ediel_sol  =         0.00000000
  ---------------------------------------------------
  free energy    TOTEN  =       -56.53829067 eV

  energy without entropy =      -56.54555781  energy(sigma->0) =      -56.54071305


--------------------------------------------------------------------------------------------------------




--------------------------------------- Iteration      1(   7)  ---------------------------------------


    POTLOK:  cpu time    1.1603: real time    1.1616
    SETDIJ:  cpu time    0.0198: real time    0.0198
    EDDIAG:  cpu time    1.0880: real time    1.0889
  RMM-DIIS:  cpu time    6.2619: real time    6.2659
    ORTHCH:  cpu time    0.0601: real time    0.0601
       DOS:  cpu time    0.0006: real time    0.0006
    CHARGE:  cpu time    0.6492: real time    0.6494
    MIXING:  cpu time    0.0235: real time    0.0236
    --------------------------------------------
      LOOP:  cpu time    9.2635: real time    9.2699

 eigenvalue-minimisations  :   381
 total energy-change (2. order) : 0.7138509E+01  (-0.2513101E+01)
 number of electron     153.0000008 magnetization       1.0000000
 augmentation part       92.8170247 magnetization       0.1052243

 Broyden mixing:
  rms(total) = 0.37854E+00    rms(broyden)= 0.37852E+00
  rms(prec ) = 0.46902E+00
  weight for this iteration     100.00

 eigenvalues of (default mixing * dielectric matrix)
  average eigenvalue GAMMA=   0.9088
  1.1536  0.6640

 Free energy of the ion-electron system (eV)
  ---------------------------------------------------
  alpha Z        PSCENC =        41.16232785
  Ewald energy   TEWEN  =     16692.78509724
  -Hartree energ DENC   =    -33595.72000350
  -exchange      EXHF   =         0.00000000
  -V(xc)+E(xc)   XCENC  =       616.12064313
  PAW double counting   =     17077.28593377   -18451.45887762
  entropy T*S    EENTRO =         0.00878474
  eigenvalues    EBANDS =     -1091.80293393
  atomic energy  EATOM  =     18662.21924712
  Solvation  Ediel_sol  =         0.00000000
  ---------------------------------------------------
  free energy    TOTEN  =       -49.39978121 eV

  energy without entropy =      -49.40856594  energy(sigma->0) =      -49.40270945


--------------------------------------------------------------------------------------------------------




--------------------------------------- Iteration      1(   8)  ---------------------------------------


    POTLOK:  cpu time    1.1613: real time    1.1628
    SETDIJ:  cpu time    0.0196: real time    0.0196
    EDDIAG:  cpu time    1.0902: real time    1.0908
  RMM-DIIS:  cpu time    6.6595: real time    6.6633
    ORTHCH:  cpu time    0.0598: real time    0.0598
       DOS:  cpu time    0.0005: real time    0.0005
    CHARGE:  cpu time    0.6468: real time    0.6493
    MIXING:  cpu time    0.0240: real time    0.0240
    --------------------------------------------
      LOOP:  cpu time    9.6617: real time    9.6703

 eigenvalue-minimisations  :   420
 total energy-change (2. order) : 0.2397030E+00  (-0.3732076E+00)
 number of electron     153.0000008 magnetization       1.0000000
 augmentation part       92.0844064 magnetization       0.1090141

 Broyden mixing:
  rms(total) = 0.27872E+00    rms(broyden)= 0.27870E+00
  rms(prec ) = 0.31407E+00
  weight for this iteration     100.00

 eigenvalues of (default mixing * dielectric matrix)
  average eigenvalue GAMMA=   0.9454
  1.4114  0.7123  0.7123

 Free energy of the ion-electron system (eV)
  ---------------------------------------------------
  alpha Z        PSCENC =        41.16232785
  Ewald energy   TEWEN  =     16692.78509724
  -Hartree energ DENC   =    -33642.08471318
  -exchange      EXHF   =         0.00000000
  -V(xc)+E(xc)   XCENC  =       616.45931699
  PAW double counting   =     17433.08047367   -18826.37924341
  entropy T*S    EENTRO =         0.00830009
  eigenvalues    EBANDS =     -1026.41088456
  atomic energy  EATOM  =     18662.21924712
  Solvation  Ediel_sol  =         0.00000000
  ---------------------------------------------------
  free energy    TOTEN  =       -49.16007820 eV

  energy without entropy =      -49.16837829  energy(sigma->0) =      -49.16284489


--------------------------------------------------------------------------------------------------------




--------------------------------------- Iteration      1(   9)  ---------------------------------------


    POTLOK:  cpu time    1.1614: real time    1.1632
    SETDIJ:  cpu time    0.0194: real time    0.0194
    EDDIAG:  cpu time    1.0889: real time    1.0898
  RMM-DIIS:  cpu time    6.7217: real time    6.7254
    ORTHCH:  cpu time    0.0601: real time    0.0601
       DOS:  cpu time    0.0006: real time    0.0006
    CHARGE:  cpu time    0.6486: real time    0.6490
    MIXING:  cpu time    0.0249: real time    0.0249
    --------------------------------------------
      LOOP:  cpu time    9.7255: real time    9.7324

 eigenvalue-minimisations  :   416
 total energy-change (2. order) : 0.3702140E-01  (-0.9261544E-01)
 number of electron     153.0000008 magnetization       1.0000000
 augmentation part       92.2618872 magnetization       0.0921554

 Broyden mixing:
  rms(total) = 0.17925E+00    rms(broyden)= 0.17924E+00
  rms(prec ) = 0.21222E+00
  weight for this iteration     100.00

 eigenvalues of (default mixing * dielectric matrix)
  average eigenvalue GAMMA=   1.0371
  2.0839  0.7793  0.7793  0.5057

 Free energy of the ion-electron system (eV)
  ---------------------------------------------------
  alpha Z        PSCENC =        41.16232785
  Ewald energy   TEWEN  =     16692.78509724
  -Hartree energ DENC   =    -33641.08109685
  -exchange      EXHF   =         0.00000000
  -V(xc)+E(xc)   XCENC  =       615.92158028
  PAW double counting   =     17565.56383436   -18961.23060585
  entropy T*S    EENTRO =         0.00835279
  eigenvalues    EBANDS =     -1024.47179374
  atomic energy  EATOM  =     18662.21924712
  Solvation  Ediel_sol  =         0.00000000
  ---------------------------------------------------
  free energy    TOTEN  =       -49.12305680 eV

  energy without entropy =      -49.13140959  energy(sigma->0) =      -49.12584106


--------------------------------------------------------------------------------------------------------




--------------------------------------- Iteration      1(  10)  ---------------------------------------


    POTLOK:  cpu time    1.1611: real time    1.1639
    SETDIJ:  cpu time    0.0194: real time    0.0194
    EDDIAG:  cpu time    1.0913: real time    1.0919
  RMM-DIIS:  cpu time    7.0258: real time    7.0298
    ORTHCH:  cpu time    0.0599: real time    0.0599
       DOS:  cpu time    0.0006: real time    0.0006
    CHARGE:  cpu time    0.6487: real time    0.6492
    MIXING:  cpu time    0.0253: real time    0.0253
    --------------------------------------------
      LOOP:  cpu time   10.0321: real time   10.0401

 eigenvalue-minimisations  :   418
 total energy-change (2. order) : 0.5467747E-01  (-0.2444939E-01)
 number of electron     153.0000008 magnetization       1.0000000
 augmentation part       92.4265704 magnetization       0.0812853

 Broyden mixing:
  rms(total) = 0.53764E-01    rms(broyden)= 0.53759E-01
  rms(prec ) = 0.70267E-01
  weight for this iteration     100.00

 eigenvalues of (default mixing * dielectric matrix)
  average eigenvalue GAMMA=   1.0255
  2.1042  0.9925  0.7885  0.7885  0.4536

 Free energy of the ion-electron system (eV)
  ---------------------------------------------------
  alpha Z        PSCENC =        41.16232785
  Ewald energy   TEWEN  =     16692.78509724
  -Hartree energ DENC   =    -33639.53564466
  -exchange      EXHF   =         0.00000000
  -V(xc)+E(xc)   XCENC  =       615.55897146
  PAW double counting   =     17663.73498308   -19061.03523392
  entropy T*S    EENTRO =         0.00811348
  eigenvalues    EBANDS =     -1023.96624097
  atomic energy  EATOM  =     18662.21924712
  Solvation  Ediel_sol  =         0.00000000
  ---------------------------------------------------
  free energy    TOTEN  =       -49.06837933 eV

  energy without entropy =      -49.07649280  energy(sigma->0) =      -49.07108382


--------------------------------------------------------------------------------------------------------




--------------------------------------- Iteration      1(  11)  ---------------------------------------


    POTLOK:  cpu time    1.1636: real time    1.1650
    SETDIJ:  cpu time    0.0191: real time    0.0191
    EDDIAG:  cpu time    1.0891: real time    1.0902
  RMM-DIIS:  cpu time    7.0614: real time    7.0675
    ORTHCH:  cpu time    0.0574: real time    0.0574
       DOS:  cpu time    0.0006: real time    0.0006
    CHARGE:  cpu time    0.6499: real time    0.6503
    MIXING:  cpu time    0.0258: real time    0.0258
    --------------------------------------------
      LOOP:  cpu time   10.0669: real time   10.0760

 eigenvalue-minimisations  :   433
 total energy-change (2. order) : 0.7578110E-02  (-0.6462401E-02)
 number of electron     153.0000008 magnetization       1.0000000
 augmentation part       92.3670317 magnetization       0.0859031

 Broyden mixing:
  rms(total) = 0.40838E-01    rms(broyden)= 0.40836E-01
  rms(prec ) = 0.52968E-01
  weight for this iteration     100.00

 eigenvalues of (default mixing * dielectric matrix)
  average eigenvalue GAMMA=   1.0426
  2.1219  1.4955  0.7734  0.7734  0.6371  0.4543

 Free energy of the ion-electron system (eV)
  ---------------------------------------------------
  alpha Z        PSCENC =        41.16232785
  Ewald energy   TEWEN  =     16692.78509724
  -Hartree energ DENC   =    -33646.57814723
  -exchange      EXHF   =         0.00000000
  -V(xc)+E(xc)   XCENC  =       615.68671681
  PAW double counting   =     17707.80123548   -19107.05274080
  entropy T*S    EENTRO =         0.00799300
  eigenvalues    EBANDS =     -1015.09253068
  atomic energy  EATOM  =     18662.21924712
  Solvation  Ediel_sol  =         0.00000000
  ---------------------------------------------------
  free energy    TOTEN  =       -49.06080122 eV

  energy without entropy =      -49.06879421  energy(sigma->0) =      -49.06346555


--------------------------------------------------------------------------------------------------------




--------------------------------------- Iteration      1(  12)  ---------------------------------------


    POTLOK:  cpu time    1.1633: real time    1.1642
    SETDIJ:  cpu time    0.0190: real time    0.0190
    EDDIAG:  cpu time    1.0865: real time    1.0876
  RMM-DIIS:  cpu time    6.9225: real time    6.9262
    ORTHCH:  cpu time    0.0568: real time    0.0568
       DOS:  cpu time    0.0006: real time    0.0006
    CHARGE:  cpu time    0.6527: real time    0.6531
    MIXING:  cpu time    0.0271: real time    0.0271
    --------------------------------------------
      LOOP:  cpu time    9.9286: real time    9.9346

 eigenvalue-minimisations  :   418
 total energy-change (2. order) : 0.3077595E-02  (-0.1906552E-02)
 number of electron     153.0000008 magnetization       1.0000000
 augmentation part       92.3693212 magnetization       0.0856448

 Broyden mixing:
  rms(total) = 0.17218E-01    rms(broyden)= 0.17217E-01
  rms(prec ) = 0.29011E-01
  weight for this iteration     100.00

 eigenvalues of (default mixing * dielectric matrix)
  average eigenvalue GAMMA=   1.0678
  2.3728  1.6746  0.9992  0.7215  0.7215  0.5339  0.4511

 Free energy of the ion-electron system (eV)
  ---------------------------------------------------
  alpha Z        PSCENC =        41.16232785
  Ewald energy   TEWEN  =     16692.78509724
  -Hartree energ DENC   =    -33649.59542635
  -exchange      EXHF   =         0.00000000
  -V(xc)+E(xc)   XCENC  =       615.72402727
  PAW double counting   =     17718.65743827   -19118.28905094
  entropy T*S    EENTRO =         0.00800195
  eigenvalues    EBANDS =     -1011.72938603
  atomic energy  EATOM  =     18662.21924712
  Solvation  Ediel_sol  =         0.00000000
  ---------------------------------------------------
  free energy    TOTEN  =       -49.05772362 eV

  energy without entropy =      -49.06572557  energy(sigma->0) =      -49.06039094


--------------------------------------------------------------------------------------------------------




--------------------------------------- Iteration      1(  13)  ---------------------------------------


    POTLOK:  cpu time    1.1639: real time    1.1653
    SETDIJ:  cpu time    0.0191: real time    0.0191
    EDDIAG:  cpu time    1.0874: real time    1.0884
  RMM-DIIS:  cpu time    7.3868: real time    7.3913
    ORTHCH:  cpu time    0.0572: real time    0.0572
       DOS:  cpu time    0.0006: real time    0.0006
    CHARGE:  cpu time    0.6547: real time    0.6552
    MIXING:  cpu time    0.0277: real time    0.0277
    --------------------------------------------
      LOOP:  cpu time   10.3974: real time   10.4048

 eigenvalue-minimisations  :   453
 total energy-change (2. order) : 0.8142308E-03  (-0.5622644E-03)
 number of electron     153.0000008 magnetization       1.0000000
 augmentation part       92.3824979 magnetization       0.0856105

 Broyden mixing:
  rms(total) = 0.94678E-02    rms(broyden)= 0.94674E-02
  rms(prec ) = 0.19736E-01
  weight for this iteration     100.00

 eigenvalues of (default mixing * dielectric matrix)
  average eigenvalue GAMMA=   1.1013
  2.4093  1.8503  1.2904  0.7741  0.7741  0.7551  0.5185  0.4388

 Free energy of the ion-electron system (eV)
  ---------------------------------------------------
  alpha Z        PSCENC =        41.16232785
  Ewald energy   TEWEN  =     16692.78509724
  -Hartree energ DENC   =    -33653.24992260
  -exchange      EXHF   =         0.00000000
  -V(xc)+E(xc)   XCENC  =       615.72999537
  PAW double counting   =     17725.49086443   -19125.19390822
  entropy T*S    EENTRO =         0.00797769
  eigenvalues    EBANDS =     -1008.00858827
  atomic energy  EATOM  =     18662.21924712
  Solvation  Ediel_sol  =         0.00000000
  ---------------------------------------------------
  free energy    TOTEN  =       -49.05690939 eV

  energy without entropy =      -49.06488708  energy(sigma->0) =      -49.05956862


--------------------------------------------------------------------------------------------------------




--------------------------------------- Iteration      1(  14)  ---------------------------------------


    POTLOK:  cpu time    1.1642: real time    1.1652
    SETDIJ:  cpu time    0.0191: real time    0.0191
    EDDIAG:  cpu time    1.0867: real time    1.0873
  RMM-DIIS:  cpu time    7.0604: real time    7.0658
    ORTHCH:  cpu time    0.0576: real time    0.0576
       DOS:  cpu time    0.0006: real time    0.0006
    CHARGE:  cpu time    0.6547: real time    0.6552
    MIXING:  cpu time    0.0292: real time    0.0292
    --------------------------------------------
      LOOP:  cpu time   10.0725: real time   10.0800

 eigenvalue-minimisations  :   417
 total energy-change (2. order) :-0.9635111E-03  (-0.2748181E-03)
 number of electron     153.0000008 magnetization       1.0000000
 augmentation part       92.3888024 magnetization       0.0855139

 Broyden mixing:
  rms(total) = 0.94146E-02    rms(broyden)= 0.94144E-02
  rms(prec ) = 0.15630E-01
  weight for this iteration     100.00

 eigenvalues of (default mixing * dielectric matrix)
  average eigenvalue GAMMA=   1.1337
  2.3679  2.3679  1.3601  0.9552  0.7643  0.7643  0.6907  0.4909  0.4421

 Free energy of the ion-electron system (eV)
  ---------------------------------------------------
  alpha Z        PSCENC =        41.16232785
  Ewald energy   TEWEN  =     16692.78509724
  -Hartree energ DENC   =    -33658.32507012
  -exchange      EXHF   =         0.00000000
  -V(xc)+E(xc)   XCENC  =       615.76152305
  PAW double counting   =     17719.53914439   -19118.97737066
  entropy T*S    EENTRO =         0.00795720
  eigenvalues    EBANDS =     -1003.23072898
  atomic energy  EATOM  =     18662.21924712
  Solvation  Ediel_sol  =         0.00000000
  ---------------------------------------------------
  free energy    TOTEN  =       -49.05787290 eV

  energy without entropy =      -49.06583010  energy(sigma->0) =      -49.06052530


--------------------------------------------------------------------------------------------------------




--------------------------------------- Iteration      1(  15)  ---------------------------------------


    POTLOK:  cpu time    1.1629: real time    1.1637
    SETDIJ:  cpu time    0.0193: real time    0.0193
    EDDIAG:  cpu time    1.0879: real time    1.0888
  RMM-DIIS:  cpu time    6.7023: real time    6.7066
    ORTHCH:  cpu time    0.0608: real time    0.0608
       DOS:  cpu time    0.0006: real time    0.0006
    CHARGE:  cpu time    0.6556: real time    0.6561
    MIXING:  cpu time    0.0292: real time    0.0292
    --------------------------------------------
      LOOP:  cpu time    9.7185: real time    9.7251

 eigenvalue-minimisations  :   399
 total energy-change (2. order) :-0.1124307E-02  (-0.1498299E-03)
 number of electron     153.0000008 magnetization       1.0000000
 augmentation part       92.3821687 magnetization       0.0859295

 Broyden mixing:
  rms(total) = 0.57280E-02    rms(broyden)= 0.57279E-02
  rms(prec ) = 0.10190E-01
  weight for this iteration     100.00

 eigenvalues of (default mixing * dielectric matrix)
  average eigenvalue GAMMA=   1.1633
  2.6433  2.6433  1.3053  1.3053  0.7573  0.7573  0.7712  0.5393  0.4426  0.4681

 Free energy of the ion-electron system (eV)
  ---------------------------------------------------
  alpha Z        PSCENC =        41.16232785
  Ewald energy   TEWEN  =     16692.78509724
  -Hartree energ DENC   =    -33661.96803347
  -exchange      EXHF   =         0.00000000
  -V(xc)+E(xc)   XCENC  =       615.80229980
  PAW double counting   =     17714.23777167   -19113.58190948
  entropy T*S    EENTRO =         0.00795648
  eigenvalues    EBANDS =      -999.72375442
  atomic energy  EATOM  =     18662.21924712
  Solvation  Ediel_sol  =         0.00000000
  ---------------------------------------------------
  free energy    TOTEN  =       -49.05899721 eV

  energy without entropy =      -49.06695369  energy(sigma->0) =      -49.06164937


--------------------------------------------------------------------------------------------------------




--------------------------------------- Iteration      1(  16)  ---------------------------------------


    POTLOK:  cpu time    1.1629: real time    1.1661
    SETDIJ:  cpu time    0.0193: real time    0.0193
    EDDIAG:  cpu time    1.0883: real time    1.0888
  RMM-DIIS:  cpu time    6.4611: real time    6.4651
    ORTHCH:  cpu time    0.0597: real time    0.0597
       DOS:  cpu time    0.0006: real time    0.0006
    CHARGE:  cpu time    0.6498: real time    0.6502
    MIXING:  cpu time    0.0306: real time    0.0306
    --------------------------------------------
      LOOP:  cpu time    9.4721: real time    9.4803

 eigenvalue-minimisations  :   390
 total energy-change (2. order) :-0.1326728E-02  (-0.7457557E-04)
 number of electron     153.0000008 magnetization       1.0000000
 augmentation part       92.3795472 magnetization       0.0862223

 Broyden mixing:
  rms(total) = 0.43014E-02    rms(broyden)= 0.43013E-02
  rms(prec ) = 0.71744E-02
  weight for this iteration     100.00

 eigenvalues of (default mixing * dielectric matrix)
  average eigenvalue GAMMA=   1.1975
  3.0472  2.6132  1.4748  1.4748  0.8133  0.8133  0.7504  0.7504  0.4402  0.5010
  0.4943

 Free energy of the ion-electron system (eV)
  ---------------------------------------------------
  alpha Z        PSCENC =        41.16232785
  Ewald energy   TEWEN  =     16692.78509724
  -Hartree energ DENC   =    -33664.60580805
  -exchange      EXHF   =         0.00000000
  -V(xc)+E(xc)   XCENC  =       615.82889678
  PAW double counting   =     17710.08829655   -19109.35913088
  entropy T*S    EENTRO =         0.00795673
  eigenvalues    EBANDS =      -997.18720728
  atomic energy  EATOM  =     18662.21924712
  Solvation  Ediel_sol  =         0.00000000
  ---------------------------------------------------
  free energy    TOTEN  =       -49.06032394 eV

  energy without entropy =      -49.06828067  energy(sigma->0) =      -49.06297618


--------------------------------------------------------------------------------------------------------




--------------------------------------- Iteration      1(  17)  ---------------------------------------


    POTLOK:  cpu time    1.1633: real time    1.1639
    SETDIJ:  cpu time    0.0192: real time    0.0192
    EDDIAG:  cpu time    1.0879: real time    1.0888
  RMM-DIIS:  cpu time    6.2815: real time    6.2851
    ORTHCH:  cpu time    0.0598: real time    0.0598
       DOS:  cpu time    0.0005: real time    0.0005
    CHARGE:  cpu time    0.6508: real time    0.6510
    MIXING:  cpu time    0.0312: real time    0.0312
    --------------------------------------------
      LOOP:  cpu time    9.2944: real time    9.2996

 eigenvalue-minimisations  :   386
 total energy-change (2. order) :-0.1843929E-02  (-0.5377317E-04)
 number of electron     153.0000008 magnetization       1.0000000
 augmentation part       92.3821101 magnetization       0.0860318

 Broyden mixing:
  rms(total) = 0.24971E-02    rms(broyden)= 0.24971E-02
  rms(prec ) = 0.42052E-02
  weight for this iteration     100.00

 eigenvalues of (default mixing * dielectric matrix)
  average eigenvalue GAMMA=   1.3223
  4.2877  2.5538  2.1169  1.4213  1.0761  0.7656  0.7656  0.8029  0.6477  0.4410
  0.5101  0.4789

 Free energy of the ion-electron system (eV)
  ---------------------------------------------------
  alpha Z        PSCENC =        41.16232785
  Ewald energy   TEWEN  =     16692.78509724
  -Hartree energ DENC   =    -33666.86140944
  -exchange      EXHF   =         0.00000000
  -V(xc)+E(xc)   XCENC  =       615.83698119
  PAW double counting   =     17707.81639800   -19107.03478146
  entropy T*S    EENTRO =         0.00795807
  eigenvalues    EBANDS =      -994.99398643
  atomic energy  EATOM  =     18662.21924712
  Solvation  Ediel_sol  =         0.00000000
  ---------------------------------------------------
  free energy    TOTEN  =       -49.06216787 eV

  energy without entropy =      -49.07012593  energy(sigma->0) =      -49.06482055


--------------------------------------------------------------------------------------------------------




--------------------------------------- Iteration      1(  18)  ---------------------------------------


    POTLOK:  cpu time    1.1630: real time    1.1648
    SETDIJ:  cpu time    0.0196: real time    0.0195
    EDDIAG:  cpu time    1.0879: real time    1.0885
  RMM-DIIS:  cpu time    6.7632: real time    6.7669
    ORTHCH:  cpu time    0.0597: real time    0.0599
       DOS:  cpu time    0.0006: real time    0.0006
    CHARGE:  cpu time    0.6510: real time    0.6512
    MIXING:  cpu time    0.0324: real time    0.0324
    --------------------------------------------
      LOOP:  cpu time    9.7773: real time    9.7839

 eigenvalue-minimisations  :   406
 total energy-change (2. order) :-0.8655002E-03  (-0.2343312E-04)
 number of electron     153.0000008 magnetization       1.0000000
 augmentation part       92.3808812 magnetization       0.0861543

 Broyden mixing:
  rms(total) = 0.14833E-02    rms(broyden)= 0.14833E-02
  rms(prec ) = 0.26927E-02
  weight for this iteration     100.00

 eigenvalues of (default mixing * dielectric matrix)
  average eigenvalue GAMMA=   1.3527
  5.0328  2.6305  2.2015  1.2843  1.2843  0.8425  0.8425  0.7284  0.7284  0.5983
  0.4412  0.5018  0.4690

 Free energy of the ion-electron system (eV)
  ---------------------------------------------------
  alpha Z        PSCENC =        41.16232785
  Ewald energy   TEWEN  =     16692.78509724
  -Hartree energ DENC   =    -33667.95564876
  -exchange      EXHF   =         0.00000000
  -V(xc)+E(xc)   XCENC  =       615.84041603
  PAW double counting   =     17707.57780791   -19106.81321457
  entropy T*S    EENTRO =         0.00796270
  eigenvalues    EBANDS =      -993.88702889
  atomic energy  EATOM  =     18662.21924712
  Solvation  Ediel_sol  =         0.00000000
  ---------------------------------------------------
  free energy    TOTEN  =       -49.06303337 eV

  energy without entropy =      -49.07099607  energy(sigma->0) =      -49.06568760


--------------------------------------------------------------------------------------------------------




--------------------------------------- Iteration      1(  19)  ---------------------------------------


    POTLOK:  cpu time    1.1640: real time    1.1648
    SETDIJ:  cpu time    0.0190: real time    0.0190
    EDDIAG:  cpu time    1.0888: real time    1.0894
  RMM-DIIS:  cpu time    7.5432: real time    7.5476
    ORTHCH:  cpu time    0.0601: real time    0.0601
       DOS:  cpu time    0.0005: real time    0.0005
    CHARGE:  cpu time    0.6499: real time    0.6503
    MIXING:  cpu time    0.0340: real time    0.0340
    --------------------------------------------
      LOOP:  cpu time   10.5595: real time   10.5658

 eigenvalue-minimisations  :   461
 total energy-change (2. order) :-0.7365197E-03  (-0.1229631E-04)
 number of electron     153.0000008 magnetization       1.0000000
 augmentation part       92.3789086 magnetization       0.0861766

 Broyden mixing:
  rms(total) = 0.11771E-02    rms(broyden)= 0.11771E-02
  rms(prec ) = 0.20555E-02
  weight for this iteration     100.00

 eigenvalues of (default mixing * dielectric matrix)
  average eigenvalue GAMMA=   1.4285
  5.8893  2.7013  2.1985  1.5894  1.5894  0.9532  0.9532  0.7430  0.7430  0.6636
  0.5640  0.4407  0.4981  0.4729

 Free energy of the ion-electron system (eV)
  ---------------------------------------------------
  alpha Z        PSCENC =        41.16232785
  Ewald energy   TEWEN  =     16692.78509724
  -Hartree energ DENC   =    -33668.56422236
  -exchange      EXHF   =         0.00000000
  -V(xc)+E(xc)   XCENC  =       615.84211133
  PAW double counting   =     17707.71705271   -19106.97572224
  entropy T*S    EENTRO =         0.00796097
  eigenvalues    EBANDS =      -993.25762252
  atomic energy  EATOM  =     18662.21924712
  Solvation  Ediel_sol  =         0.00000000
  ---------------------------------------------------
  free energy    TOTEN  =       -49.06376989 eV

  energy without entropy =      -49.07173086  energy(sigma->0) =      -49.06642354


--------------------------------------------------------------------------------------------------------




--------------------------------------- Iteration      1(  20)  ---------------------------------------


    POTLOK:  cpu time    1.1645: real time    1.1658
    SETDIJ:  cpu time    0.0194: real time    0.0194
    EDDIAG:  cpu time    1.0880: real time    1.0886
  RMM-DIIS:  cpu time    6.5363: real time    6.5404
    ORTHCH:  cpu time    0.0597: real time    0.0597
       DOS:  cpu time    0.0006: real time    0.0006
    CHARGE:  cpu time    0.6514: real time    0.6519
    MIXING:  cpu time    0.0355: real time    0.0355
    --------------------------------------------
      LOOP:  cpu time    9.5554: real time    9.5619

 eigenvalue-minimisations  :   401
 total energy-change (2. order) :-0.5959412E-03  (-0.4373990E-05)
 number of electron     153.0000008 magnetization       1.0000000
 augmentation part       92.3797749 magnetization       0.0861704

 Broyden mixing:
  rms(total) = 0.77537E-03    rms(broyden)= 0.77533E-03
  rms(prec ) = 0.13426E-02
  weight for this iteration     100.00

 eigenvalues of (default mixing * dielectric matrix)
  average eigenvalue GAMMA=   1.4535
  6.4168  2.7744  2.2577  2.0109  1.2999  1.2290  0.8627  0.8627  0.7474  0.7474
  0.6465  0.4408  0.5282  0.5044  0.4743

 Free energy of the ion-electron system (eV)
  ---------------------------------------------------
  alpha Z        PSCENC =        41.16232785
  Ewald energy   TEWEN  =     16692.78509724
  -Hartree energ DENC   =    -33668.67033308
  -exchange      EXHF   =         0.00000000
  -V(xc)+E(xc)   XCENC  =       615.84030706
  PAW double counting   =     17707.91260511   -19107.17242833
  entropy T*S    EENTRO =         0.00796166
  eigenvalues    EBANDS =      -993.14915045
  atomic energy  EATOM  =     18662.21924712
  Solvation  Ediel_sol  =         0.00000000
  ---------------------------------------------------
  free energy    TOTEN  =       -49.06436583 eV

  energy without entropy =      -49.07232748  energy(sigma->0) =      -49.06701971


--------------------------------------------------------------------------------------------------------




--------------------------------------- Iteration      1(  21)  ---------------------------------------


    POTLOK:  cpu time    1.1631: real time    1.1645
    SETDIJ:  cpu time    0.0190: real time    0.0190
    EDDIAG:  cpu time    1.0888: real time    1.0895
  RMM-DIIS:  cpu time    6.5587: real time    6.5624
    ORTHCH:  cpu time    0.0595: real time    0.0595
       DOS:  cpu time    0.0006: real time    0.0006
    CHARGE:  cpu time    0.6525: real time    0.6530
    MIXING:  cpu time    0.0371: real time    0.0371
    --------------------------------------------
      LOOP:  cpu time    9.5794: real time    9.5855

 eigenvalue-minimisations  :   400
 total energy-change (2. order) :-0.4023560E-03  (-0.3577859E-05)
 number of electron     153.0000008 magnetization       1.0000000
 augmentation part       92.3814398 magnetization       0.0861631

 Broyden mixing:
  rms(total) = 0.68314E-03    rms(broyden)= 0.68310E-03
  rms(prec ) = 0.10209E-02
  weight for this iteration     100.00

 eigenvalues of (default mixing * dielectric matrix)
  average eigenvalue GAMMA=   1.4913
  6.6781  3.1160  2.4747  2.1083  1.4041  1.4041  0.9515  0.9515  0.7554  0.7554
  0.6732  0.6480  0.4409  0.5293  0.4987  0.4723

 Free energy of the ion-electron system (eV)
  ---------------------------------------------------
  alpha Z        PSCENC =        41.16232785
  Ewald energy   TEWEN  =     16692.78509724
  -Hartree energ DENC   =    -33668.62999321
  -exchange      EXHF   =         0.00000000
  -V(xc)+E(xc)   XCENC  =       615.83760583
  PAW double counting   =     17708.09055508   -19107.34132474
  entropy T*S    EENTRO =         0.00796120
  eigenvalues    EBANDS =      -993.19624454
  atomic energy  EATOM  =     18662.21924712
  Solvation  Ediel_sol  =         0.00000000
  ---------------------------------------------------
  free energy    TOTEN  =       -49.06476818 eV

  energy without entropy =      -49.07272938  energy(sigma->0) =      -49.06742192


--------------------------------------------------------------------------------------------------------




--------------------------------------- Iteration      1(  22)  ---------------------------------------


    POTLOK:  cpu time    1.1639: real time    1.1653
    SETDIJ:  cpu time    0.0189: real time    0.0189
    EDDIAG:  cpu time    1.0870: real time    1.0878
  RMM-DIIS:  cpu time    6.6736: real time    6.6775
    ORTHCH:  cpu time    0.0592: real time    0.0592
       DOS:  cpu time    0.0006: real time    0.0006
    CHARGE:  cpu time    0.6500: real time    0.6505
    MIXING:  cpu time    0.0388: real time    0.0388
    --------------------------------------------
      LOOP:  cpu time    9.6919: real time    9.6985

 eigenvalue-minimisations  :   400
 total energy-change (2. order) :-0.2706871E-03  (-0.2053279E-05)
 number of electron     153.0000008 magnetization       1.0000000
 augmentation part       92.3811369 magnetization       0.0861559

 Broyden mixing:
  rms(total) = 0.41031E-03    rms(broyden)= 0.41028E-03
  rms(prec ) = 0.64155E-03
  weight for this iteration     100.00

 eigenvalues of (default mixing * dielectric matrix)
  average eigenvalue GAMMA=   1.5338
  7.0204  3.8935  2.4680  2.1141  1.5259  1.5259  0.9380  0.9282  0.9282  0.7730
  0.7730  0.6726  0.4408  0.5689  0.5340  0.4736  0.4965

 Free energy of the ion-electron system (eV)
  ---------------------------------------------------
  alpha Z        PSCENC =        41.16232785
  Ewald energy   TEWEN  =     16692.78509724
  -Hartree energ DENC   =    -33668.71546147
  -exchange      EXHF   =         0.00000000
  -V(xc)+E(xc)   XCENC  =       615.83695830
  PAW double counting   =     17708.36289821   -19107.62043629
  entropy T*S    EENTRO =         0.00796154
  eigenvalues    EBANDS =      -993.10363135
  atomic energy  EATOM  =     18662.21924712
  Solvation  Ediel_sol  =         0.00000000
  ---------------------------------------------------
  free energy    TOTEN  =       -49.06503887 eV

  energy without entropy =      -49.07300041  energy(sigma->0) =      -49.06769272


--------------------------------------------------------------------------------------------------------




--------------------------------------- Iteration      1(  23)  ---------------------------------------


    POTLOK:  cpu time    1.1635: real time    1.1655
    SETDIJ:  cpu time    0.0191: real time    0.0191
    EDDIAG:  cpu time    1.0875: real time    1.0881
  RMM-DIIS:  cpu time    6.6329: real time    6.6532
    ORTHCH:  cpu time    0.0608: real time    0.0609
       DOS:  cpu time    0.0006: real time    0.0005
    CHARGE:  cpu time    0.6439: real time    0.6534
    MIXING:  cpu time    0.0415: real time    0.0415
    --------------------------------------------
      LOOP:  cpu time    9.6497: real time    9.6821

 eigenvalue-minimisations  :   404
 total energy-change (2. order) :-0.1385249E-03  (-0.9133749E-06)
 number of electron     153.0000008 magnetization       1.0000000
 augmentation part       92.3803712 magnetization       0.0861438

 Broyden mixing:
  rms(total) = 0.24853E-03    rms(broyden)= 0.24851E-03
  rms(prec ) = 0.38840E-03
  weight for this iteration     100.00

 eigenvalues of (default mixing * dielectric matrix)
  average eigenvalue GAMMA=   1.5641
  7.4499  4.2593  2.4425  2.1843  1.8638  1.3025  1.3025  0.9606  0.9606  0.7708
  0.7708  0.6872  0.6872  0.4408  0.5731  0.4737  0.5011  0.5233

 Free energy of the ion-electron system (eV)
  ---------------------------------------------------
  alpha Z        PSCENC =        41.16232785
  Ewald energy   TEWEN  =     16692.78509724
  -Hartree energ DENC   =    -33668.80192389
  -exchange      EXHF   =         0.00000000
  -V(xc)+E(xc)   XCENC  =       615.83740424
  PAW double counting   =     17708.42313371   -19107.68654639
  entropy T*S    EENTRO =         0.00796178
  eigenvalues    EBANDS =      -993.01187907
  atomic energy  EATOM  =     18662.21924712
  Solvation  Ediel_sol  =         0.00000000
  ---------------------------------------------------
  free energy    TOTEN  =       -49.06517740 eV

  energy without entropy =      -49.07313917  energy(sigma->0) =      -49.06783132


--------------------------------------------------------------------------------------------------------




--------------------------------------- Iteration      1(  24)  ---------------------------------------


    POTLOK:  cpu time    1.1643: real time    1.1664
    SETDIJ:  cpu time    0.0185: real time    0.0185
    EDDIAG:  cpu time    1.0887: real time    1.0893
  RMM-DIIS:  cpu time    6.6912: real time    6.6951
    ORTHCH:  cpu time    0.0599: real time    0.0599
       DOS:  cpu time    0.0006: real time    0.0006
    CHARGE:  cpu time    0.6510: real time    0.6512
    MIXING:  cpu time    0.0428: real time    0.0428
    --------------------------------------------
      LOOP:  cpu time    9.7170: real time    9.7238

 eigenvalue-minimisations  :   403
 total energy-change (2. order) :-0.9681993E-04  (-0.6715357E-06)
 number of electron     153.0000008 magnetization       1.0000000
 augmentation part       92.3803608 magnetization       0.0861450

 Broyden mixing:
  rms(total) = 0.13705E-03    rms(broyden)= 0.13702E-03
  rms(prec ) = 0.23583E-03
  weight for this iteration     100.00

 eigenvalues of (default mixing * dielectric matrix)
  average eigenvalue GAMMA=   1.5763
  7.7213  4.5635  2.4011  2.4011  1.8364  1.4149  1.4149  0.9828  0.9828  0.7986
  0.7986  0.7492  0.7492  0.6239  0.4408  0.5689  0.4734  0.4986  0.5295

 Free energy of the ion-electron system (eV)
  ---------------------------------------------------
  alpha Z        PSCENC =        41.16232785
  Ewald energy   TEWEN  =     16692.78509724
  -Hartree energ DENC   =    -33668.81201734
  -exchange      EXHF   =         0.00000000
  -V(xc)+E(xc)   XCENC  =       615.83751177
  PAW double counting   =     17708.33750884   -19107.59887120
  entropy T*S    EENTRO =         0.00796194
  eigenvalues    EBANDS =      -993.00404043
  atomic energy  EATOM  =     18662.21924712
  Solvation  Ediel_sol  =         0.00000000
  ---------------------------------------------------
  free energy    TOTEN  =       -49.06527422 eV

  energy without entropy =      -49.07323615  energy(sigma->0) =      -49.06792819


--------------------------------------------------------------------------------------------------------




--------------------------------------- Iteration      1(  25)  ---------------------------------------


    POTLOK:  cpu time    1.1627: real time    1.1636
    SETDIJ:  cpu time    0.0192: real time    0.0192
    EDDIAG:  cpu time    1.0860: real time    1.0867
  RMM-DIIS:  cpu time    6.3130: real time    6.3164
    ORTHCH:  cpu time    0.0577: real time    0.0578
       DOS:  cpu time    0.0005: real time    0.0005
    CHARGE:  cpu time    0.6502: real time    0.6505
    MIXING:  cpu time    0.0454: real time    0.0455
    --------------------------------------------
      LOOP:  cpu time    9.3347: real time    9.3402

 eigenvalue-minimisations  :   387
 total energy-change (2. order) :-0.6968380E-04  (-0.5225103E-06)
 number of electron     153.0000008 magnetization       1.0000000
 augmentation part       92.3805455 magnetization       0.0861557

 Broyden mixing:
  rms(total) = 0.11577E-03    rms(broyden)= 0.11575E-03
  rms(prec ) = 0.17321E-03
  weight for this iteration     100.00

 eigenvalues of (default mixing * dielectric matrix)
  average eigenvalue GAMMA=   1.6336
  7.9613  5.1224  2.5880  2.5880  1.8739  1.8739  1.2840  1.2840  0.9886  0.9886
  0.7784  0.7784  0.7171  0.7171  0.6319  0.4408  0.4732  0.4997  0.5523  0.5312

 Free energy of the ion-electron system (eV)
  ---------------------------------------------------
  alpha Z        PSCENC =        41.16232785
  Ewald energy   TEWEN  =     16692.78509724
  -Hartree energ DENC   =    -33668.80225150
  -exchange      EXHF   =         0.00000000
  -V(xc)+E(xc)   XCENC  =       615.83733172
  PAW double counting   =     17708.24607932   -19107.50370402
  entropy T*S    EENTRO =         0.00796199
  eigenvalues    EBANDS =      -993.01743362
  atomic energy  EATOM  =     18662.21924712
  Solvation  Ediel_sol  =         0.00000000
  ---------------------------------------------------
  free energy    TOTEN  =       -49.06534390 eV

  energy without entropy =      -49.07330589  energy(sigma->0) =      -49.06799790


--------------------------------------------------------------------------------------------------------




--------------------------------------- Iteration      1(  26)  ---------------------------------------


    POTLOK:  cpu time    1.1629: real time    1.1644
    SETDIJ:  cpu time    0.0195: real time    0.0194
    EDDIAG:  cpu time    1.0875: real time    1.0881
  RMM-DIIS:  cpu time    6.2169: real time    6.2205
    ORTHCH:  cpu time    0.0583: real time    0.0583
       DOS:  cpu time    0.0004: real time    0.0004
    CHARGE:  cpu time    0.6517: real time    0.6522
    MIXING:  cpu time    0.0487: real time    0.0487
    --------------------------------------------
      LOOP:  cpu time    9.2459: real time    9.2519

 eigenvalue-minimisations  :   380
 total energy-change (2. order) :-0.3767380E-04  (-0.3557189E-06)
 number of electron     153.0000008 magnetization       1.0000000
 augmentation part       92.3806567 magnetization       0.0861594

 Broyden mixing:
  rms(total) = 0.65168E-04    rms(broyden)= 0.65165E-04
  rms(prec ) = 0.98987E-04
  weight for this iteration     100.00

 eigenvalues of (default mixing * dielectric matrix)
  average eigenvalue GAMMA=   1.6439
  8.1363  5.4363  3.0264  2.5110  1.9245  1.9245  1.3249  1.3249  0.9969  0.9969
  0.8231  0.8231  0.7481  0.7481  0.6393  0.6393  0.4408  0.4733  0.4998  0.5563
  0.5285

 Free energy of the ion-electron system (eV)
  ---------------------------------------------------
  alpha Z        PSCENC =        41.16232785
  Ewald energy   TEWEN  =     16692.78509724
  -Hartree energ DENC   =    -33668.80207272
  -exchange      EXHF   =         0.00000000
  -V(xc)+E(xc)   XCENC  =       615.83713756
  PAW double counting   =     17708.20135089   -19107.45676487
  entropy T*S    EENTRO =         0.00796169
  eigenvalues    EBANDS =      -993.01966634
  atomic energy  EATOM  =     18662.21924712
  Solvation  Ediel_sol  =         0.00000000
  ---------------------------------------------------
  free energy    TOTEN  =       -49.06538157 eV

  energy without entropy =      -49.07334327  energy(sigma->0) =      -49.06803547


--------------------------------------------------------------------------------------------------------




--------------------------------------- Iteration      1(  27)  ---------------------------------------


    POTLOK:  cpu time    1.1627: real time    1.1635
    SETDIJ:  cpu time    0.0194: real time    0.0194
    EDDIAG:  cpu time    1.0874: real time    1.0879
  RMM-DIIS:  cpu time    4.8821: real time    4.8848
    ORTHCH:  cpu time    0.0583: real time    0.0583
       DOS:  cpu time    0.0004: real time    0.0004
    CHARGE:  cpu time    0.6498: real time    0.6502
    MIXING:  cpu time    0.0531: real time    0.0532
    --------------------------------------------
      LOOP:  cpu time    7.9132: real time    7.9176

 eigenvalue-minimisations  :   279
 total energy-change (2. order) :-0.1336092E-04  (-0.1280550E-06)
 number of electron     153.0000008 magnetization       1.0000000
 augmentation part       92.3805900 magnetization       0.0861607

 Broyden mixing:
  rms(total) = 0.49107E-04    rms(broyden)= 0.49100E-04
  rms(prec ) = 0.71809E-04
  weight for this iteration     100.00

 eigenvalues of (default mixing * dielectric matrix)
  average eigenvalue GAMMA=   1.6512
  8.2113  5.6960  3.2588  2.5219  1.9407  1.9407  1.4437  1.2616  1.2616  1.0194
  1.0194  0.7717  0.7717  0.7613  0.6986  0.4408  0.6284  0.5902  0.5902  0.4733
  0.4994  0.5259

 Free energy of the ion-electron system (eV)
  ---------------------------------------------------
  alpha Z        PSCENC =        41.16232785
  Ewald energy   TEWEN  =     16692.78509724
  -Hartree energ DENC   =    -33668.80701094
  -exchange      EXHF   =         0.00000000
  -V(xc)+E(xc)   XCENC  =       615.83722027
  PAW double counting   =     17708.19620155   -19107.45227530
  entropy T*S    EENTRO =         0.00796178
  eigenvalues    EBANDS =      -993.01416451
  atomic energy  EATOM  =     18662.21924712
  Solvation  Ediel_sol  =         0.00000000
  ---------------------------------------------------
  free energy    TOTEN  =       -49.06539493 eV

  energy without entropy =      -49.07335672  energy(sigma->0) =      -49.06804886


--------------------------------------------------------------------------------------------------------




--------------------------------------- Iteration      1(  28)  ---------------------------------------


    POTLOK:  cpu time    1.1622: real time    1.1640
    SETDIJ:  cpu time    0.0192: real time    0.0192
    EDDIAG:  cpu time    1.0865: real time    1.0873
  RMM-DIIS:  cpu time    4.4565: real time    4.4595
    ORTHCH:  cpu time    0.0583: real time    0.0583
       DOS:  cpu time    0.0004: real time    0.0004
    CHARGE:  cpu time    0.6502: real time    0.6507
[...]
     66      -4.9267      1.00000
     67      -4.9143      1.00000
     68      -4.8696      1.00000
     69      -4.8580      1.00000
     70      -4.8249      1.00000
     71      -4.8105      1.00000
     72      -4.7893      1.00000
     73      -4.7252      1.00000
     74      -4.5346      1.00000
     75      -4.2229      1.00000
     76      -4.1448      1.00000
     77      -3.4614      1.00000
     78      -3.0242     -0.00000
     79      -2.8363     -0.00000
     80      -2.4893     -0.00000
     81      -2.3076     -0.00000
     82      -1.9817     -0.00000
     83      -1.8324     -0.00000
     84      -1.7007     -0.00000
     85      -1.3504     -0.00000
     86      -0.9839     -0.00000
     87      -0.9080     -0.00000
     88      -0.7131     -0.00000
     89      -0.3580      0.00000
     90      -0.2857      0.00000
     91      -0.1841      0.00000
     92       0.1289      0.00000

 spin component 2

 k-point     1 :       0.0000    0.0000    0.0000
  band No.  band energies     occupation 
      1     -28.4962      1.00000
      2     -13.7591      1.00000
      3     -11.3576      1.00000
      4     -11.1367      1.00000
      5     -10.9125      1.00000
      6     -10.1780      1.00000
      7      -8.6902      1.00000
      8      -8.2048      1.00000
      9      -7.7260      1.00000
     10      -7.6289      1.00000
     11      -7.4998      1.00000
     12      -7.3688      1.00000
     13      -7.3494      1.00000
     14      -7.1990      1.00000
     15      -7.0589      1.00000
     16      -6.9604      1.00000
     17      -6.8857      1.00000
     18      -6.7825      1.00000
     19      -6.7721      1.00000
     20      -6.7017      1.00000
     21      -6.6487      1.00000
     22      -6.5532      1.00000
     23      -6.4866      1.00000
     24      -6.4735      1.00000
     25      -6.4161      1.00000
     26      -6.3740      1.00000
     27      -6.3417      1.00000
     28      -6.2797      1.00000
     29      -6.2404      1.00000
     30      -6.2046      1.00000
     31      -6.1523      1.00000
     32      -6.1225      1.00000
     33      -6.0463      1.00000
     34      -6.0051      1.00000
     35      -5.9158      1.00000
     36      -5.8072      1.00000
     37      -5.7892      1.00000
     38      -5.7228      1.00000
     39      -5.6572      1.00000
     40      -5.6212      1.00000
     41      -5.6141      1.00000
     42      -5.5532      1.00000
     43      -5.5076      1.00000
     44      -5.4684      1.00000
     45      -5.4559      1.00000
     46      -5.4095      1.00000
     47      -5.3595      1.00000
     48      -5.3422      1.00000
     49      -5.3142      1.00000
     50      -5.3042      1.00000
     51      -5.2703      1.00000
     52      -5.2595      1.00000
     53      -5.2435      1.00000
     54      -5.2043      1.00000
     55      -5.1790      1.00000
     56      -5.1533      1.00000
     57      -5.1335      1.00000
     58      -5.1276      1.00000
     59      -5.0910      1.00000
     60      -5.0571      1.00000
     61      -5.0252      1.00000
     62      -4.9906      1.00000
     63      -4.9747      1.00000
     64      -4.9678      1.00000
     65      -4.9139      1.00000
     66      -4.8998      1.00000
     67      -4.8912      1.00000
     68      -4.8314      1.00000
     69      -4.8184      1.00000
     70      -4.7932      1.00000
     71      -4.7734      1.00000
     72      -4.7693      1.00000
     73      -4.6957      1.00000
     74      -4.4879      1.00000
     75      -4.1815      1.01755
     76      -4.0864      0.98245
     77      -3.2563     -0.00000
     78      -2.9700     -0.00000
     79      -2.7858     -0.00000
     80      -2.4172     -0.00000
     81      -2.2100     -0.00000
     82      -1.9511     -0.00000
     83      -1.7598     -0.00000
     84      -1.6244     -0.00000
     85      -1.2246      0.00000
     86      -0.9016      0.00000
     87      -0.8058      0.00000
     88      -0.6177      0.00000
     89      -0.2679      0.00000
     90      -0.2480      0.00000
     91      -0.0926      0.00000
     92       0.1836      0.00000


--------------------------------------------------------------------------------------------------------


 soft charge-density along one line, spin component           1
         0         1         2         3         4         5         6         7         8         9
 total charge-density along one line
 
 soft charge-density along one line, spin component           2
         0         1         2         3         4         5         6         7         8         9
 total charge-density along one line
 
 pseudopotential strength for first ion, spin component:           1
-10.443   0.000  -0.011  -0.001  -0.010   0.961  -0.000   0.010
  0.000 -10.425  -0.007   0.005   0.006  -0.000   0.948   0.005
 -0.011  -0.007 -10.414   0.004  -0.004   0.010   0.005   0.938
 -0.001   0.005   0.004 -10.424   0.001   0.000  -0.005  -0.003
 -0.010   0.006  -0.004   0.001 -10.431   0.007  -0.004   0.004
  0.961  -0.000   0.010   0.000   0.007   6.334  -0.000  -0.008
 -0.000   0.948   0.005  -0.005  -0.004  -0.000   6.341  -0.004
  0.010   0.005   0.938  -0.003   0.004  -0.008  -0.004   6.349
  0.000  -0.005  -0.003   0.944  -0.001  -0.000   0.005   0.002
  0.007  -0.004   0.004  -0.001   0.952  -0.005   0.003  -0.004
 -0.006   0.001  -0.004  -0.000  -0.003   0.004   0.000  -0.001
 -0.011   0.001  -0.007  -0.000  -0.006   0.008   0.000  -0.001
 -0.015  -0.000   0.005  -0.000   0.009   0.010   0.000  -0.003
 -0.000  -0.007  -0.001  -0.014  -0.000   0.000   0.004   0.001
 -0.006  -0.000   0.009  -0.001  -0.014   0.002   0.000  -0.006
 -0.016  -0.000   0.005  -0.000   0.010   0.009   0.000  -0.003
 -0.000  -0.007  -0.001  -0.014  -0.000   0.000   0.003   0.001
 -0.006  -0.000   0.010  -0.001  -0.015   0.000   0.000  -0.006
 pseudopotential strength for first ion, spin component:           2
-10.410   0.002  -0.006  -0.011   0.004   0.934  -0.002   0.005
  0.002 -10.415  -0.008   0.003   0.005  -0.002   0.938   0.006
 -0.006  -0.008 -10.403   0.003  -0.002   0.005   0.006   0.929
 -0.011   0.003   0.003 -10.409  -0.003   0.008  -0.003  -0.002
  0.004   0.005  -0.002  -0.003 -10.416  -0.003  -0.004   0.002
  0.934  -0.002   0.005   0.008  -0.003   6.351   0.002  -0.003
 -0.002   0.938   0.006  -0.003  -0.004   0.002   6.346  -0.004
  0.005   0.006   0.929  -0.002   0.002  -0.003  -0.004   6.353
  0.008  -0.003  -0.002   0.932   0.002  -0.005   0.002   0.002
 -0.003  -0.004   0.002   0.002   0.939   0.002   0.003  -0.002
 -0.002   0.002  -0.002  -0.001  -0.001   0.000  -0.000  -0.002
 -0.004   0.004  -0.003  -0.002  -0.003   0.000  -0.000  -0.003
 -0.016  -0.000   0.005   0.000   0.008   0.012  -0.001  -0.004
  0.000  -0.008  -0.000  -0.015   0.000  -0.000   0.005  -0.001
 -0.009   0.000   0.009   0.000  -0.016   0.006  -0.000  -0.008
 -0.017   0.000   0.006   0.001   0.009   0.014  -0.001  -0.004
  0.001  -0.009  -0.000  -0.017   0.000  -0.001   0.005  -0.001
 -0.011   0.001   0.011   0.001  -0.018   0.006  -0.001  -0.009
 total augmentation occupancy for first ion, spin component:           1
  1.935   0.003  -0.006   0.000  -0.005  -0.014   0.000   0.006   0.000   0.003  -0.012   0.012   0.039   0.004   0.024  -0.022
  0.003   1.929  -0.005   0.005  -0.000   0.000  -0.020   0.005  -0.001  -0.000  -0.001   0.000   0.006   0.033  -0.001  -0.001
 -0.006  -0.005   1.949   0.003  -0.003   0.006   0.005  -0.028  -0.004   0.002  -0.001   0.010  -0.007  -0.002  -0.022   0.006
  0.000   0.005   0.003   1.937  -0.003   0.000  -0.001  -0.004  -0.021   0.000   0.000   0.001   0.008   0.064  -0.001  -0.000
 -0.005  -0.000  -0.003  -0.003   1.939   0.003  -0.000   0.002   0.000  -0.017  -0.009   0.007  -0.009   0.001   0.039   0.011
 -0.014   0.000   0.006   0.000   0.003   0.012   0.000   0.002   0.000   0.000  -0.025  -0.000   0.023   0.000   0.003  -0.001
  0.000  -0.020   0.005  -0.001  -0.000   0.000   0.006   0.000   0.001  -0.000   0.007  -0.001   0.001   0.008   0.002  -0.000
  0.006   0.005  -0.028  -0.004   0.002   0.002   0.000   0.006  -0.000   0.001  -0.035   0.005  -0.003  -0.002  -0.008   0.000
  0.000  -0.001  -0.004  -0.021   0.000   0.000   0.001  -0.000   0.008  -0.001  -0.005   0.001  -0.000   0.019  -0.003  -0.000
  0.003  -0.000   0.002   0.000  -0.017   0.000  -0.000   0.001  -0.001   0.011  -0.009  -0.001  -0.017  -0.003   0.021   0.001
 -0.012  -0.001  -0.001   0.000  -0.009  -0.025   0.007  -0.035  -0.005  -0.009   1.579  -0.107   0.084  -0.002   0.194  -0.013
  0.012   0.000   0.010   0.001   0.007  -0.000  -0.001   0.005   0.001  -0.001  -0.107   0.013  -0.013   0.002  -0.027   0.001
  0.039   0.006  -0.007   0.008  -0.009   0.023   0.001  -0.003  -0.000  -0.017   0.084  -0.013   0.163   0.001  -0.035  -0.010
  0.004   0.033  -0.002   0.064   0.001   0.000   0.008  -0.002   0.019  -0.003  -0.002   0.002   0.001   0.075  -0.008  -0.000
  0.024  -0.001  -0.022  -0.001   0.039   0.003   0.002  -0.008  -0.003   0.021   0.194  -0.027  -0.035  -0.008   0.128   0.001
 -0.022  -0.001   0.006  -0.000   0.011  -0.001  -0.000   0.000  -0.000   0.001  -0.013   0.001  -0.010  -0.000   0.001   0.001
 -0.000  -0.012  -0.001  -0.024   0.000  -0.000  -0.000   0.000  -0.001   0.000   0.001  -0.000  -0.000  -0.005   0.000   0.000
 -0.011  -0.000   0.012  -0.001  -0.022   0.000  -0.000   0.001   0.000  -0.001  -0.027   0.003   0.001   0.000  -0.010   0.000
 total augmentation occupancy for first ion, spin component:           2
  0.014  -0.000   0.001  -0.006   0.007  -0.001  -0.001  -0.001   0.001  -0.002   0.032   0.006  -0.008   0.006  -0.015  -0.001
 -0.000   0.000  -0.000   0.001  -0.000  -0.001   0.001  -0.000   0.001   0.000   0.001  -0.000   0.001  -0.001   0.000   0.000
  0.001  -0.000   0.001  -0.001   0.000  -0.001  -0.000   0.002   0.000  -0.001   0.004   0.000   0.000   0.003   0.000   0.000
 -0.006   0.001  -0.001   0.004  -0.003   0.002   0.001   0.000   0.002   0.000  -0.014  -0.003   0.002  -0.007   0.007   0.000
  0.007  -0.000   0.000  -0.003   0.004  -0.002   0.000  -0.001   0.000   0.001   0.018   0.003  -0.001   0.003  -0.011  -0.000
 -0.001  -0.001  -0.001   0.002  -0.002   0.001   0.000   0.000  -0.000   0.000  -0.008  -0.001   0.001  -0.002   0.004   0.000
 -0.001   0.001  -0.000   0.001   0.000   0.000  -0.000   0.000  -0.000  -0.000  -0.000   0.000   0.000   0.000  -0.000  -0.000
 -0.001  -0.000   0.002   0.000  -0.001   0.000   0.000  -0.000  -0.000   0.000  -0.002  -0.000   0.000  -0.000   0.001   0.000
  0.001   0.001   0.000   0.002   0.000  -0.000  -0.000  -0.000  -0.000  -0.000   0.003   0.000  -0.001   0.001  -0.001  -0.000
 -0.002   0.000  -0.001   0.000   0.001   0.000  -0.000   0.000  -0.000  -0.000  -0.003  -0.000   0.001  -0.001   0.002   0.000
  0.032   0.001   0.004  -0.014   0.018  -0.008  -0.000  -0.002   0.003  -0.003   0.086   0.005  -0.013   0.017  -0.040  -0.000
  0.006  -0.000   0.000  -0.003   0.003  -0.001   0.000  -0.000   0.000  -0.000   0.005   0.001  -0.001   0.001  -0.002  -0.000
 -0.008   0.001   0.000   0.002  -0.001   0.001   0.000   0.000  -0.001   0.001  -0.013  -0.001   0.003  -0.002   0.003   0.000
  0.006  -0.001   0.003  -0.007   0.003  -0.002   0.000  -0.000   0.001  -0.001   0.017   0.001  -0.002   0.003  -0.006  -0.000
 -0.015   0.000   0.000   0.007  -0.011   0.004  -0.000   0.001  -0.001   0.002  -0.040  -0.002   0.003  -0.006   0.014   0.000
 -0.001   0.000   0.000   0.000  -0.000   0.000  -0.000   0.000  -0.000   0.000  -0.000  -0.000   0.000  -0.000   0.000   0.000
  0.000  -0.000   0.000  -0.001   0.000   0.000  -0.000  -0.000  -0.000   0.000  -0.000   0.000   0.000   0.000  -0.000  -0.000
 -0.001   0.000   0.000   0.001  -0.001   0.000   0.000   0.000  -0.000   0.000  -0.000  -0.000   0.000  -0.000   0.000   0.000


------------------------ aborting loop because EDIFF is reached ----------------------------------------


    CHARGE:  cpu time    0.6488: real time    0.6492
    FORLOC:  cpu time    0.0646: real time    0.0646
    FORNL :  cpu time    1.5309: real time    1.5316
    STRESS:  cpu time    6.0140: real time    6.0179
    FORCOR:  cpu time    1.1731: real time    1.1742
    FORHAR:  cpu time    0.1902: real time    0.1902
    MIXING:  cpu time    0.1118: real time    0.1119
    OFIELD:  cpu time    0.0000: real time    0.0001

  FORCE on cell =-STRESS in cart. coord.  units (eV):
  Direction    XX          YY          ZZ          XY          YZ          ZX
  --------------------------------------------------------------------------------------
  Alpha Z    41.16233    41.16233    41.16233
  Ewald   10324.46714  7907.12827 -1538.82604  -878.75319   188.16070   306.32593
  Hartree 15425.18469 13362.01150  4881.61725  -814.52020   164.97166   289.78340
  E(xc)    -876.55278  -878.04709  -879.83931    -0.00296     0.00963    -0.01026
  Local  -27144.30528-22701.71126 -4782.75054  1696.60886  -352.27936  -598.51406
  n-local  -327.67780  -320.11460  -326.21131    -1.28715    -0.11651     1.60323
  augment  1222.32699  1226.50708  1232.98359    -0.06343    -0.54473    -0.50649
  Kinetic  1336.88470  1363.91571  1372.27039    -1.66936    -0.27588     1.22083
  Fock        0.00000     0.00000     0.00000     0.00000     0.00000     0.00000
  -------------------------------------------------------------------------------------
  Total       1.48999     0.85194     0.40635     0.31256    -0.07450    -0.09741
  in kB       0.70733     0.40443     0.19290     0.14838    -0.03537    -0.04624
  external pressure =        0.43 kB  Pullay stress =        0.00 kB


 VOLUME and BASIS-vectors are now :
 -----------------------------------------------------------------------------
  energy-cutoff  :      600.00
  volume of cell :     3375.00
      direct lattice vectors                 reciprocal lattice vectors
    15.000000000  0.000000000  0.000000000     0.066666667  0.000000000  0.000000000
     0.000000000 15.000000000  0.000000000     0.000000000  0.066666667  0.000000000
     0.000000000  0.000000000 15.000000000     0.000000000  0.000000000  0.066666667

  length of vectors
    15.000000000 15.000000000 15.000000000     0.066666667  0.066666667  0.066666667


 FORCES acting on ions
    electron-ion (+dipol)            ewald-force                    non-local-force                 convergence-correction
 -----------------------------------------------------------------------------------------------
   0.113E+04 0.640E+03 -.389E+02   -.113E+04 -.637E+03 0.392E+02   -.559E+01 -.248E+01 -.296E+00   -.217E-04 -.709E-05 0.258E-05
   0.460E+03 -.322E+03 0.931E+03   -.459E+03 0.320E+03 -.931E+03   -.167E+01 0.231E+01 -.256E-02   -.116E-04 -.179E-05 -.322E-04
   0.310E+03 0.130E+04 -.248E+03   -.309E+03 -.129E+04 0.245E+03   -.123E+01 -.894E+01 0.257E+01   0.896E-05 -.209E-04 0.185E-05
   -.883E+03 -.148E+03 0.926E+03   0.880E+03 0.147E+03 -.922E+03   0.335E+01 0.500E+00 -.386E+01   0.254E-04 -.747E-05 0.191E-04
   -.841E+03 0.104E+04 0.227E+03   0.836E+03 -.103E+04 -.225E+03   0.471E+01 -.689E+01 -.272E+01   0.199E-05 0.100E-04 0.244E-04
   -.731E+02 0.490E+03 -.929E+03   0.732E+02 -.487E+03 0.929E+03   -.142E+00 -.209E+01 0.764E-01   0.332E-04 -.150E-04 0.359E-04
   0.210E+03 0.665E+03 0.122E+04   -.209E+03 -.660E+03 -.121E+04   -.105E+01 -.439E+01 -.586E+01   0.436E-05 -.607E-05 0.315E-05
   0.123E+04 -.363E+03 0.195E+03   -.122E+04 0.360E+03 -.192E+03   -.900E+01 0.260E+01 -.309E+01   -.349E-04 -.828E-05 -.374E-05
   0.610E+03 -.189E+03 -.121E+04   -.606E+03 0.189E+03 0.121E+04   -.401E+01 -.367E-01 0.656E+01   -.132E-06 -.746E-05 0.128E-04
   0.440E+03 -.127E+04 -.167E+03   -.438E+03 0.126E+04 0.165E+03   -.236E+01 0.762E+01 0.163E+01   -.613E-05 0.353E-04 -.737E-05
   -.499E+03 -.106E+04 0.721E+03   0.495E+03 0.106E+04 -.714E+03   0.367E+01 0.630E+01 -.662E+01   -.584E-06 0.202E-04 0.652E-05
   -.867E+03 0.546E+02 -.565E+03   0.866E+03 -.548E+02 0.560E+03   0.113E+01 0.300E+00 0.463E+01   -.212E-04 -.692E-05 0.162E-05
   -.576E+03 -.794E+03 -.842E+03   0.573E+03 0.790E+03 0.839E+03   0.284E+01 0.388E+01 0.296E+01   0.333E-04 -.209E-04 0.164E-04
   -.144E+03 -.439E+01 -.159E+03   0.124E+03 0.269E+01 0.162E+03   0.198E+02 0.161E+01 -.338E+01   -.197E-04 -.326E-05 -.219E-05
   -.462E+03 -.310E+02 -.576E+02   0.523E+03 0.360E+02 0.501E+02   -.595E+02 -.493E+01 0.752E+01   0.127E-04 0.213E-06 -.231E-05
 -----------------------------------------------------------------------------------------------
   0.491E+02 0.464E+01 -.123E+00   0.114E-12 -.917E-12 0.178E-12   -.490E+02 -.465E+01 0.120E+00   0.397E-05 -.394E-04 0.765E-04
 
 
 POSITION                                       TOTAL-FORCE (eV/Angst)
 -----------------------------------------------------------------------------------
      4.31681      6.25691      8.33015         0.263624      0.443791      0.009211
      5.69726      8.22164      7.35266        -0.498694      0.017816      0.052086
      5.93153      4.42587      8.53034        -0.089185     -0.521203      0.004865
      7.98655      7.56559      7.24825         0.287643      0.101155     -0.211892
      8.29418      5.21774      7.96743        -0.022876     -0.199225     -0.184639
      6.74040      6.51376      9.14228        -0.050962      0.452420      0.235920
      6.23713      5.95332      6.74281         0.012482     -0.071039      0.035042
      3.43182      8.64860      8.11490         0.090047     -0.165095      0.100943
      5.08541      8.18898      9.79344        -0.166408     -0.106559     -0.161136
      5.28409     10.28370      8.54095         0.100866     -0.033422     -0.068583
      7.33835      9.98318      7.13748         0.013982      0.161811     -0.084212
      9.18524      7.12975      9.27170        -0.368105      0.060416      0.000014
      7.30090      8.91552      9.21451         0.105296     -0.162071      0.150908
     10.93760      7.33999      9.66127        -0.556229     -0.092595      0.147038
     12.07400      7.43588      9.52065         0.878519      0.113800     -0.025565
 -----------------------------------------------------------------------------------
    total drift:                                0.004199     -0.005352     -0.003370


--------------------------------------------------------------------------------------------------------



  FREE ENERGIE OF THE ION-ELECTRON SYSTEM (eV)
  ---------------------------------------------------
  free  energy   TOTEN  =       -49.06540860 eV

  energy  without entropy=      -49.07337064  energy(sigma->0) =      -49.06806262
 


--------------------------------------------------------------------------------------------------------


    POTLOK:  cpu time    1.1878: real time    1.1885


--------------------------------------------------------------------------------------------------------


     LOOP+:  cpu time  345.3045: real time  345.5819
    4ORBIT:  cpu time    0.0000: real time    0.0000

 total amount of memory used by VASP MPI-rank0   158680. kBytes
=======================================================================

   base      :      30000. kBytes
   nonl-proj :      12601. kBytes
   fftplans  :      27994. kBytes
   grid      :      74150. kBytes
   one-center:         93. kBytes
   wavefun   :      13842. kBytes
 
  
  
 General timing and accounting informations for this job:
 ========================================================
  
                  Total CPU time used (sec):      349.315
                            User time (sec):      336.622
                          System time (sec):       12.693
                         Elapsed time (sec):      349.634
  
                   Maximum memory used (kb):      285592.
                   Average memory used (kb):           0.
  
                          Minor page faults:       275999
                          Major page faults:            0
                 Voluntary context switches:          718
