<?xml version="1.0" encoding="ISO-8859-1"?>
<modeling>
 <generator>
  <i name="program" type="string">vasp </i>
  <i name="version" type="string">5.4.4.18Apr17-6-g9f103f2a35  </i>
  <i name="subversion" type="string">(build May 08 2019 13:49:07) complex            parallel </i>
  <i name="platform" type="string">LinuxIFC </i>
  <i name="date" type="string">2019 11 13 </i>
  <i name="time" type="string">15:13:59 </i>
 </generator>
 <incar>
  <i type="string" name="SYSTEM"> CuCO</i>
  <i type="int" name="ISTART">     0</i>
  <i type="string" name="PREC">accurate</i>
  <i type="string" name="ALGO"> Fast</i>
  <i type="int" name="ISPIN">     2</i>
  <i type="int" name="INIWAV">     1</i>
  <i type="int" name="NELM">   300</i>
  <i type="int" name="NELMIN">     3</i>
  <i type="int" name="IBRION">    -1</i>
  <i name="EDIFF">      0.00000010</i>
  <i name="EDIFFG">     -0.00100000</i>
  <i type="int" name="NSW">     0</i>
  <i type="int" name="ISYM">     0</i>
  <i name="ENCUT">    600.00000000</i>
  <i name="NUPDOWN">      1.00000000</i>
  <i type="logical" name="LREAL"> F  </i>
  <i type="int" name="ISMEAR">     1</i>
  <i name="SIGMA">      0.10000000</i>
  <i name="KSPACING">      0.50000000</i>
  <i type="logical" name="KGAMMA"> F  </i>
  <i type="logical" name="LWAVE"> F  </i>
  <i type="logical" name="LCHARG"> F  </i>
  <v type="int" name="KPOINT_BSE">    -1     0     0     0</v>
  <i type="int" name="NELM">   300</i>
  <i type="string" name="GGA"> PE</i>
 </incar>
 <structure name="primitive_cell" >
  <crystal>
   <varray name="basis" >
    <v>      15.00000000       0.00000000       0.00000000 </v>
    <v>       0.00000000      15.00000000       0.00000000 </v>
    <v>       0.00000000       0.00000000      15.00000000 </v>
   </varray>
   <i name="volume">   3375.00000000 </i>
   <varray name="rec_basis" >
    <v>       0.06666667       0.00000000       0.00000000 </v>
    <v>       0.00000000       0.06666667       0.00000000 </v>
    <v>       0.00000000       0.00000000       0.06666667 </v>
   </varray>
  </crystal>
  <varray name="positions" >
   <v>       0.29306533       0.40968667      -0.44359200 </v>
   <v>       0.44573733       0.44097667      -0.39489600 </v>
   <v>       0.40917867       0.29459667      -0.44176267 </v>
   <v>       0.36478200      -0.45569200       0.48846600 </v>
   <v>       0.22505267      -0.43622067      -0.43917533 </v>
   <v>       0.33563533      -0.46239000      -0.33718867 </v>
   <v>       0.41929533       0.40116200       0.43698200 </v>
   <v>      -0.47574667      -0.48181933       0.47714400 </v>
   <v>       0.48469133      -0.41402333      -0.38124133 </v>
   <v>      -0.43806400       0.35988333      -0.47917800 </v>
   <v>       0.36253000      -0.31132000      -0.40811533 </v>
   <v>       0.47332667      -0.33803333       0.47743867 </v>
   <v>      -0.38160400       0.47593933      -0.39195200 </v>
   <v>      -0.26100667       0.49511267      -0.36320400 </v>
   <v>      -0.18616000      -0.49184333      -0.37491867 </v>
  </varray>
 </structure>
 <varray name="primitive_index" >
  <v type="int" >        1 </v>
  <v type="int" >        6 </v>
  <v type="int" >        3 </v>
  <v type="int" >        2 </v>
  <v type="int" >        8 </v>
  <v type="int" >        9 </v>
  <v type="int" >        7 </v>
  <v type="int" >        4 </v>
  <v type="int" >       13 </v>
  <v type="int" >        5 </v>
  <v type="int" >       10 </v>
  <v type="int" >       11 </v>
  <v type="int" >       12 </v>
  <v type="int" >       14 </v>
  <v type="int" >       15 </v>
 </varray>
 <kpoints>
  <generation param="Monkhorst-Pack">
   <v type="int" name="divisions">       1        1        1 </v>
   <v name="usershift">      0.00000000       0.00000000       0.00000000 </v>
   <v name="genvec1">      1.00000000       0.00000000       0.00000000 </v>
   <v name="genvec2">      0.00000000       1.00000000       0.00000000 </v>
   <v name="genvec3">      0.00000000       0.00000000       1.00000000 </v>
   <v name="shift">      0.00000000       0.00000000       0.00000000 </v>
  </generation>
  <varray name="kpointlist" >
   <v>       0.00000000       0.00000000       0.00000000 </v>
  </varray>
  <varray name="weights" >
   <v>       1.00000000 </v>
  </varray>
 </kpoints>
 <parameters>
  <separator name="general" >
   <i type="string" name="SYSTEM">CuCO</i>
   <i type="logical" name="LCOMPAT"> F  </i>
  </separator>
  <separator name="electronic" >
   <i type="string" name="PREC">accura</i>
   <i name="ENMAX">    600.00000000</i>
   <i name="ENAUG">    644.87300000</i>
   <i name="EDIFF">      0.00000010</i>
   <i type="int" name="IALGO">    68</i>
   <i type="int" name="IWAVPR">    10</i>
   <i type="int" name="NBANDS">    92</i>
   <i name="NELECT">    153.00000000</i>
   <i type="int" name="TURBO">     0</i>
   <i type="int" name="IRESTART">     0</i>
   <i type="int" name="NREBOOT">     0</i>
   <i type="int" name="NMIN">     0</i>
   <i name="EREF">      0.00000000</i>
   <separator name="electronic smearing" >
    <i type="int" name="ISMEAR">     1</i>
    <i name="SIGMA">      0.10000000</i>
    <i name="KSPACING">      0.50000000</i>
    <i type="logical" name="KGAMMA"> F  </i>
   </separator>
   <separator name="electronic projectors" >
    <i type="logical" name="LREAL"> F  </i>
    <v name="ROPT">      0.00000000      0.00000000      0.00000000</v>
    <i type="int" name="LMAXPAW">  -100</i>
    <i type="int" name="LMAXMIX">     2</i>
    <i type="logical" name="NLSPLINE"> F  </i>
   </separator>
   <separator name="electronic startup" >
    <i type="int" name="ISTART">     0</i>
    <i type="int" name="ICHARG">     2</i>
    <i type="int" name="INIWAV">     1</i>
   </separator>
   <separator name="electronic spin" >
    <i type="int" name="ISPIN">     2</i>
    <i type="logical" name="LNONCOLLINEAR"> F  </i>
    <v name="MAGMOM">      0.06666667      0.06666667      0.06666667      0.06666667      0.06666667      0.06666667      0.06666667      0.06666667      0.06666667      0.06666667      0.06666667      0.06666667      0.06666667      0.06666667      0.06666667</v>
    <i name="NUPDOWN">      1.00000000</i>
    <i type="logical" name="LSORBIT"> F  </i>
    <v name="SAXIS">      0.00000000      0.00000000      1.00000000</v>
    <i type="logical" name="LSPIRAL"> F  </i>
    <v name="QSPIRAL">      0.00000000      0.00000000      0.00000000</v>
    <i type="logical" name="LZEROZ"> F  </i>
   </separator>
   <separator name="electronic exchange-correlation" >
    <i type="logical" name="LASPH"> F  </i>
    <i type="logical" name="LMETAGGA"> F  </i>
   </separator>
   <separator name="electronic convergence" >
    <i type="int" name="NELM">   300</i>
    <i type="int" name="NELMDL">    -5</i>
    <i type="int" name="NELMIN">     3</i>
    <i name="ENINI">    600.00000000</i>
    <separator name="electronic convergence detail" >
     <i type="logical" name="LDIAG"> T  </i>
     <i type="logical" name="LSUBROT"> F  </i>
     <i name="WEIMIN">      0.00000000</i>
     <i name="EBREAK">      0.00000000</i>
     <i name="DEPER">      0.30000000</i>
     <i type="int" name="NRMM">     4</i>
     <i name="TIME">      0.40000000</i>
    </separator>
   </separator>
   <separator name="electronic mixer" >
    <i name="AMIX">      0.40000000</i>
    <i name="BMIX">      1.00000000</i>
    <i name="AMIN">      0.10000000</i>
    <i name="AMIX_MAG">      1.60000000</i>
    <i name="BMIX_MAG">      1.00000000</i>
    <separator name="electronic mixer details" >
     <i type="int" name="IMIX">     4</i>
     <i type="logical" name="MIXFIRST"> F  </i>
     <i type="int" name="MAXMIX">   -45</i>
     <i name="WC">    100.00000000</i>
     <i type="int" name="INIMIX">     1</i>
     <i type="int" name="MIXPRE">     1</i>
     <i type="int" name="MREMOVE">     5</i>
    </separator>
   </separator>
   <separator name="electronic dipolcorrection" >
    <i type="logical" name="LDIPOL"> F  </i>
    <i type="logical" name="LMONO"> F  </i>
    <i type="int" name="IDIPOL">     0</i>
    <i name="EPSILON">      1.00000000</i>
    <v name="DIPOL">   -100.00000000   -100.00000000   -100.00000000</v>
    <i name="EFIELD">      0.00000000</i>
   </separator>
  </separator>
  <separator name="grids" >
   <i type="int" name="NGX">   120</i>
   <i type="int" name="NGY">   120</i>
   <i type="int" name="NGZ">   120</i>
   <i type="int" name="NGXF">   240</i>
   <i type="int" name="NGYF">   240</i>
   <i type="int" name="NGZF">   240</i>
   <i type="logical" name="ADDGRID"> F  </i>
  </separator>
  <separator name="ionic" >
   <i type="int" name="NSW">     0</i>
   <i type="int" name="IBRION">    -1</i>
   <i type="int" name="MDALGO">     0</i>
   <i type="int" name="ISIF">     2</i>
   <i name="PSTRESS">      0.00000000</i>
   <i name="EDIFFG">     -0.00100000</i>
   <i type="int" name="NFREE">     0</i>
   <i name="POTIM">      0.50000000</i>
   <i name="SMASS">     -3.00000000</i>
   <i name="SCALEE">      1.00000000</i>
  </separator>
  <separator name="ionic md" >
   <i name="TEBEG">      0.00010000</i>
   <i name="TEEND">      0.00010000</i>
   <i type="int" name="NBLOCK">     1</i>
   <i type="int" name="KBLOCK">     1</i>
   <i type="int" name="NPACO">   256</i>
   <i name="APACO">     16.00000000</i>
  </separator>
  <separator name="symmetry" >
   <i type="int" name="ISYM">     0</i>
   <i name="SYMPREC">      0.00001000</i>
  </separator>
  <separator name="dos" >
   <i type="int" name="LORBIT">     0</i>
   <v name="RWIGS">     -1.00000000     -1.00000000     -1.00000000</v>
   <i type="int" name="NEDOS">   301</i>
   <i name="EMIN">     10.00000000</i>
   <i name="EMAX">    -10.00000000</i>
   <i name="EFERMI">      0.00000000</i>
  </separator>
  <separator name="writing" >
   <i type="int" name="NWRITE">     2</i>
   <i type="logical" name="LWAVE"> F  </i>
   <i type="logical" name="LDOWNSAMPLE"> F  </i>
   <i type="logical" name="LCHARG"> F  </i>
   <i type="logical" name="LPARD"> F  </i>
   <i type="logical" name="LVTOT"> F  </i>
   <i type="logical" name="LVHAR"> F  </i>
   <i type="logical" name="LELF"> F  </i>
   <i type="logical" name="LOPTICS"> F  </i>
   <v name="STM">      0.00000000      0.00000000      0.00000000      0.00000000      0.00000000      0.00000000      0.00000000</v>
  </separator>
  <separator name="performance" >
   <i type="int" name="NPAR">     4</i>
   <i type="int" name="NSIM">     4</i>
   <i type="int" name="NBLK">    -1</i>
   <i type="logical" name="LPLANE"> T  </i>
   <i type="logical" name="LSCALAPACK"> T  </i>
   <i type="logical" name="LSCAAWARE"> F  </i>
   <i type="logical" name="LSCALU"> F  </i>
   <i type="logical" name="LASYNC"> F  </i>
   <i type="logical" name="LORBITALREAL"> F  </i>
  </separator>
  <separator name="miscellaneous" >
   <i type="int" name="IDIOT">     3</i>
   <i type="int" name="ISPECIAL">     0</i>
   <i type="logical" name="LMUSIC"> F  </i>
   <v name="POMASS">     63.54600000     12.01100000     16.00000000</v>
   <v name="DARWINR">      0.00000000      0.00000000      0.00000000</v>
   <v name="DARWINV">      1.00000000      1.00000000      1.00000000</v>
   <i type="logical" name="LCORR"> T  </i>
  </separator>
  <i type="logical" name="GGA_COMPAT"> T  </i>
  <i type="logical" name="LBERRY"> F  </i>
  <i type="int" name="ICORELEVEL">     0</i>
  <i type="logical" name="LDAU"> F  </i>
  <i type="int" name="I_CONSTRAINED_M">     0</i>
  <separator name="electronic exchange-correlation" >
   <i type="string" name="GGA">PE</i>
   <i type="int" name="VOSKOWN">     0</i>
   <i type="logical" name="LHFCALC"> F  </i>
   <i type="string" name="PRECFOCK"></i>
   <i type="logical" name="LSYMGRAD"> F  </i>
   <i type="logical" name="LHFONE"> F  </i>
   <i type="logical" name="LRHFCALC"> F  </i>
   <i type="logical" name="LTHOMAS"> F  </i>
   <i type="logical" name="LMODELHF"> F  </i>
   <i name="ENCUT4O">     -1.00000000</i>
   <i type="int" name="EXXOEP">     0</i>
   <i type="int" name="FOURORBIT">     0</i>
   <i name="AEXX">      0.00000000</i>
   <i name="HFALPHA">      0.00000000</i>
   <i name="MCALPHA">      0.00000000</i>
   <i name="ALDAX">      1.00000000</i>
   <i name="AGGAX">      1.00000000</i>
   <i name="ALDAC">      1.00000000</i>
   <i name="AGGAC">      1.00000000</i>
   <i type="int" name="NKREDX">     1</i>
   <i type="int" name="NKREDY">     1</i>
   <i type="int" name="NKREDZ">     1</i>
   <i type="logical" name="SHIFTRED"> F  </i>
   <i type="logical" name="ODDONLY"> F  </i>
   <i type="logical" name="EVENONLY"> F  </i>
   <i type="int" name="LMAXFOCK">     0</i>
   <i type="int" name="NMAXFOCKAE">     0</i>
   <i type="logical" name="LFOCKAEDFT"> F  </i>
   <i name="HFSCREEN">      0.00000000</i>
   <i name="HFSCREENC">      0.00000000</i>
   <i type="int" name="NBANDSGWLOW">     0</i>
  </separator>
  <separator name="vdW DFT" >
   <i type="logical" name="LUSE_VDW"> F  </i>
   <i name="Zab_VDW">     -0.84910000</i>
   <i name="PARAM1">      0.12340000</i>
   <i name="PARAM2">      1.00000000</i>
   <i name="PARAM3">      0.00000000</i>
  </separator>
  <separator name="model GW" >
   <i type="int" name="MODEL_GW">     0</i>
   <i name="MODEL_EPS0">    135.00000000</i>
   <i name="MODEL_ALPHA">      1.00000000</i>
  </separator>
  <separator name="linear response parameters" >
   <i type="logical" name="LEPSILON"> F  </i>
   <i type="logical" name="LRPA"> F  </i>
   <i type="logical" name="LNABLA"> F  </i>
   <i type="logical" name="LVEL"> F  </i>
   <i type="int" name="KINTER">     0</i>
   <i name="CSHIFT">      0.10000000</i>
   <i name="OMEGAMAX">     -1.00000000</i>
   <i name="DEG_THRESHOLD">      0.00200000</i>
   <i name="RTIME">     -0.10000000</i>
   <i name="WPLASMAI">      0.00000000</i>
   <v name="DFIELD">      0.00000000      0.00000000      0.00000000</v>
   <v name="WPLASMA">      0.00000000      0.00000000      0.00000000      0.00000000      0.00000000      0.00000000      0.00000000      0.00000000      0.00000000</v>
  </separator>
  <separator name="orbital magnetization" >
   <i type="logical" name="NUCIND"> F  </i>
   <v name="MAGPOS">      0.00000000      0.00000000      0.00000000</v>
   <i type="logical" name="LNICSALL"> T  </i>
   <i type="logical" name="ORBITALMAG"> F  </i>
   <i type="logical" name="LMAGBLOCH"> F  </i>
   <i type="logical" name="LCHIMAG"> F  </i>
   <i type="logical" name="LGAUGE"> T  </i>
   <i type="int" name="MAGATOM">     0</i>
   <v name="MAGDIPOL">      0.00000000      0.00000000      0.00000000</v>
   <v name="AVECCONST">      0.00000000      0.00000000      0.00000000</v>
  </separator>
  <separator name="response functions" >
   <i type="logical" name="LADDER"> F  </i>
   <i type="logical" name="LRPAFORCE"> F  </i>
   <i type="logical" name="LFXC"> F  </i>
   <i type="logical" name="LHARTREE"> T  </i>
   <i type="int" name="IBSE">     0</i>
   <v type="int" name="KPOINT">    -1     0     0     0</v>
   <i type="logical" name="LTCTE"> F  </i>
   <i type="logical" name="LTETE"> F  </i>
   <i type="logical" name="LTRIPLET"> F  </i>
   <i type="logical" name="LFXCEPS"> F  </i>
   <i type="logical" name="LFXHEG"> F  </i>
   <i type="int" name="NATURALO">     2</i>
   <i type="logical" name="L2ORDER"> F  </i>
   <i type="logical" name="LMP2LT"> F  </i>
   <i type="logical" name="LUSEW"> F  </i>
   <i name="ENCUTGW">     -2.00000000</i>
   <i name="ENCUTGWSOFT">     -2.00000000</i>
   <i name="ENCUTLF">     -1.00000000</i>
   <i type="int" name="LMAXMP2">    -1</i>
   <i name="SCISSOR">      0.00000000</i>
   <i type="int" name="NOMEGA">     0</i>
   <i type="int" name="NOMEGAR">     0</i>
   <i type="int" name="NBANDSGW">    -1</i>
   <i type="int" name="NBANDSO">    -1</i>
   <i type="int" name="NBANDSV">    -1</i>
   <i type="int" name="NELM">   300</i>
   <i type="int" name="NELMHF">     1</i>
   <i type="int" name="DIM">     3</i>
   <i type="int" name="ANTIRES">     0</i>
   <i name="OMEGAMAX">    -30.00000000</i>
   <i name="OMEGAMIN">    -30.00000000</i>
   <i name="OMEGATL">   -200.00000000</i>
   <i type="int" name="OMEGAGRID">   140</i>
   <i name="CSHIFT">     -0.10000000</i>
   <i type="logical" name="SELFENERGY"> F  </i>
   <i type="logical" name="LSPECTRAL"> F  </i>
   <i type="logical" name="LSPECTRALGW"> F  </i>
   <i type="logical" name="LSINGLES"> F  </i>
   <i type="logical" name="LFERMIGW"> F  </i>
   <i type="logical" name="ODDONLYGW"> F  </i>
   <i type="logical" name="EVENONLYGW"> F  </i>
   <i type="int" name="NKREDLFX">     1</i>
   <i type="int" name="NKREDLFY">     1</i>
   <i type="int" name="NKREDLFZ">     1</i>
   <i type="int" name="MAXMEM">  2800</i>
   <i type="int" name="TELESCOPE">     0</i>
   <i type="int" name="TAUPAR">     1</i>
   <i type="int" name="OMEGAPAR">    -1</i>
   <i name="LAMBDA">      1.00000000</i>
  </separator>
  <separator name="External order field" >
   <i name="OFIELD_KAPPA">      0.00000000</i>
   <v name="OFIELD_K">      0.00000000      0.00000000      0.00000000</v>
   <i name="OFIELD_Q6_NEAR">      0.00000000</i>
   <i name="OFIELD_Q6_FAR">      0.00000000</i>
   <i name="OFIELD_A">      0.00000000</i>
  </separator>
 </parameters>
 <atominfo>
  <atoms>      15 </atoms>
  <types>       3 </types>
  <array name="atoms" >
   <dimension dim="1">ion</dimension>
   <field type="string">element</field>
   <field type="int">atomtype</field>
   <set>
    <rc><c>Cu</c><c>   1</c></rc>
    <rc><c>Cu</c><c>   1</c></rc>
    <rc><c>Cu</c><c>   1</c></rc>
    <rc><c>Cu</c><c>   1</c></rc>
    <rc><c>Cu</c><c>   1</c></rc>
    <rc><c>Cu</c><c>   1</c></rc>
    <rc><c>Cu</c><c>   1</c></rc>
    <rc><c>Cu</c><c>   1</c></rc>
    <rc><c>Cu</c><c>   1</c></rc>
    <rc><c>Cu</c><c>   1</c></rc>
    <rc><c>Cu</c><c>   1</c></rc>
    <rc><c>Cu</c><c>   1</c></rc>
    <rc><c>Cu</c><c>   1</c></rc>
    <rc><c>C </c><c>   2</c></rc>
    <rc><c>O </c><c>   3</c></rc>
   </set>
  </array>
  <array name="atomtypes" >
   <dimension dim="1">type</dimension>
   <field type="int">atomspertype</field>
   <field type="string">element</field>
   <field>mass</field>
   <field>valence</field>
   <field type="string">pseudopotential</field>
   <set>
    <rc><c>  13</c><c>Cu</c><c>     63.54600000</c><c>     11.00000000</c><c>  PAW_PBE Cu 22Jun2005                  </c></rc>
    <rc><c>   1</c><c>C </c><c>     12.01100000</c><c>      4.00000000</c><c>  PAW_PBE C 08Apr2002                   </c></rc>
    <rc><c>   1</c><c>O </c><c>     16.00000000</c><c>      6.00000000</c><c>  PAW_PBE O 08Apr2002                   </c></rc>
   </set>
  </array>
 </atominfo>
 <structure name="initialpos" >
  <crystal>
   <varray name="basis" >
    <v>      15.00000000       0.00000000       0.00000000 </v>
    <v>       0.00000000      15.00000000       0.00000000 </v>
    <v>       0.00000000       0.00000000      15.00000000 </v>
   </varray>
   <i name="volume">   3375.00000000 </i>
   <varray name="rec_basis" >
    <v>       0.06666667       0.00000000       0.00000000 </v>
    <v>       0.00000000       0.06666667       0.00000000 </v>
    <v>       0.00000000       0.00000000       0.06666667 </v>
   </varray>
  </crystal>
  <varray name="positions" >
   <v>       0.29306533       0.40968667       0.55640800 </v>
   <v>       0.36478200       0.54430800       0.48846600 </v>
   <v>       0.40917867       0.29459667       0.55823733 </v>
   <v>       0.52425333       0.51818067       0.47714400 </v>
   <v>       0.56193600       0.35988333       0.52082200 </v>
   <v>       0.44573733       0.44097667       0.60510400 </v>
   <v>       0.41929533       0.40116200       0.43698200 </v>
   <v>       0.22505267       0.56377933       0.56082467 </v>
   <v>       0.33563533       0.53761000       0.66281133 </v>
   <v>       0.36253000       0.68868000       0.59188467 </v>
   <v>       0.47332667       0.66196667       0.47743867 </v>
   <v>       0.61839600       0.47593933       0.60804800 </v>
   <v>       0.48469133       0.58597667       0.61875867 </v>
   <v>       0.73899333       0.49511267       0.63679600 </v>
   <v>       0.81384000       0.50815667       0.62508133 </v>
  </varray>
 </structure>
 <calculation>
  <scstep>
   <time name="dav">    7.43    7.44</time>
   <time name="total">    8.62    8.64</time>
   <energy>
    <i name="alphaZ">     41.16232785 </i>
    <i name="ewald">  16546.69418368 </i>
    <i name="hartreedc"> -33567.32990757 </i>
    <i name="XCdc">    623.54369364 </i>
    <i name="pawpsdc">  16421.75059358 </i>
    <i name="pawaedc"> -17800.06104309 </i>
    <i name="eentropy">      0.00280815 </i>
    <i name="bandstr">    190.13240181 </i>
    <i name="atom">  18662.21924712 </i>
    <i name="e_fr_energy">   1118.11430516 </i>
    <i name="e_wo_entrp">   1118.11149701 </i>
    <i name="e_0_energy">   1118.11336911 </i>
   </energy>
  </scstep>
  <scstep>
   <time name="dav">    7.33    7.34</time>
   <time name="total">    7.33    7.34</time>
   <energy>
    <i name="e_fr_energy">     86.59930139 </i>
    <i name="e_wo_entrp">     86.58779683 </i>
    <i name="e_0_energy">     86.59546653 </i>
   </energy>
  </scstep>
  <scstep>
   <time name="dav">   11.62   11.62</time>
   <time name="total">   11.62   11.62</time>
   <energy>
    <i name="e_fr_energy">    -32.88709710 </i>
    <i name="e_wo_entrp">    -32.89644879 </i>
    <i name="e_0_energy">    -32.89021433 </i>
   </energy>
  </scstep>
  <scstep>
   <time name="dav">   10.16   10.17</time>
   <time name="total">   10.16   10.17</time>
   <energy>
    <i name="e_fr_energy">    -55.32948186 </i>
    <i name="e_wo_entrp">    -55.33882085 </i>
    <i name="e_0_energy">    -55.33259485 </i>
   </energy>
  </scstep>
  <scstep>
   <time name="dav">   12.08   12.08</time>
   <time name="total">   12.76   12.77</time>
   <energy>
    <i name="e_fr_energy">    -56.92906867 </i>
    <i name="e_wo_entrp">    -56.94202724 </i>
    <i name="e_0_energy">    -56.93338820 </i>
   </energy>
  </scstep>
  <scstep>
   <time name="diag">    1.09    1.09</time>
   <time name="diis">    6.92    6.93</time>
   <time name="orth">    0.06    0.06</time>
   <time name="total">    9.91    9.91</time>
   <energy>
    <i name="e_fr_energy">    -55.70421758 </i>
    <i name="e_wo_entrp">    -55.71338994 </i>
    <i name="e_0_energy">    -55.70727503 </i>
   </energy>
  </scstep>
  <scstep>
   <time name="diag">    1.09    1.09</time>
   <time name="diis">    6.51    6.51</time>
   <time name="orth">    0.06    0.06</time>
   <time name="total">    9.51    9.51</time>
   <energy>
    <i name="e_fr_energy">    -48.98353357 </i>
    <i name="e_wo_entrp">    -48.99254831 </i>
    <i name="e_0_energy">    -48.98653848 </i>
   </energy>
  </scstep>
  <scstep>
   <time name="diag">    1.09    1.09</time>
   <time name="diis">    7.01    7.01</time>
   <time name="orth">    0.06    0.06</time>
   <time name="total">   10.01   10.01</time>
   <energy>
    <i name="e_fr_energy">    -48.71427857 </i>
    <i name="e_wo_entrp">    -48.72300023 </i>
    <i name="e_0_energy">    -48.71718579 </i>
   </energy>
  </scstep>
  <scstep>
   <time name="diag">    1.09    1.09</time>
   <time name="diis">    6.57    6.58</time>
   <time name="orth">    0.06    0.06</time>
   <time name="total">    9.57    9.58</time>
   <energy>
    <i name="e_fr_energy">    -48.68598878 </i>
    <i name="e_wo_entrp">    -48.69469269 </i>
    <i name="e_0_energy">    -48.68889008 </i>
   </energy>
  </scstep>
  <scstep>
   <time name="diag">    1.09    1.09</time>
   <time name="diis">    6.84    6.85</time>
   <time name="orth">    0.06    0.06</time>
   <time name="total">    9.84    9.85</time>
   <energy>
    <i name="e_fr_energy">    -48.62993462 </i>
    <i name="e_wo_entrp">    -48.63867654 </i>
    <i name="e_0_energy">    -48.63284859 </i>
   </energy>
  </scstep>
  <scstep>
   <time name="diag">    1.08    1.09</time>
   <time name="diis">    6.91    6.91</time>
   <time name="orth">    0.06    0.06</time>
   <time name="total">    9.90    9.91</time>
   <energy>
    <i name="e_fr_energy">    -48.62217559 </i>
    <i name="e_wo_entrp">    -48.63087751 </i>
    <i name="e_0_energy">    -48.62507623 </i>
   </energy>
  </scstep>
  <scstep>
   <time name="diag">    1.08    1.08</time>
   <time name="diis">    6.85    6.85</time>
   <time name="orth">    0.06    0.06</time>
   <time name="total">    9.84    9.85</time>
   <energy>
    <i name="e_fr_energy">    -48.61989103 </i>
    <i name="e_wo_entrp">    -48.62861063 </i>
    <i name="e_0_energy">    -48.62279757 </i>
   </energy>
  </scstep>
  <scstep>
   <time name="diag">    1.08    1.09</time>
   <time name="diis">    6.95    6.95</time>
   <time name="orth">    0.06    0.06</time>
   <time name="total">    9.94    9.95</time>
   <energy>
    <i name="e_fr_energy">    -48.61917332 </i>
    <i name="e_wo_entrp">    -48.62788674 </i>
    <i name="e_0_energy">    -48.62207780 </i>
   </energy>
  </scstep>
  <scstep>
   <time name="diag">    1.08    1.08</time>
   <time name="diis">    7.81    7.81</time>
   <time name="orth">    0.06    0.06</time>
   <time name="total">   10.80   10.81</time>
   <energy>
    <i name="e_fr_energy">    -48.62033047 </i>
    <i name="e_wo_entrp">    -48.62904971 </i>
    <i name="e_0_energy">    -48.62323688 </i>
   </energy>
  </scstep>
  <scstep>
   <time name="diag">    1.08    1.09</time>
   <time name="diis">    6.44    6.45</time>
   <time name="orth">    0.06    0.06</time>
   <time name="total">    9.44    9.45</time>
   <energy>
    <i name="e_fr_energy">    -48.62141150 </i>
    <i name="e_wo_entrp">    -48.63012815 </i>
    <i name="e_0_energy">    -48.62431705 </i>
   </energy>
  </scstep>
  <scstep>
   <time name="diag">    1.09    1.09</time>
   <time name="diis">    6.47    6.51</time>
   <time name="orth">    0.06    0.06</time>
   <time name="total">    9.48    9.51</time>
   <energy>
    <i name="e_fr_energy">    -48.62279452 </i>
    <i name="e_wo_entrp">    -48.63150842 </i>
    <i name="e_0_energy">    -48.62569915 </i>
   </energy>
  </scstep>
  <scstep>
   <time name="diag">    1.09    1.09</time>
   <time name="diis">    6.28    6.28</time>
   <time name="orth">    0.06    0.06</time>
   <time name="total">    9.28    9.28</time>
   <energy>
    <i name="e_fr_energy">    -48.62454378 </i>
    <i name="e_wo_entrp">    -48.63325808 </i>
    <i name="e_0_energy">    -48.62744855 </i>
   </energy>
  </scstep>
  <scstep>
   <time name="diag">    1.09    1.09</time>
   <time name="diis">    6.73    6.73</time>
   <time name="orth">    0.06    0.06</time>
   <time name="total">    9.73    9.74</time>
   <energy>
    <i name="e_fr_energy">    -48.62537894 </i>
    <i name="e_wo_entrp">    -48.63409280 </i>
    <i name="e_0_energy">    -48.62828356 </i>
   </energy>
  </scstep>
  <scstep>
   <time name="diag">    1.08    1.08</time>
   <time name="diis">    7.17    7.17</time>
   <time name="orth">    0.06    0.06</time>
   <time name="total">   10.17   10.18</time>
   <energy>
    <i name="e_fr_energy">    -48.62611692 </i>
    <i name="e_wo_entrp">    -48.63483205 </i>
    <i name="e_0_energy">    -48.62902196 </i>
   </energy>
  </scstep>
  <scstep>
   <time name="diag">    1.09    1.09</time>
   <time name="diis">    6.49    6.49</time>
   <time name="orth">    0.06    0.06</time>
   <time name="total">    9.50    9.50</time>
   <energy>
    <i name="e_fr_energy">    -48.62669532 </i>
    <i name="e_wo_entrp">    -48.63541035 </i>
    <i name="e_0_energy">    -48.62960033 </i>
   </energy>
  </scstep>
  <scstep>
   <time name="diag">    1.09    1.09</time>
   <time name="diis">    6.38    6.38</time>
   <time name="orth">    0.06    0.06</time>
   <time name="total">    9.39    9.39</time>
   <energy>
    <i name="e_fr_energy">    -48.62710540 </i>
    <i name="e_wo_entrp">    -48.63582034 </i>
    <i name="e_0_energy">    -48.63001038 </i>
   </energy>
  </scstep>
  <scstep>
   <time name="diag">    1.09    1.09</time>
   <time name="diis">    6.78    6.79</time>
   <time name="orth">    0.06    0.06</time>
   <time name="total">    9.79    9.80</time>
   <energy>
    <i name="e_fr_energy">    -48.62736431 </i>
    <i name="e_wo_entrp">    -48.63607913 </i>
    <i name="e_0_energy">    -48.63026925 </i>
   </energy>
  </scstep>
  <scstep>
   <time name="diag">    1.09    1.09</time>
   <time name="diis">    6.41    6.41</time>
   <time name="orth">    0.06    0.06</time>
   <time name="total">    9.42    9.43</time>
   <energy>
    <i name="e_fr_energy">    -48.62747357 </i>
    <i name="e_wo_entrp">    -48.63618827 </i>
    <i name="e_0_energy">    -48.63037847 </i>
   </energy>
  </scstep>
  <scstep>
   <time name="diag">    1.09    1.09</time>
   <time name="diis">    6.63    6.64</time>
   <time name="orth">    0.06    0.06</time>
   <time name="total">    9.65    9.65</time>
   <energy>
    <i name="e_fr_energy">    -48.62757170 </i>
    <i name="e_wo_entrp">    -48.63628636 </i>
    <i name="e_0_energy">    -48.63047658 </i>
   </energy>
  </scstep>
  <scstep>
   <time name="diag">    1.08    1.08</time>
   <time name="diis">    6.41    6.42</time>
   <time name="orth">    0.06    0.06</time>
   <time name="total">    9.42    9.43</time>
   <energy>
    <i name="e_fr_energy">    -48.62763630 </i>
    <i name="e_wo_entrp">    -48.63635097 </i>
    <i name="e_0_energy">    -48.63054119 </i>
   </energy>
  </scstep>
  <scstep>
   <time name="diag">    1.09    1.09</time>
   <time name="diis">    5.85    5.86</time>
   <time name="orth">    0.06    0.06</time>
   <time name="total">    8.87    8.88</time>
   <energy>
    <i name="e_fr_energy">    -48.62765926 </i>
    <i name="e_wo_entrp">    -48.63637396 </i>
    <i name="e_0_energy">    -48.63056416 </i>
   </energy>
  </scstep>
  <scstep>
   <time name="diag">    1.08    1.09</time>
   <time name="diis">    4.70    4.71</time>
   <time name="orth">    0.06    0.06</time>
   <time name="total">    7.73    7.73</time>
   <energy>
    <i name="e_fr_energy">    -48.62767200 </i>
    <i name="e_wo_entrp">    -48.63638671 </i>
    <i name="e_0_energy">    -48.63057691 </i>
   </energy>
  </scstep>
  <scstep>
   <time name="diag">    1.08    1.08</time>
   <time name="diis">    4.65    4.65</time>
   <time name="orth">    0.06    0.06</time>
   <time name="total">    7.68    7.68</time>
   <energy>
    <i name="e_fr_energy">    -48.62767893 </i>
    <i name="e_wo_entrp">    -48.63639364 </i>
    <i name="e_0_energy">    -48.63058383 </i>
   </energy>
  </scstep>
  <scstep>
   <time name="diag">    1.08    1.08</time>
   <time name="diis">    4.47    4.47</time>
   <time name="orth">    0.06    0.06</time>
   <time name="total">    7.50    7.50</time>
   <energy>
    <i name="e_fr_energy">    -48.62768158 </i>
    <i name="e_wo_entrp">    -48.63639628 </i>
    <i name="e_0_energy">    -48.63058648 </i>
   </energy>
  </scstep>
  <scstep>
   <time name="diag">    1.09    1.09</time>
   <time name="diis">    4.54    4.55</time>
   <time name="orth">    0.06    0.06</time>
   <time name="total">    7.58    7.59</time>
   <energy>
    <i name="e_fr_energy">    -48.62768356 </i>
    <i name="e_wo_entrp">    -48.63639825 </i>
    <i name="e_0_energy">    -48.63058845 </i>
   </energy>
  </scstep>
  <scstep>
   <time name="diag">    1.09    1.09</time>
   <time name="diis">    4.39    4.39</time>
   <time name="orth">    0.06    0.06</time>
   <time name="total">    7.43    7.44</time>
   <energy>
    <i name="e_fr_energy">    -48.62768445 </i>
    <i name="e_wo_entrp">    -48.63639915 </i>
    <i name="e_0_energy">    -48.63058935 </i>
   </energy>
  </scstep>
  <scstep>
   <time name="diag">    1.08    1.09</time>
   <time name="diis">    4.20    4.20</time>
   <time name="orth">    0.06    0.06</time>
   <time name="total">    7.25    7.25</time>
   <energy>
    <i name="e_fr_energy">    -48.62768503 </i>
    <i name="e_wo_entrp">    -48.63639972 </i>
    <i name="e_0_energy">    -48.63058993 </i>
   </energy>
  </scstep>
  <scstep>
   <time name="diag">    1.09    1.09</time>
   <time name="diis">    4.17    4.17</time>
   <time name="orth">    0.06    0.06</time>
   <time name="total">    7.23    7.23</time>
   <energy>
    <i name="e_fr_energy">    -48.62768551 </i>
    <i name="e_wo_entrp">    -48.63640021 </i>
    <i name="e_0_energy">    -48.63059041 </i>
   </energy>
  </scstep>
  <scstep>
   <time name="diag">    1.09    1.09</time>
   <time name="diis">    3.97    3.97</time>
   <time name="orth">    0.06    0.06</time>
   <time name="total">    7.03    7.03</time>
   <energy>
    <i name="e_fr_energy">    -48.62768593 </i>
    <i name="e_wo_entrp">    -48.63640063 </i>
    <i name="e_0_energy">    -48.63059083 </i>
   </energy>
  </scstep>
  <scstep>
   <time name="diag">    1.09    1.09</time>
   <time name="diis">    3.81    3.81</time>
   <time name="orth">    0.06    0.06</time>
   <time name="total">    6.88    6.89</time>
   <energy>
    <i name="e_fr_energy">    -48.62768619 </i>
    <i name="e_wo_entrp">    -48.63640089 </i>
    <i name="e_0_energy">    -48.63059109 </i>
   </energy>
  </scstep>
  <scstep>
   <time name="diag">    1.09    1.09</time>
   <time name="diis">    3.51    3.52</time>
   <time name="orth">    0.06    0.06</time>
   <time name="total">    6.60    6.60</time>
   <energy>
    <i name="e_fr_energy">    -48.62768630 </i>
    <i name="e_wo_entrp">    -48.63640100 </i>
    <i name="e_0_energy">    -48.63059120 </i>
   </energy>
  </scstep>
  <scstep>
   <time name="diag">    1.09    1.09</time>
   <time name="diis">    3.38    3.38</time>
   <time name="orth">    0.06    0.06</time>
   <time name="total">    5.70    5.71</time>
   <energy>
    <i name="alphaZ">     41.16232785 </i>
    <i name="ewald">  16546.69418368 </i>
    <i name="hartreedc"> -33526.30121811 </i>
    <i name="XCdc">    615.61189867 </i>
    <i name="pawpsdc">  17666.10578173 </i>
    <i name="pawaedc"> -19065.03619623 </i>
    <i name="eentropy">      0.00871470 </i>
    <i name="bandstr">   -989.09242580 </i>
    <i name="atom">  18662.21924712 </i>
    <i name="e_fr_energy">    -48.62768640 </i>
    <i name="e_wo_entrp">    -48.63640109 </i>
    <i name="e_0_energy">    -48.63059130 </i>
   </energy>
  </scstep>
  <structure>
   <crystal>
    <varray name="basis" >
     <v>      15.00000000       0.00000000       0.00000000 </v>
     <v>       0.00000000      15.00000000       0.00000000 </v>
     <v>       0.00000000       0.00000000      15.00000000 </v>
    </varray>
    <i name="volume">   3375.00000000 </i>
    <varray name="rec_basis" >
     <v>       0.06666667       0.00000000       0.00000000 </v>
     <v>       0.00000000       0.06666667       0.00000000 </v>
     <v>       0.00000000       0.00000000       0.06666667 </v>
    </varray>
   </crystal>
   <varray name="positions" >
    <v>       0.29306533       0.40968667       0.55640800 </v>
    <v>       0.36478200       0.54430800       0.48846600 </v>
    <v>       0.40917867       0.29459667       0.55823733 </v>
    <v>       0.52425333       0.51818067       0.47714400 </v>
    <v>       0.56193600       0.35988333       0.52082200 </v>
    <v>       0.44573733       0.44097667       0.60510400 </v>
    <v>       0.41929533       0.40116200       0.43698200 </v>
    <v>       0.22505267       0.56377933       0.56082467 </v>
    <v>       0.33563533       0.53761000       0.66281133 </v>
    <v>       0.36253000       0.68868000       0.59188467 </v>
    <v>       0.47332667       0.66196667       0.47743867 </v>
    <v>       0.61839600       0.47593933       0.60804800 </v>
    <v>       0.48469133       0.58597667       0.61875867 </v>
    <v>       0.73899333       0.49511267       0.63679600 </v>
    <v>       0.81384000       0.50815667       0.62508133 </v>
   </varray>
  </structure>
  <varray name="forces" >
   <v>       0.09465663       0.28411053      -0.02218471 </v>
   <v>      -0.13451751       0.31920631       0.45139796 </v>
   <v>       0.01982040      -0.15970783      -0.12249784 </v>
   <v>       0.60922784      -0.91470099       0.00188456 </v>
   <v>      -0.58536057      -0.21272620      -0.35634848 </v>
   <v>       0.53728640      -1.11100855      -0.27210482 </v>
   <v>       0.04249697      -0.12520800       0.50279861 </v>
   <v>      -0.26538098       0.13455650      -0.17100606 </v>
   <v>       0.17167780       0.24220508      -0.09826798 </v>
   <v>      -0.39091784      -0.57331804      -0.16899995 </v>
   <v>      -0.08163697       0.86271541       0.02687734 </v>
   <v>       0.23840485       0.52564542       0.19944036 </v>
   <v>       0.24499323       0.80090335       0.11657672 </v>
   <v>      -0.80907534      -0.12325351      -0.11892170 </v>
   <v>       0.30832508       0.05058051       0.03135599 </v>
  </varray>
  <varray name="stress" >
   <v>      -0.26026672      -0.26535504      -0.02539911 </v>
   <v>      -0.26535505       1.49708300       0.19555986 </v>
   <v>      -0.02539911       0.19555987      -0.76958603 </v>
  </varray>
  <energy>
   <i name="e_fr_energy">    -48.62768640 </i>
   <i name="e_wo_entrp">    -48.63059130 </i>
   <i name="e_0_energy">      0.00871470 </i>
  </energy>
  <time name="totalsc">  343.51  343.78</time>
  <eigenvalues>
   <array>
    <dimension dim="1">band</dimension>
    <dimension dim="2">kpoint</dimension>
    <dimension dim="3">spin</dimension>
    <field>eigene</field>
    <field>occ</field>
    <set>
     <set comment="spin 1">
      <set comment="kpoint 1">
       <r>  -28.5219    1.0000 </r>
       <r>  -13.7709    1.0000 </r>
       <r>  -11.3177    1.0000 </r>
       <r>  -11.1520    1.0000 </r>
       <r>  -10.8438    1.0000 </r>
       <r>  -10.1724    1.0000 </r>
       <r>   -8.5112    1.0000 </r>
       <r>   -8.2585    1.0000 </r>
       <r>   -7.8018    1.0000 </r>
       <r>   -7.5317    1.0000 </r>
       <r>   -7.4486    1.0000 </r>
       <r>   -7.3704    1.0000 </r>
       <r>   -7.2544    1.0000 </r>
       <r>   -7.1531    1.0000 </r>
       <r>   -7.0138    1.0000 </r>
       <r>   -6.9441    1.0000 </r>
       <r>   -6.8351    1.0000 </r>
       <r>   -6.7630    1.0000 </r>
       <r>   -6.7480    1.0000 </r>
       <r>   -6.6437    1.0000 </r>
       <r>   -6.6216    1.0000 </r>
       <r>   -6.5621    1.0000 </r>
       <r>   -6.5271    1.0000 </r>
       <r>   -6.4985    1.0000 </r>
       <r>   -6.4416    1.0000 </r>
       <r>   -6.4161    1.0000 </r>
       <r>   -6.3248    1.0000 </r>
       <r>   -6.2797    1.0000 </r>
       <r>   -6.2409    1.0000 </r>
       <r>   -6.1702    1.0000 </r>
       <r>   -6.1539    1.0000 </r>
       <r>   -6.1025    1.0000 </r>
       <r>   -6.0982    1.0000 </r>
       <r>   -5.9933    1.0000 </r>
       <r>   -5.9147    1.0000 </r>
       <r>   -5.8612    1.0000 </r>
       <r>   -5.7757    1.0000 </r>
       <r>   -5.7252    1.0000 </r>
       <r>   -5.7078    1.0000 </r>
       <r>   -5.6773    1.0000 </r>
       <r>   -5.5819    1.0000 </r>
       <r>   -5.5508    1.0000 </r>
       <r>   -5.5134    1.0000 </r>
       <r>   -5.4781    1.0000 </r>
       <r>   -5.4667    1.0000 </r>
       <r>   -5.4348    1.0000 </r>
       <r>   -5.3939    1.0000 </r>
       <r>   -5.3621    1.0000 </r>
       <r>   -5.3281    1.0000 </r>
       <r>   -5.2886    1.0000 </r>
       <r>   -5.2708    1.0000 </r>
       <r>   -5.2672    1.0000 </r>
       <r>   -5.2467    1.0000 </r>
       <r>   -5.2368    1.0000 </r>
       <r>   -5.1948    1.0000 </r>
       <r>   -5.1619    1.0000 </r>
       <r>   -5.1439    1.0000 </r>
       <r>   -5.1293    1.0000 </r>
       <r>   -5.1097    1.0000 </r>
       <r>   -5.0774    1.0000 </r>
       <r>   -5.0582    1.0000 </r>
       <r>   -5.0366    1.0000 </r>
       <r>   -5.0157    1.0000 </r>
       <r>   -4.9774    1.0000 </r>
       <r>   -4.9325    1.0000 </r>
       <r>   -4.9095    1.0000 </r>
       <r>   -4.8983    1.0000 </r>
       <r>   -4.8858    1.0000 </r>
       <r>   -4.8607    1.0000 </r>
       <r>   -4.8179    1.0000 </r>
       <r>   -4.8017    1.0000 </r>
       <r>   -4.7773    1.0000 </r>
       <r>   -4.7140    1.0000 </r>
       <r>   -4.5776    1.0000 </r>
       <r>   -4.1414    1.0000 </r>
       <r>   -4.1068    1.0000 </r>
       <r>   -3.4873    1.0000 </r>
       <r>   -3.0507   -0.0000 </r>
       <r>   -2.8976   -0.0000 </r>
       <r>   -2.5901   -0.0000 </r>
       <r>   -2.2700   -0.0000 </r>
       <r>   -1.9516   -0.0000 </r>
       <r>   -1.9017   -0.0000 </r>
       <r>   -1.7952   -0.0000 </r>
       <r>   -1.3168   -0.0000 </r>
       <r>   -1.0134   -0.0000 </r>
       <r>   -0.9245   -0.0000 </r>
       <r>   -0.7730   -0.0000 </r>
       <r>   -0.4017    0.0000 </r>
       <r>   -0.2340    0.0000 </r>
       <r>   -0.0986    0.0000 </r>
       <r>    0.1942    0.0000 </r>
      </set>
     </set>
     <set comment="spin 2">
      <set comment="kpoint 1">
       <r>  -28.5038    1.0000 </r>
       <r>  -13.7392    1.0000 </r>
       <r>  -11.2846    1.0000 </r>
       <r>  -11.1386    1.0000 </r>
       <r>  -10.7920    1.0000 </r>
       <r>  -10.1316    1.0000 </r>
       <r>   -8.4853    1.0000 </r>
       <r>   -8.2151    1.0000 </r>
       <r>   -7.7589    1.0000 </r>
       <r>   -7.5129    1.0000 </r>
       <r>   -7.4151    1.0000 </r>
       <r>   -7.3372    1.0000 </r>
       <r>   -7.2143    1.0000 </r>
       <r>   -7.1252    1.0000 </r>
       <r>   -6.9807    1.0000 </r>
       <r>   -6.9158    1.0000 </r>
       <r>   -6.8103    1.0000 </r>
       <r>   -6.7388    1.0000 </r>
       <r>   -6.7156    1.0000 </r>
       <r>   -6.6227    1.0000 </r>
       <r>   -6.5973    1.0000 </r>
       <r>   -6.5285    1.0000 </r>
       <r>   -6.5013    1.0000 </r>
       <r>   -6.4761    1.0000 </r>
       <r>   -6.4133    1.0000 </r>
       <r>   -6.3928    1.0000 </r>
       <r>   -6.2934    1.0000 </r>
       <r>   -6.2539    1.0000 </r>
       <r>   -6.2137    1.0000 </r>
       <r>   -6.1405    1.0000 </r>
       <r>   -6.1294    1.0000 </r>
       <r>   -6.0731    1.0000 </r>
       <r>   -6.0693    1.0000 </r>
       <r>   -5.9673    1.0000 </r>
       <r>   -5.8914    1.0000 </r>
       <r>   -5.8357    1.0000 </r>
       <r>   -5.7528    1.0000 </r>
       <r>   -5.6981    1.0000 </r>
       <r>   -5.6845    1.0000 </r>
       <r>   -5.6555    1.0000 </r>
       <r>   -5.5526    1.0000 </r>
       <r>   -5.5204    1.0000 </r>
       <r>   -5.4881    1.0000 </r>
       <r>   -5.4522    1.0000 </r>
       <r>   -5.4336    1.0000 </r>
       <r>   -5.4041    1.0000 </r>
       <r>   -5.3722    1.0000 </r>
       <r>   -5.3330    1.0000 </r>
       <r>   -5.2957    1.0000 </r>
       <r>   -5.2682    1.0000 </r>
       <r>   -5.2458    1.0000 </r>
       <r>   -5.2379    1.0000 </r>
       <r>   -5.2231    1.0000 </r>
       <r>   -5.2136    1.0000 </r>
       <r>   -5.1727    1.0000 </r>
       <r>   -5.1391    1.0000 </r>
       <r>   -5.1218    1.0000 </r>
       <r>   -5.1089    1.0000 </r>
       <r>   -5.0875    1.0000 </r>
       <r>   -5.0542    1.0000 </r>
       <r>   -5.0223    1.0000 </r>
       <r>   -5.0142    1.0000 </r>
       <r>   -4.9821    1.0000 </r>
       <r>   -4.9563    1.0000 </r>
       <r>   -4.9067    1.0000 </r>
       <r>   -4.8792    1.0000 </r>
       <r>   -4.8700    1.0000 </r>
       <r>   -4.8477    1.0000 </r>
       <r>   -4.8300    1.0000 </r>
       <r>   -4.7873    1.0000 </r>
       <r>   -4.7675    1.0000 </r>
       <r>   -4.7512    1.0000 </r>
       <r>   -4.6865    1.0000 </r>
       <r>   -4.5256    1.0000 </r>
       <r>   -4.0783    1.0060 </r>
       <r>   -4.0729    0.9940 </r>
       <r>   -3.2873   -0.0000 </r>
       <r>   -2.9896   -0.0000 </r>
       <r>   -2.8445   -0.0000 </r>
       <r>   -2.5350   -0.0000 </r>
       <r>   -2.1802   -0.0000 </r>
       <r>   -1.9206   -0.0000 </r>
       <r>   -1.8203   -0.0000 </r>
       <r>   -1.7242   -0.0000 </r>
       <r>   -1.1986    0.0000 </r>
       <r>   -0.9586    0.0000 </r>
       <r>   -0.7971    0.0000 </r>
       <r>   -0.6752    0.0000 </r>
       <r>   -0.3062    0.0000 </r>
       <r>   -0.1882    0.0000 </r>
       <r>   -0.0123    0.0000 </r>
       <r>    0.1687    0.0000 </r>
      </set>
     </set>
    </set>
   </array>
  </eigenvalues>
  <separator name="orbital magnetization" >
   <v name="MAGDIPOLOUT">      0.00000000      0.00000000      0.00000000</v>
  </separator>
  <dos>
   <i name="efermi">     -3.99126538 </i>
   <total>
    <array>
     <dimension dim="1">gridpoints</dimension>
     <dimension dim="2">spin</dimension>
     <field>energy</field>
     <field>total</field>
     <field>integrated</field>
     <set>
      <set comment="spin 1">
       <r>   -29.9577     0.0000     0.0000 </r>
       <r>   -29.8524     0.0000     0.0000 </r>
       <r>   -29.7472     0.0000     0.0000 </r>
       <r>   -29.6419     0.0000     0.0000 </r>
       <r>   -29.5366     0.0000     0.0000 </r>
       <r>   -29.4313     0.0000     0.0000 </r>
       <r>   -29.3260    -0.0000    -0.0000 </r>
       <r>   -29.2207    -0.0000    -0.0000 </r>
       <r>   -29.1154    -0.0000    -0.0000 </r>
       <r>   -29.0101    -0.0000    -0.0000 </r>
       <r>   -28.9048    -0.0000    -0.0000 </r>
       <r>   -28.7995    -0.0059    -0.0006 </r>
       <r>   -28.6942    -0.3276    -0.0351 </r>
       <r>   -28.5889     1.3027     0.1020 </r>
       <r>   -28.4836    14.2112     1.5984 </r>
       <r>   -28.3784     4.3916     2.0608 </r>
       <r>   -28.2731    -0.5542     2.0024 </r>
       <r>   -28.1678    -0.0231     2.0000 </r>
       <r>   -28.0625    -0.0001     2.0000 </r>
       <r>   -27.9572    -0.0000     2.0000 </r>
       <r>   -27.8519    -0.0000     2.0000 </r>
       <r>   -27.7466     0.0000     2.0000 </r>
       <r>   -27.6413     0.0000     2.0000 </r>
       <r>   -27.5360     0.0000     2.0000 </r>
       <r>   -27.4307     0.0000     2.0000 </r>
       <r>   -27.3254     0.0000     2.0000 </r>
       <r>   -27.2201     0.0000     2.0000 </r>
       <r>   -27.1148     0.0000     2.0000 </r>
       <r>   -27.0095     0.0000     2.0000 </r>
       <r>   -26.9043     0.0000     2.0000 </r>
       <r>   -26.7990     0.0000     2.0000 </r>
       <r>   -26.6937     0.0000     2.0000 </r>
       <r>   -26.5884     0.0000     2.0000 </r>
       <r>   -26.4831     0.0000     2.0000 </r>
       <r>   -26.3778     0.0000     2.0000 </r>
       <r>   -26.2725     0.0000     2.0000 </r>
       <r>   -26.1672     0.0000     2.0000 </r>
       <r>   -26.0619     0.0000     2.0000 </r>
       <r>   -25.9566     0.0000     2.0000 </r>
       <r>   -25.8513     0.0000     2.0000 </r>
       <r>   -25.7460     0.0000     2.0000 </r>
       <r>   -25.6407     0.0000     2.0000 </r>
       <r>   -25.5355     0.0000     2.0000 </r>
       <r>   -25.4302     0.0000     2.0000 </r>
       <r>   -25.3249     0.0000     2.0000 </r>
       <r>   -25.2196     0.0000     2.0000 </r>
       <r>   -25.1143     0.0000     2.0000 </r>
       <r>   -25.0090     0.0000     2.0000 </r>
       <r>   -24.9037     0.0000     2.0000 </r>
       <r>   -24.7984     0.0000     2.0000 </r>
       <r>   -24.6931     0.0000     2.0000 </r>
       <r>   -24.5878     0.0000     2.0000 </r>
       <r>   -24.4825     0.0000     2.0000 </r>
       <r>   -24.3772     0.0000     2.0000 </r>
       <r>   -24.2719     0.0000     2.0000 </r>
       <r>   -24.1666     0.0000     2.0000 </r>
       <r>   -24.0614     0.0000     2.0000 </r>
       <r>   -23.9561     0.0000     2.0000 </r>
       <r>   -23.8508     0.0000     2.0000 </r>
       <r>   -23.7455     0.0000     2.0000 </r>
       <r>   -23.6402     0.0000     2.0000 </r>
       <r>   -23.5349     0.0000     2.0000 </r>
       <r>   -23.4296     0.0000     2.0000 </r>
       <r>   -23.3243     0.0000     2.0000 </r>
       <r>   -23.2190     0.0000     2.0000 </r>
       <r>   -23.1137     0.0000     2.0000 </r>
       <r>   -23.0084     0.0000     2.0000 </r>
       <r>   -22.9031     0.0000     2.0000 </r>
       <r>   -22.7978     0.0000     2.0000 </r>
       <r>   -22.6926     0.0000     2.0000 </r>
       <r>   -22.5873     0.0000     2.0000 </r>
       <r>   -22.4820     0.0000     2.0000 </r>
       <r>   -22.3767     0.0000     2.0000 </r>
       <r>   -22.2714     0.0000     2.0000 </r>
       <r>   -22.1661     0.0000     2.0000 </r>
       <r>   -22.0608     0.0000     2.0000 </r>
       <r>   -21.9555     0.0000     2.0000 </r>
       <r>   -21.8502     0.0000     2.0000 </r>
       <r>   -21.7449     0.0000     2.0000 </r>
       <r>   -21.6396     0.0000     2.0000 </r>
       <r>   -21.5343     0.0000     2.0000 </r>
       <r>   -21.4290     0.0000     2.0000 </r>
       <r>   -21.3237     0.0000     2.0000 </r>
       <r>   -21.2185     0.0000     2.0000 </r>
       <r>   -21.1132     0.0000     2.0000 </r>
       <r>   -21.0079     0.0000     2.0000 </r>
       <r>   -20.9026     0.0000     2.0000 </r>
       <r>   -20.7973     0.0000     2.0000 </r>
       <r>   -20.6920     0.0000     2.0000 </r>
       <r>   -20.5867     0.0000     2.0000 </r>
       <r>   -20.4814     0.0000     2.0000 </r>
       <r>   -20.3761     0.0000     2.0000 </r>
       <r>   -20.2708     0.0000     2.0000 </r>
       <r>   -20.1655     0.0000     2.0000 </r>
       <r>   -20.0602     0.0000     2.0000 </r>
       <r>   -19.9549     0.0000     2.0000 </r>
       <r>   -19.8497     0.0000     2.0000 </r>
       <r>   -19.7444     0.0000     2.0000 </r>
       <r>   -19.6391     0.0000     2.0000 </r>
       <r>   -19.5338     0.0000     2.0000 </r>
       <r>   -19.4285     0.0000     2.0000 </r>
       <r>   -19.3232     0.0000     2.0000 </r>
       <r>   -19.2179     0.0000     2.0000 </r>
       <r>   -19.1126     0.0000     2.0000 </r>
       <r>   -19.0073     0.0000     2.0000 </r>
       <r>   -18.9020     0.0000     2.0000 </r>
       <r>   -18.7967     0.0000     2.0000 </r>
       <r>   -18.6914     0.0000     2.0000 </r>
       <r>   -18.5861     0.0000     2.0000 </r>
       <r>   -18.4808     0.0000     2.0000 </r>
       <r>   -18.3756     0.0000     2.0000 </r>
       <r>   -18.2703     0.0000     2.0000 </r>
       <r>   -18.1650     0.0000     2.0000 </r>
       <r>   -18.0597     0.0000     2.0000 </r>
       <r>   -17.9544     0.0000     2.0000 </r>
       <r>   -17.8491     0.0000     2.0000 </r>
       <r>   -17.7438     0.0000     2.0000 </r>
       <r>   -17.6385     0.0000     2.0000 </r>
       <r>   -17.5332     0.0000     2.0000 </r>
       <r>   -17.4279     0.0000     2.0000 </r>
       <r>   -17.3226     0.0000     2.0000 </r>
       <r>   -17.2173     0.0000     2.0000 </r>
       <r>   -17.1120     0.0000     2.0000 </r>
       <r>   -17.0068     0.0000     2.0000 </r>
       <r>   -16.9015     0.0000     2.0000 </r>
       <r>   -16.7962     0.0000     2.0000 </r>
       <r>   -16.6909     0.0000     2.0000 </r>
       <r>   -16.5856     0.0000     2.0000 </r>
       <r>   -16.4803     0.0000     2.0000 </r>
       <r>   -16.3750     0.0000     2.0000 </r>
       <r>   -16.2697     0.0000     2.0000 </r>
       <r>   -16.1644     0.0000     2.0000 </r>
       <r>   -16.0591     0.0000     2.0000 </r>
       <r>   -15.9538     0.0000     2.0000 </r>
       <r>   -15.8485     0.0000     2.0000 </r>
       <r>   -15.7432     0.0000     2.0000 </r>
       <r>   -15.6379     0.0000     2.0000 </r>
       <r>   -15.5327     0.0000     2.0000 </r>
       <r>   -15.4274     0.0000     2.0000 </r>
       <r>   -15.3221     0.0000     2.0000 </r>
       <r>   -15.2168     0.0000     2.0000 </r>
       <r>   -15.1115     0.0000     2.0000 </r>
       <r>   -15.0062     0.0000     2.0000 </r>
       <r>   -14.9009     0.0000     2.0000 </r>
       <r>   -14.7956     0.0000     2.0000 </r>
       <r>   -14.6903     0.0000     2.0000 </r>
       <r>   -14.5850    -0.0000     2.0000 </r>
       <r>   -14.4797    -0.0000     2.0000 </r>
       <r>   -14.3744    -0.0000     2.0000 </r>
       <r>   -14.2691    -0.0000     2.0000 </r>
       <r>   -14.1639    -0.0000     2.0000 </r>
       <r>   -14.0586    -0.0035     1.9996 </r>
       <r>   -13.9533    -0.2537     1.9729 </r>
       <r>   -13.8480     0.5958     2.0357 </r>
       <r>   -13.7427    13.5010     3.4572 </r>
       <r>   -13.6374     5.7980     4.0677 </r>
       <r>   -13.5321    -0.6072     4.0038 </r>
       <r>   -13.4268    -0.0356     4.0000 </r>
       <r>   -13.3215    -0.0001     4.0000 </r>
       <r>   -13.2162    -0.0000     4.0000 </r>
       <r>   -13.1109    -0.0000     4.0000 </r>
       <r>   -13.0056     0.0000     4.0000 </r>
       <r>   -12.9003     0.0000     4.0000 </r>
       <r>   -12.7950     0.0000     4.0000 </r>
       <r>   -12.6898     0.0000     4.0000 </r>
       <r>   -12.5845     0.0000     4.0000 </r>
       <r>   -12.4792     0.0000     4.0000 </r>
       <r>   -12.3739     0.0000     4.0000 </r>
       <r>   -12.2686     0.0000     4.0000 </r>
       <r>   -12.1633    -0.0000     4.0000 </r>
       <r>   -12.0580    -0.0000     4.0000 </r>
       <r>   -11.9527    -0.0000     4.0000 </r>
       <r>   -11.8474    -0.0000     4.0000 </r>
       <r>   -11.7421    -0.0000     4.0000 </r>
       <r>   -11.6368    -0.0006     3.9999 </r>
       <r>   -11.5315    -0.0942     3.9900 </r>
       <r>   -11.4262    -0.5175     3.9355 </r>
       <r>   -11.3209     9.2276     4.9071 </r>
       <r>   -11.2157    12.1184     6.1831 </r>
       <r>   -11.1104    13.9651     7.6535 </r>
       <r>   -11.0051     3.4153     8.0131 </r>
       <r>   -10.8998     1.7692     8.1994 </r>
       <r>   -10.7945    14.5573     9.7322 </r>
       <r>   -10.6892     3.0294    10.0512 </r>
       <r>   -10.5839    -0.4718    10.0015 </r>
       <r>   -10.4786    -0.0152     9.9999 </r>
       <r>   -10.3733    -0.1462     9.9845 </r>
       <r>   -10.2680    -0.2320     9.9601 </r>
       <r>   -10.1627    11.4225    11.1628 </r>
       <r>   -10.0574     8.6068    12.0690 </r>
       <r>    -9.9521    -0.5804    12.0079 </r>
       <r>    -9.8469    -0.0744    12.0000 </r>
       <r>    -9.7416    -0.0004    12.0000 </r>
       <r>    -9.6363    -0.0000    12.0000 </r>
       <r>    -9.5310    -0.0000    12.0000 </r>
       <r>    -9.4257     0.0000    12.0000 </r>
       <r>    -9.3204    -0.0000    12.0000 </r>
       <r>    -9.2151    -0.0000    12.0000 </r>
       <r>    -9.1098    -0.0000    12.0000 </r>
       <r>    -9.0045    -0.0000    12.0000 </r>
       <r>    -8.8992    -0.0000    12.0000 </r>
       <r>    -8.7939    -0.0045    11.9995 </r>
       <r>    -8.6886    -0.2887    11.9691 </r>
       <r>    -8.5833     0.9175    12.0657 </r>
       <r>    -8.4780    13.8150    13.5203 </r>
       <r>    -8.3728     4.5180    13.9961 </r>
       <r>    -8.2675     8.1294    14.8520 </r>
       <r>    -8.1622    11.2995    16.0418 </r>
       <r>    -8.0569    -0.2702    16.0133 </r>
       <r>    -7.9516    -0.6526    15.9446 </r>
       <r>    -7.8463     3.5978    16.3234 </r>
       <r>    -7.7410    14.3591    17.8353 </r>
       <r>    -7.6357     1.1661    17.9581 </r>
       <r>    -7.5304     9.7672    18.9865 </r>
       <r>    -7.4251    25.0006    21.6189 </r>
       <r>    -7.3198    21.6715    23.9008 </r>
       <r>    -7.2145    18.0786    25.8043 </r>
       <r>    -7.1092    17.5153    27.6485 </r>
       <r>    -7.0040    16.0920    29.3429 </r>
       <r>    -6.8987    23.0047    31.7651 </r>
       <r>    -6.7934    25.3224    34.4314 </r>
       <r>    -6.6881    35.2161    38.1394 </r>
       <r>    -6.5828    39.3142    42.2789 </r>
       <r>    -6.4775    51.4419    47.6953 </r>
       <r>    -6.3722    39.9017    51.8967 </r>
       <r>    -6.2669    34.3765    55.5163 </r>
       <r>    -6.1616    46.0478    60.3648 </r>
       <r>    -6.0563    49.1620    65.5412 </r>
       <r>    -5.9510    24.7565    68.1478 </r>
       <r>    -5.8457    28.3875    71.1368 </r>
       <r>    -5.7404    36.1499    74.9432 </r>
       <r>    -5.6351    45.4169    79.7252 </r>
       <r>    -5.5299    42.0272    84.1504 </r>
       <r>    -5.4246    66.1364    91.1140 </r>
       <r>    -5.3193    64.0419    97.8572 </r>
       <r>    -5.2140    90.3408   107.3694 </r>
       <r>    -5.1087    87.7764   116.6116 </r>
       <r>    -5.0034    80.8492   125.1244 </r>
       <r>    -4.8981    75.1316   133.0352 </r>
       <r>    -4.7928    80.2385   141.4838 </r>
       <r>    -4.6875    39.0760   145.5982 </r>
       <r>    -4.5822    13.5326   147.0231 </r>
       <r>    -4.4769     9.8099   148.0560 </r>
       <r>    -4.3716    -0.4688   148.0066 </r>
       <r>    -4.2663    -1.1755   147.8828 </r>
       <r>    -4.1611     9.5605   148.8895 </r>
       <r>    -4.0558    27.2387   151.7575 </r>
       <r>    -3.9505     2.9747   152.0707 </r>
       <r>    -3.8452    -0.6567   152.0016 </r>
       <r>    -3.7399    -0.0346   151.9979 </r>
       <r>    -3.6346    -0.5282   151.9423 </r>
       <r>    -3.5293     3.9071   152.3537 </r>
       <r>    -3.4240    14.3851   153.8684 </r>
       <r>    -3.3187     1.6049   154.0374 </r>
       <r>    -3.2134    -0.7625   153.9571 </r>
       <r>    -3.1081     2.0445   154.1723 </r>
       <r>    -3.0028    14.0958   155.6565 </r>
       <r>    -2.8975    13.2598   157.0527 </r>
       <r>    -2.7922     9.4366   158.0463 </r>
       <r>    -2.6870    -0.7430   157.9680 </r>
       <r>    -2.5817    11.1484   159.1419 </r>
       <r>    -2.4764     8.6752   160.0553 </r>
       <r>    -2.3711    -0.9447   159.9558 </r>
       <r>    -2.2658    10.5935   161.0712 </r>
       <r>    -2.1605     9.3083   162.0513 </r>
       <r>    -2.0552    -1.4457   161.8991 </r>
       <r>    -1.9499    12.9081   163.2582 </r>
       <r>    -1.8446    27.3782   166.1410 </r>
       <r>    -1.7393    16.2825   167.8554 </r>
       <r>    -1.6340     1.8112   168.0461 </r>
       <r>    -1.5287    -0.5290   167.9904 </r>
       <r>    -1.4234    -0.4918   167.9386 </r>
       <r>    -1.3182     9.8682   168.9777 </r>
       <r>    -1.2129    10.0983   170.0409 </r>
       <r>    -1.1076    -0.8720   169.9491 </r>
       <r>    -1.0023    12.0045   171.2131 </r>
       <r>    -0.8970    21.2059   173.4459 </r>
       <r>    -0.7917    12.5257   174.7648 </r>
       <r>    -0.6864    11.8594   176.0135 </r>
       <r>    -0.5811    -0.2109   175.9913 </r>
       <r>    -0.4758     0.5574   176.0500 </r>
       <r>    -0.3705    13.1388   177.4334 </r>
       <r>    -0.2652    10.3709   178.5254 </r>
       <r>    -0.1599    14.9382   180.0983 </r>
       <r>    -0.0546    15.1854   181.6972 </r>
       <r>     0.0507     2.8343   181.9956 </r>
       <r>     0.1559     3.8739   182.4035 </r>
       <r>     0.2612    14.1934   183.8980 </r>
       <r>     0.3665     1.3026   184.0351 </r>
       <r>     0.4718    -0.3276   184.0006 </r>
       <r>     0.5771    -0.0059   184.0000 </r>
       <r>     0.6824    -0.0000   184.0000 </r>
       <r>     0.7877    -0.0000   184.0000 </r>
       <r>     0.8930    -0.0000   184.0000 </r>
       <r>     0.9983     0.0000   184.0000 </r>
       <r>     1.1036     0.0000   184.0000 </r>
       <r>     1.2089     0.0000   184.0000 </r>
       <r>     1.3142     0.0000   184.0000 </r>
       <r>     1.4195     0.0000   184.0000 </r>
       <r>     1.5247     0.0000   184.0000 </r>
       <r>     1.6300     0.0000   184.0000 </r>
      </set>
      <set comment="spin 2">
       <r>   -29.9577     0.0000     0.0000 </r>
       <r>   -29.8524     0.0000     0.0000 </r>
       <r>   -29.7472     0.0000     0.0000 </r>
       <r>   -29.6419     0.0000     0.0000 </r>
       <r>   -29.5366     0.0000     0.0000 </r>
       <r>   -29.4313     0.0000     0.0000 </r>
       <r>   -29.3260    -0.0000    -0.0000 </r>
       <r>   -29.2207    -0.0000    -0.0000 </r>
       <r>   -29.1154    -0.0000    -0.0000 </r>
       <r>   -29.0101    -0.0000    -0.0000 </r>
       <r>   -28.9048    -0.0000    -0.0000 </r>
       <r>   -28.7995    -0.0022    -0.0002 </r>
       <r>   -28.6942    -0.2020    -0.0215 </r>
       <r>   -28.5889     0.1650    -0.0041 </r>
       <r>   -28.4836    12.7033     1.3334 </r>
       <r>   -28.3784     7.0017     2.0707 </r>
       <r>   -28.2731    -0.6212     2.0052 </r>
       <r>   -28.1678    -0.0496     2.0000 </r>
       <r>   -28.0625    -0.0002     2.0000 </r>
       <r>   -27.9572    -0.0000     2.0000 </r>
       <r>   -27.8519    -0.0000     2.0000 </r>
       <r>   -27.7466     0.0000     2.0000 </r>
       <r>   -27.6413     0.0000     2.0000 </r>
       <r>   -27.5360     0.0000     2.0000 </r>
       <r>   -27.4307     0.0000     2.0000 </r>
       <r>   -27.3254     0.0000     2.0000 </r>
       <r>   -27.2201     0.0000     2.0000 </r>
       <r>   -27.1148     0.0000     2.0000 </r>
       <r>   -27.0095     0.0000     2.0000 </r>
       <r>   -26.9043     0.0000     2.0000 </r>
       <r>   -26.7990     0.0000     2.0000 </r>
       <r>   -26.6937     0.0000     2.0000 </r>
       <r>   -26.5884     0.0000     2.0000 </r>
       <r>   -26.4831     0.0000     2.0000 </r>
       <r>   -26.3778     0.0000     2.0000 </r>
       <r>   -26.2725     0.0000     2.0000 </r>
       <r>   -26.1672     0.0000     2.0000 </r>
       <r>   -26.0619     0.0000     2.0000 </r>
       <r>   -25.9566     0.0000     2.0000 </r>
       <r>   -25.8513     0.0000     2.0000 </r>
       <r>   -25.7460     0.0000     2.0000 </r>
       <r>   -25.6407     0.0000     2.0000 </r>
       <r>   -25.5355     0.0000     2.0000 </r>
       <r>   -25.4302     0.0000     2.0000 </r>
       <r>   -25.3249     0.0000     2.0000 </r>
       <r>   -25.2196     0.0000     2.0000 </r>
       <r>   -25.1143     0.0000     2.0000 </r>
       <r>   -25.0090     0.0000     2.0000 </r>
       <r>   -24.9037     0.0000     2.0000 </r>
       <r>   -24.7984     0.0000     2.0000 </r>
       <r>   -24.6931     0.0000     2.0000 </r>
       <r>   -24.5878     0.0000     2.0000 </r>
       <r>   -24.4825     0.0000     2.0000 </r>
       <r>   -24.3772     0.0000     2.0000 </r>
       <r>   -24.2719     0.0000     2.0000 </r>
       <r>   -24.1666     0.0000     2.0000 </r>
       <r>   -24.0614     0.0000     2.0000 </r>
       <r>   -23.9561     0.0000     2.0000 </r>
       <r>   -23.8508     0.0000     2.0000 </r>
       <r>   -23.7455     0.0000     2.0000 </r>
       <r>   -23.6402     0.0000     2.0000 </r>
       <r>   -23.5349     0.0000     2.0000 </r>
       <r>   -23.4296     0.0000     2.0000 </r>
       <r>   -23.3243     0.0000     2.0000 </r>
       <r>   -23.2190     0.0000     2.0000 </r>
       <r>   -23.1137     0.0000     2.0000 </r>
       <r>   -23.0084     0.0000     2.0000 </r>
       <r>   -22.9031     0.0000     2.0000 </r>
       <r>   -22.7978     0.0000     2.0000 </r>
       <r>   -22.6926     0.0000     2.0000 </r>
       <r>   -22.5873     0.0000     2.0000 </r>
       <r>   -22.4820     0.0000     2.0000 </r>
       <r>   -22.3767     0.0000     2.0000 </r>
       <r>   -22.2714     0.0000     2.0000 </r>
       <r>   -22.1661     0.0000     2.0000 </r>
       <r>   -22.0608     0.0000     2.0000 </r>
       <r>   -21.9555     0.0000     2.0000 </r>
       <r>   -21.8502     0.0000     2.0000 </r>
       <r>   -21.7449     0.0000     2.0000 </r>
       <r>   -21.6396     0.0000     2.0000 </r>
       <r>   -21.5343     0.0000     2.0000 </r>
       <r>   -21.4290     0.0000     2.0000 </r>
       <r>   -21.3237     0.0000     2.0000 </r>
       <r>   -21.2185     0.0000     2.0000 </r>
       <r>   -21.1132     0.0000     2.0000 </r>
       <r>   -21.0079     0.0000     2.0000 </r>
       <r>   -20.9026     0.0000     2.0000 </r>
       <r>   -20.7973     0.0000     2.0000 </r>
       <r>   -20.6920     0.0000     2.0000 </r>
       <r>   -20.5867     0.0000     2.0000 </r>
       <r>   -20.4814     0.0000     2.0000 </r>
       <r>   -20.3761     0.0000     2.0000 </r>
       <r>   -20.2708     0.0000     2.0000 </r>
       <r>   -20.1655     0.0000     2.0000 </r>
       <r>   -20.0602     0.0000     2.0000 </r>
       <r>   -19.9549     0.0000     2.0000 </r>
       <r>   -19.8497     0.0000     2.0000 </r>
       <r>   -19.7444     0.0000     2.0000 </r>
       <r>   -19.6391     0.0000     2.0000 </r>
       <r>   -19.5338     0.0000     2.0000 </r>
       <r>   -19.4285     0.0000     2.0000 </r>
       <r>   -19.3232     0.0000     2.0000 </r>
       <r>   -19.2179     0.0000     2.0000 </r>
       <r>   -19.1126     0.0000     2.0000 </r>
       <r>   -19.0073     0.0000     2.0000 </r>
       <r>   -18.9020     0.0000     2.0000 </r>
       <r>   -18.7967     0.0000     2.0000 </r>
       <r>   -18.6914     0.0000     2.0000 </r>
       <r>   -18.5861     0.0000     2.0000 </r>
       <r>   -18.4808     0.0000     2.0000 </r>
       <r>   -18.3756     0.0000     2.0000 </r>
       <r>   -18.2703     0.0000     2.0000 </r>
       <r>   -18.1650     0.0000     2.0000 </r>
       <r>   -18.0597     0.0000     2.0000 </r>
       <r>   -17.9544     0.0000     2.0000 </r>
       <r>   -17.8491     0.0000     2.0000 </r>
       <r>   -17.7438     0.0000     2.0000 </r>
       <r>   -17.6385     0.0000     2.0000 </r>
       <r>   -17.5332     0.0000     2.0000 </r>
       <r>   -17.4279     0.0000     2.0000 </r>
       <r>   -17.3226     0.0000     2.0000 </r>
       <r>   -17.2173     0.0000     2.0000 </r>
       <r>   -17.1120     0.0000     2.0000 </r>
       <r>   -17.0068     0.0000     2.0000 </r>
       <r>   -16.9015     0.0000     2.0000 </r>
       <r>   -16.7962     0.0000     2.0000 </r>
       <r>   -16.6909     0.0000     2.0000 </r>
       <r>   -16.5856     0.0000     2.0000 </r>
       <r>   -16.4803     0.0000     2.0000 </r>
       <r>   -16.3750     0.0000     2.0000 </r>
       <r>   -16.2697     0.0000     2.0000 </r>
       <r>   -16.1644     0.0000     2.0000 </r>
       <r>   -16.0591     0.0000     2.0000 </r>
       <r>   -15.9538     0.0000     2.0000 </r>
       <r>   -15.8485     0.0000     2.0000 </r>
       <r>   -15.7432     0.0000     2.0000 </r>
       <r>   -15.6379     0.0000     2.0000 </r>
       <r>   -15.5327     0.0000     2.0000 </r>
       <r>   -15.4274     0.0000     2.0000 </r>
       <r>   -15.3221     0.0000     2.0000 </r>
       <r>   -15.2168     0.0000     2.0000 </r>
       <r>   -15.1115     0.0000     2.0000 </r>
       <r>   -15.0062     0.0000     2.0000 </r>
       <r>   -14.9009     0.0000     2.0000 </r>
       <r>   -14.7956     0.0000     2.0000 </r>
       <r>   -14.6903     0.0000     2.0000 </r>
       <r>   -14.5850    -0.0000     2.0000 </r>
       <r>   -14.4797    -0.0000     2.0000 </r>
       <r>   -14.3744    -0.0000     2.0000 </r>
       <r>   -14.2691    -0.0000     2.0000 </r>
       <r>   -14.1639    -0.0000     2.0000 </r>
       <r>   -14.0586    -0.0006     1.9999 </r>
       <r>   -13.9533    -0.0933     1.9901 </r>
       <r>   -13.8480    -0.5140     1.9360 </r>
       <r>   -13.7427     9.5447     2.9410 </r>
       <r>   -13.6374    10.5688     4.0538 </r>
       <r>   -13.5321    -0.3910     4.0126 </r>
       <r>   -13.4268    -0.1191     4.0001 </r>
       <r>   -13.3215    -0.0009     4.0000 </r>
       <r>   -13.2162    -0.0000     4.0000 </r>
       <r>   -13.1109    -0.0000     4.0000 </r>
       <r>   -13.0056     0.0000     4.0000 </r>
       <r>   -12.9003     0.0000     4.0000 </r>
       <r>   -12.7950     0.0000     4.0000 </r>
       <r>   -12.6898     0.0000     4.0000 </r>
       <r>   -12.5845     0.0000     4.0000 </r>
       <r>   -12.4792     0.0000     4.0000 </r>
       <r>   -12.3739     0.0000     4.0000 </r>
       <r>   -12.2686     0.0000     4.0000 </r>
       <r>   -12.1633    -0.0000     4.0000 </r>
       <r>   -12.0580    -0.0000     4.0000 </r>
       <r>   -11.9527    -0.0000     4.0000 </r>
       <r>   -11.8474    -0.0000     4.0000 </r>
       <r>   -11.7421    -0.0000     4.0000 </r>
       <r>   -11.6368    -0.0001     4.0000 </r>
       <r>   -11.5315    -0.0251     3.9974 </r>
       <r>   -11.4262    -0.5699     3.9373 </r>
       <r>   -11.3209     4.3938     4.4000 </r>
       <r>   -11.2157    14.7025     5.9480 </r>
       <r>   -11.1104    14.6593     7.4916 </r>
       <r>   -11.0051     5.3796     8.0580 </r>
       <r>   -10.8998    -1.1125     7.9409 </r>
       <r>   -10.7945     9.6538     8.9573 </r>
       <r>   -10.6892    10.4300    10.0555 </r>
       <r>   -10.5839    -0.4114    10.0122 </r>
       <r>   -10.4786    -0.1153    10.0001 </r>
       <r>   -10.3733    -0.0323     9.9967 </r>
       <r>   -10.2680    -0.5951     9.9340 </r>
       <r>   -10.1627     5.3758    10.5001 </r>
       <r>   -10.0574    13.7423    11.9470 </r>
       <r>    -9.9521     0.7815    12.0293 </r>
       <r>    -9.8469    -0.2742    12.0004 </r>
       <r>    -9.7416    -0.0041    12.0000 </r>
       <r>    -9.6363    -0.0000    12.0000 </r>
       <r>    -9.5310    -0.0000    12.0000 </r>
       <r>    -9.4257    -0.0000    12.0000 </r>
       <r>    -9.3204    -0.0000    12.0000 </r>
       <r>    -9.2151    -0.0000    12.0000 </r>
       <r>    -9.1098    -0.0000    12.0000 </r>
       <r>    -9.0045    -0.0000    12.0000 </r>
       <r>    -8.8992    -0.0000    12.0000 </r>
       <r>    -8.7939    -0.0011    11.9999 </r>
       <r>    -8.6886    -0.1352    11.9856 </r>
       <r>    -8.5833    -0.2992    11.9541 </r>
       <r>    -8.4780    11.0892    13.1218 </r>
       <r>    -8.3728     8.5235    14.0192 </r>
       <r>    -8.2675     2.1203    14.2425 </r>
       <r>    -8.1622    14.5174    15.7710 </r>
       <r>    -8.0569     2.6267    16.0476 </r>
       <r>    -7.9516    -0.6314    15.9811 </r>
       <r>    -7.8463     0.0538    15.9868 </r>
       <r>    -7.7410    12.3959    17.2920 </r>
       <r>    -7.6357     6.6485    17.9920 </r>
       <r>    -7.5304     6.0172    18.6256 </r>
       <r>    -7.4251    20.8311    20.8190 </r>
       <r>    -7.3198    23.2737    23.2695 </r>
       <r>    -7.2145    16.9752    25.0569 </r>
       <r>    -7.1092    20.7494    27.2416 </r>
       <r>    -7.0040    13.4995    28.6630 </r>
       <r>    -6.8987    24.0147    31.1916 </r>
       <r>    -6.7934    22.5318    33.5640 </r>
       <r>    -6.6881    35.2836    37.2791 </r>
       <r>    -6.5828    36.2238    41.0932 </r>
       <r>    -6.4775    49.8510    46.3422 </r>
       <r>    -6.3722    44.8206    51.0614 </r>
       <r>    -6.2669    31.8367    54.4136 </r>
       <r>    -6.1616    42.9582    58.9368 </r>
       <r>    -6.0563    52.2535    64.4387 </r>
       <r>    -5.9510    29.4592    67.5405 </r>
       <r>    -5.8457    27.6373    70.4505 </r>
       <r>    -5.7404    31.9787    73.8177 </r>
       <r>    -5.6351    47.8448    78.8554 </r>
       <r>    -5.5299    35.4323    82.5861 </r>
       <r>    -5.4246    63.3390    89.2552 </r>
       <r>    -5.3193    63.1820    95.9078 </r>
       <r>    -5.2140    87.6375   105.1354 </r>
       <r>    -5.1087    89.8275   114.5936 </r>
       <r>    -5.0034    81.4147   123.1660 </r>
       <r>    -4.8981    70.3893   130.5774 </r>
       <r>    -4.7928    82.7319   139.2885 </r>
       <r>    -4.6875    54.2844   145.0042 </r>
       <r>    -4.5822    12.5913   146.3300 </r>
       <r>    -4.4769    13.3717   147.7379 </r>
       <r>    -4.3716     2.9764   148.0513 </r>
       <r>    -4.2663    -0.8789   147.9588 </r>
       <r>    -4.1611     0.2994   147.9903 </r>
       <r>    -4.0558    25.3189   150.6562 </r>
       <r>    -3.9505    14.1015   152.1410 </r>
       <r>    -3.8452    -1.2378   152.0107 </r>
       <r>    -3.7399    -0.1009   152.0000 </r>
       <r>    -3.6346    -0.0005   152.0000 </r>
       <r>    -3.5293    -0.0311   151.9967 </r>
       <r>    -3.4240    -0.5938   151.9342 </r>
       <r>    -3.3187     5.3386   152.4963 </r>
       <r>    -3.2134    13.6974   153.9385 </r>
       <r>    -3.1081     0.1834   153.9578 </r>
       <r>    -3.0028     7.3356   154.7302 </r>
       <r>    -2.8975    14.4958   156.2565 </r>
       <r>    -2.7922    14.4683   157.7799 </r>
       <r>    -2.6870     2.0432   157.9951 </r>
       <r>    -2.5817     2.8817   158.2985 </r>
       <r>    -2.4764    14.5171   159.8270 </r>
       <r>    -2.3711     1.8450   160.0213 </r>
       <r>    -2.2658    -0.2495   159.9950 </r>
       <r>    -2.1605    12.6140   161.3232 </r>
       <r>    -2.0552     6.4202   161.9992 </r>
       <r>    -1.9499     4.3358   162.4557 </r>
       <r>    -1.8446    19.3101   164.4889 </r>
       <r>    -1.7393    21.5650   166.7596 </r>
       <r>    -1.6340    12.2358   168.0479 </r>
       <r>    -1.5287    -0.2768   168.0188 </r>
       <r>    -1.4234    -0.2392   167.9936 </r>
       <r>    -1.3182    -0.6098   167.9294 </r>
       <r>    -1.2129     7.8850   168.7596 </r>
       <r>    -1.1076    11.4958   169.9700 </r>
       <r>    -1.0023     3.4904   170.3375 </r>
       <r>    -0.8970    13.8617   171.7970 </r>
       <r>    -0.7917    12.0173   173.0624 </r>
       <r>    -0.6864    17.2485   174.8785 </r>
       <r>    -0.5811    11.0710   176.0442 </r>
       <r>    -0.4758    -0.6238   175.9785 </r>
       <r>    -0.3705     1.1202   176.0965 </r>
       <r>    -0.2652    14.9190   177.6673 </r>
       <r>    -0.1599    17.0106   179.4584 </r>
       <r>    -0.0546     9.0569   180.4121 </r>
       <r>     0.0507    13.1707   181.7988 </r>
       <r>     0.1559     9.7405   182.8245 </r>
       <r>     0.2612    11.4667   184.0318 </r>
       <r>     0.3665    -0.1392   184.0172 </r>
       <r>     0.4718    -0.1614   184.0002 </r>
       <r>     0.5771    -0.0015   184.0000 </r>
       <r>     0.6824    -0.0000   184.0000 </r>
       <r>     0.7877    -0.0000   184.0000 </r>
       <r>     0.8930     0.0000   184.0000 </r>
       <r>     0.9983     0.0000   184.0000 </r>
       <r>     1.1036     0.0000   184.0000 </r>
       <r>     1.2089     0.0000   184.0000 </r>
       <r>     1.3142     0.0000   184.0000 </r>
       <r>     1.4195     0.0000   184.0000 </r>
       <r>     1.5247     0.0000   184.0000 </r>
       <r>     1.6300     0.0000   184.0000 </r>
      </set>
     </set>
    </array>
   </total>
  </dos>
 </calculation>
 <structure name="finalpos" >
  <crystal>
   <varray name="basis" >
    <v>      15.00000000       0.00000000       0.00000000 </v>
    <v>       0.00000000      15.00000000       0.00000000 </v>
    <v>       0.00000000       0.00000000      15.00000000 </v>
   </varray>
   <i name="volume">   3375.00000000 </i>
   <varray name="rec_basis" >
    <v>       0.06666667       0.00000000       0.00000000 </v>
    <v>       0.00000000       0.06666667       0.00000000 </v>
    <v>       0.00000000       0.00000000       0.06666667 </v>
   </varray>
  </crystal>
  <varray name="positions" >
   <v>       0.29306533       0.40968667       0.55640800 </v>
   <v>       0.36478200       0.54430800       0.48846600 </v>
   <v>       0.40917867       0.29459667       0.55823733 </v>
   <v>       0.52425333       0.51818067       0.47714400 </v>
   <v>       0.56193600       0.35988333       0.52082200 </v>
   <v>       0.44573733       0.44097667       0.60510400 </v>
   <v>       0.41929533       0.40116200       0.43698200 </v>
   <v>       0.22505267       0.56377933       0.56082467 </v>
   <v>       0.33563533       0.53761000       0.66281133 </v>
   <v>       0.36253000       0.68868000       0.59188467 </v>
   <v>       0.47332667       0.66196667       0.47743867 </v>
   <v>       0.61839600       0.47593933       0.60804800 </v>
   <v>       0.48469133       0.58597667       0.61875867 </v>
   <v>       0.73899333       0.49511267       0.63679600 </v>
   <v>       0.81384000       0.50815667       0.62508133 </v>
  </varray>
 </structure>
</modeling>
