 vasp.5.4.4.18Apr17-6-g9f103f2a35 (build May 08 2019 13:49:07) complex          
  
 executed on             LinuxIFC date 2019.11.13  11:39:14
 running on   24 total cores
 distrk:  each k-point on   24 cores,    1 groups
 distr:  one band on NCORES_PER_BAND=   6 cores,    4 groups


--------------------------------------------------------------------------------------------------------


 INCAR:
 POTCAR:    PAW_PBE Cu 22Jun2005                  
 POTCAR:    PAW_PBE C 08Apr2002                   
 POTCAR:    PAW_PBE O 08Apr2002                   
 POTCAR:    PAW_PBE Cu 22Jun2005                  
   VRHFIN =Cu: d10 p1                                                           
   LEXCH  = PE                                                                  
   EATOM  =  1390.9808 eV,  102.2342 Ry                                         
                                                                                
   TITEL  = PAW_PBE Cu 22Jun2005                                                
   LULTRA =        F    use ultrasoft PP ?                                      
   IUNSCR =        1    unscreen: 0-lin 1-nonlin 2-no                           
   RPACOR =    2.000    partial core radius                                     
   POMASS =   63.546; ZVAL   =   11.000    mass and valenz                      
   RCORE  =    2.300    outmost cutoff radius                                   
   RWIGS  =    2.200; RWIGS  =    1.164    wigner-seitz radius (au A)           
   ENMAX  =  295.446; ENMIN  =  221.585 eV                                      
   ICORE  =        3    local potential                                         
   LCOR   =        T    correct aug charges                                     
   LPAW   =        T    paw PP                                                  
   EAUG   =  586.980                                                            
   DEXC   =    0.000                                                            
   RMAX   =    2.344    core radius for proj-oper                               
   RAUG   =    1.300    factor for augmentation sphere                          
   RDEP   =    2.302    radius for radial grids                                 
   RDEPT  =    1.771    core radius for aug-charge                              
                                                                                
   Atomic configuration                                                         
    9 entries                                                                   
     n  l   j            E        occ.                                          
     1  0  0.50     -8850.2468   2.0000                                         
     2  0  0.50     -1062.3498   2.0000                                         
     2  1  1.50      -916.8226   6.0000                                         
     3  0  0.50      -114.6929   2.0000                                         
     3  1  1.50       -72.1325   6.0000                                         
     3  2  2.50        -5.0394  10.0000                                         
     4  0  0.50        -4.6097   1.0000                                         
     4  1  0.50        -4.0817   0.0000                                         
     4  3  2.50        -1.3606   0.0000                                         
   Description                                                                  
     l       E           TYP  RCUT    TYP  RCUT                                 
     2     -5.0393973     23  2.200                                             
     2     10.8846608     23  2.200                                             
     0     -4.6097109     23  2.200                                             
     0      8.2520465     23  2.200                                             
     1     -2.7211652     23  2.200                                             
     1     21.7055443     23  2.200                                             
     3      2.7211652     23  2.300                                             
  local pseudopotential read in
  partial core-charges read in
  partial kinetic energy density read in
  atomic valenz-charges read in
  non local Contribution for L=           2  read in
    real space projection operators read in
  non local Contribution for L=           2  read in
    real space projection operators read in
  non local Contribution for L=           0  read in
    real space projection operators read in
  non local Contribution for L=           0  read in
    real space projection operators read in
  non local Contribution for L=           1  read in
    real space projection operators read in
  non local Contribution for L=           1  read in
    real space projection operators read in
    PAW grid and wavefunctions read in
 
   number of l-projection  operators is LMAX  =           6
   number of lm-projection operators is LMMAX =          18
 
 POTCAR:    PAW_PBE C 08Apr2002                   
   VRHFIN =C: s2p2                                                              
   LEXCH  = PE                                                                  
   EATOM  =   147.1560 eV,   10.8157 Ry                                         
                                                                                
   TITEL  = PAW_PBE C 08Apr2002                                                 
   LULTRA =        F    use ultrasoft PP ?                                      
   IUNSCR =        1    unscreen: 0-lin 1-nonlin 2-no                           
   RPACOR =    1.200    partial core radius                                     
   POMASS =   12.011; ZVAL   =    4.000    mass and valenz                      
   RCORE  =    1.500    outmost cutoff radius                                   
   RWIGS  =    1.630; RWIGS  =    0.863    wigner-seitz radius (au A)           
   ENMAX  =  400.000; ENMIN  =  300.000 eV                                      
   ICORE  =        2    local potential                                         
   LCOR   =        T    correct aug charges                                     
   LPAW   =        T    paw PP                                                  
   EAUG   =  644.873                                                            
   DEXC   =    0.000                                                            
   RMAX   =    1.529    core radius for proj-oper                               
   RAUG   =    1.300    factor for augmentation sphere                          
   RDEP   =    1.501    radius for radial grids                                 
   RDEPT  =    1.300    core radius for aug-charge                              
                                                                                
   Atomic configuration                                                         
    4 entries                                                                   
     n  l   j            E        occ.                                          
     1  0  0.50      -273.3789   2.0000                                         
     2  0  0.50       -13.7508   2.0000                                         
     2  1  0.50        -5.2854   2.0000                                         
     3  2  1.50        -5.4423   0.0000                                         
   Description                                                                  
     l       E           TYP  RCUT    TYP  RCUT                                 
     0    -13.7508458     23  1.200                                             
     0     -8.2022199     23  1.200                                             
     1     -5.2854383     23  1.500                                             
     1     34.0145650     23  1.500                                             
     2     -5.4423304      7  1.500                                             
  local pseudopotential read in
  partial core-charges read in
  partial kinetic energy density read in
  atomic valenz-charges read in
  non local Contribution for L=           0  read in
    real space projection operators read in
  non local Contribution for L=           0  read in
    real space projection operators read in
  non local Contribution for L=           1  read in
    real space projection operators read in
  non local Contribution for L=           1  read in
    real space projection operators read in
    PAW grid and wavefunctions read in
 
   number of l-projection  operators is LMAX  =           4
   number of lm-projection operators is LMMAX =           8
 
 POTCAR:    PAW_PBE O 08Apr2002                   
   VRHFIN =O: s2p4                                                              
   LEXCH  = PE                                                                  
   EATOM  =   432.3788 eV,   31.7789 Ry                                         
                                                                                
   TITEL  = PAW_PBE O 08Apr2002                                                 
   LULTRA =        F    use ultrasoft PP ?                                      
   IUNSCR =        1    unscreen: 0-lin 1-nonlin 2-no                           
   RPACOR =    1.200    partial core radius                                     
   POMASS =   16.000; ZVAL   =    6.000    mass and valenz                      
   RCORE  =    1.520    outmost cutoff radius                                   
   RWIGS  =    1.550; RWIGS  =    0.820    wigner-seitz radius (au A)           
   ENMAX  =  400.000; ENMIN  =  300.000 eV                                      
   ICORE  =        2    local potential                                         
   LCOR   =        T    correct aug charges                                     
   LPAW   =        T    paw PP                                                  
   EAUG   =  605.392                                                            
   DEXC   =    0.000                                                            
   RMAX   =    1.553    core radius for proj-oper                               
   RAUG   =    1.300    factor for augmentation sphere                          
   RDEP   =    1.550    radius for radial grids                                 
   RDEPT  =    1.329    core radius for aug-charge                              
                                                                                
   Atomic configuration                                                         
    4 entries                                                                   
     n  l   j            E        occ.                                          
     1  0  0.50      -514.6923   2.0000                                         
     2  0  0.50       -23.9615   2.0000                                         
     2  1  0.50        -9.0305   4.0000                                         
     3  2  1.50        -9.5241   0.0000                                         
   Description                                                                  
     l       E           TYP  RCUT    TYP  RCUT                                 
     0    -23.9615318     23  1.200                                             
     0     -9.5240782     23  1.200                                             
     1     -9.0304911     23  1.520                                             
     1      8.1634956     23  1.520                                             
     2     -9.5240782      7  1.500                                             
  local pseudopotential read in
  partial core-charges read in
  partial kinetic energy density read in
  kinetic energy density of atom read in
  atomic valenz-charges read in
  non local Contribution for L=           0  read in
    real space projection operators read in
  non local Contribution for L=           0  read in
    real space projection operators read in
  non local Contribution for L=           1  read in
    real space projection operators read in
  non local Contribution for L=           1  read in
    real space projection operators read in
    PAW grid and wavefunctions read in
 
   number of l-projection  operators is LMAX  =           4
   number of lm-projection operators is LMMAX =           8
 
  PAW_PBE Cu 22Jun2005                  :
 energy of atom  1       EATOM=-1390.9808
 kinetic energy error for atom=    0.0033 (will be added to EATOM!!)
  PAW_PBE C 08Apr2002                   :
 energy of atom  2       EATOM= -147.1560
 kinetic energy error for atom=    0.0057 (will be added to EATOM!!)
  PAW_PBE O 08Apr2002                   :
 energy of atom  3       EATOM= -432.3788
 kinetic energy error for atom=    0.0168 (will be added to EATOM!!)
 
 
 POSCAR: Cu13 C1 O1                              
  positions in cartesian coordinates
  No initial velocities read in
 exchange correlation table for  LEXCH =        8
   RHO(1)=    0.500       N(1)  =     2000
   RHO(2)=  100.500       N(2)  =     4000
 


--------------------------------------------------------------------------------------------------------


 ion  position               nearest neighbor table
   1  0.289  0.416  0.552-   7 2.39   9 2.47   3 2.56   6 2.56   2 2.57   8 2.58
   2  0.376  0.552  0.495-   7 2.39  10 2.40   9 2.40   8 2.44   4 2.44  13 2.50  11 2.53   1 2.57
                             6 2.70
   3  0.398  0.285  0.560-   7 2.40   6 2.47   5 2.50   1 2.56
   4  0.533  0.509  0.486-  12 2.35  13 2.40   2 2.44   7 2.46   6 2.52   5 2.52  11 2.57
   5  0.549  0.347  0.524-   6 2.36   7 2.45   3 2.50   4 2.52  12 2.56
   6  0.449  0.434  0.610-   9 2.35   5 2.36  13 2.45   7 2.46   3 2.47   4 2.52   1 2.56  12 2.60
                             2 2.70
   7  0.413  0.403  0.453-   2 2.39   1 2.39   3 2.40   5 2.45   6 2.46   4 2.46
   8  0.225  0.576  0.550-   9 2.36   2 2.44  10 2.55   1 2.58
   9  0.340  0.539  0.651-   6 2.35   8 2.36  13 2.40   2 2.40   1 2.47  10 2.54
  10  0.349  0.689  0.573-   2 2.40   9 2.54   8 2.55  11 2.58  13 2.58
  11  0.491  0.675  0.476-  13 2.41   2 2.53   4 2.57  10 2.58
  12  0.617  0.475  0.614-  14 1.85   4 2.35   5 2.56   6 2.60  13 2.65
  13  0.486  0.593  0.614-   4 2.40   9 2.40  11 2.41   6 2.45   2 2.50  10 2.58  12 2.65
  14  0.738  0.477  0.640-  15 1.16  12 1.85
  15  0.815  0.484  0.641-  14 1.16
 

IMPORTANT INFORMATION: All symmetrisations will be switched off!
NOSYMM: (Re-)initialisation of all symmetry stuff for point group C_1.

 
 

Automatic generation of k-mesh.
 generate k-points for:    1    1    1
Space group operators:
 irot       det(A)        alpha          n_x          n_y          n_z        tau_x        tau_y        tau_z
    1     1.000000     0.000000     1.000000     0.000000     0.000000     0.000000     0.000000     0.000000
 
 Subroutine IBZKPT returns following result:
 ===========================================
 
 Found      1 irreducible k-points:
 
 Following reciprocal coordinates:
            Coordinates               Weight
  0.000000  0.000000  0.000000      1.000000
 
 Following cartesian coordinates:
            Coordinates               Weight
  0.000000  0.000000  0.000000      1.000000
 


--------------------------------------------------------------------------------------------------------




 Dimension of arrays:
   k-points           NKPTS =      1   k-points in BZ     NKDIM =      1   number of bands    NBANDS=     92
   number of dos      NEDOS =    301   number of ions     NIONS =     15
   non local maximal  LDIM  =      6   non local SUM 2l+1 LMDIM =     18
   total plane-waves  NPLWV = ******
   max r-space proj   IRMAX =      1   max aug-charges    IRDMAX=  15028
   dimension x,y,z NGX =   120 NGY =  120 NGZ =  120
   dimension x,y,z NGXF=   240 NGYF=  240 NGZF=  240
   support grid    NGXF=   240 NGYF=  240 NGZF=  240
   ions per type =              13   1   1
   NGX,Y,Z   is equivalent  to a cutoff of  13.30, 13.30, 13.30 a.u.
   NGXF,Y,Z  is equivalent  to a cutoff of  26.60, 26.60, 26.60 a.u.

 SYSTEM =  CuCO                                    
 POSCAR =  Cu13 C1 O1                              

 Startparameter for this run:
   NWRITE =      2    write-flag & timer
   PREC   = accura    normal or accurate (medium, high low for compatibility)
   ISTART =      0    job   : 0-new  1-cont  2-samecut
   ICHARG =      2    charge: 1-file 2-atom 10-const
   ISPIN  =      2    spin polarized calculation?
   LNONCOLLINEAR =      F non collinear calculations
   LSORBIT =      F    spin-orbit coupling
   INIWAV =      1    electr: 0-lowe 1-rand  2-diag
   LASPH  =      F    aspherical Exc in radial PAW
   METAGGA=      F    non-selfconsistent MetaGGA calc.

 Electronic Relaxation 1
   ENCUT  =  600.0 eV  44.10 Ry    6.64 a.u.  29.96 29.96 29.96*2*pi/ulx,y,z
   ENINI  =  600.0     initial cutoff
   ENAUG  =  644.9 eV  augmentation charge cutoff
   NELM   =    300;   NELMIN=  3; NELMDL= -5     # of ELM steps 
   EDIFF  = 0.1E-06   stopping-criterion for ELM
   LREAL  =      F    real-space projection
   NLSPLINE    = F    spline interpolate recip. space projectors
   LCOMPAT=      F    compatible to vasp.4.4
   GGA_COMPAT  = T    GGA compatible to vasp.4.4-vasp.4.6
   LMAXPAW     = -100 max onsite density
   LMAXMIX     =    2 max onsite mixed and CHGCAR
   VOSKOWN=      0    Vosko Wilk Nusair interpolation
   ROPT   =    0.00000   0.00000   0.00000
 Ionic relaxation
   EDIFFG = -.1E-02   stopping-criterion for IOM
   NSW    =      0    number of steps for IOM
   NBLOCK =      1;   KBLOCK =      1    inner block; outer block 
   IBRION =     -1    ionic relax: 0-MD 1-quasi-New 2-CG
   NFREE  =      0    steps in history (QN), initial steepest desc. (CG)
   ISIF   =      2    stress and relaxation
   IWAVPR =     10    prediction:  0-non 1-charg 2-wave 3-comb
   ISYM   =      0    0-nonsym 1-usesym 2-fastsym
   LCORR  =      T    Harris-Foulkes like correction to forces

   POTIM  = 0.5000    time-step for ionic-motion
   TEIN   =    0.0    initial temperature
   TEBEG  =    0.0;   TEEND  =   0.0 temperature during run
   SMASS  =  -3.00    Nose mass-parameter (am)
   estimated Nose-frequenzy (Omega)   =  0.10E-29 period in steps =****** mass=  -0.514E-26a.u.
   SCALEE = 1.0000    scale energy and forces
   NPACO  =    256;   APACO  = 16.0  distance and # of slots for P.C.
   PSTRESS=    0.0 pullay stress

  Mass of Ions in am
   POMASS =  63.55 12.01 16.00
  Ionic Valenz
   ZVAL   =  11.00  4.00  6.00
  Atomic Wigner-Seitz radii
   RWIGS  =  -1.00 -1.00 -1.00
  virtual crystal weights 
   VCA    =   1.00  1.00  1.00
   NELECT =     153.0000    total number of electrons
   NUPDOWN=       1.0000    fix difference up-down

 DOS related values:
   EMIN   =  10.00;   EMAX   =-10.00  energy-range for DOS
   EFERMI =   0.00
   ISMEAR =     1;   SIGMA  =   0.10  broadening in eV -4-tet -1-fermi 0-gaus

 Electronic relaxation 2 (details)
   IALGO  =     68    algorithm
   LDIAG  =      T    sub-space diagonalisation (order eigenvalues)
   LSUBROT=      F    optimize rotation matrix (better conditioning)
   TURBO    =      0    0=normal 1=particle mesh
   IRESTART =      0    0=no restart 2=restart with 2 vectors
   NREBOOT  =      0    no. of reboots
   NMIN     =      0    reboot dimension
   EREF     =   0.00    reference energy to select bands
   IMIX   =      4    mixing-type and parameters
     AMIX     =   0.40;   BMIX     =  1.00
     AMIX_MAG =   1.60;   BMIX_MAG =  1.00
     AMIN     =   0.10
     WC   =   100.;   INIMIX=   1;  MIXPRE=   1;  MAXMIX= -45

 Intra band minimization:
   WEIMIN = 0.0000     energy-eigenvalue tresh-hold
   EBREAK =  0.27E-09  absolut break condition
   DEPER  =   0.30     relativ break condition  

   TIME   =   0.40     timestep for ELM

  volume/ion in A,a.u.               =     225.00      1518.37
  Fermi-wavevector in a.u.,A,eV,Ry     =   0.583733  1.103095  4.636102  0.340744
  Thomas-Fermi vector in A             =   1.629149
 
 Write flags
   LWAVE        =      F    write WAVECAR
   LDOWNSAMPLE  =      F    k-point downsampling of WAVECAR
   LCHARG       =      F    write CHGCAR
   LVTOT        =      F    write LOCPOT, total local potential
   LVHAR        =      F    write LOCPOT, Hartree potential only
   LELF         =      F    write electronic localiz. function (ELF)
   LORBIT       =      0    0 simple, 1 ext, 2 COOP (PROOUT), +10 PAW based schemes


 Dipole corrections
   LMONO  =      F    monopole corrections only (constant potential shift)
   LDIPOL =      F    correct potential (dipole corrections)
   IDIPOL =      0    1-x, 2-y, 3-z, 4-all directions 
   EPSILON=  1.0000000 bulk dielectric constant

 Exchange correlation treatment:
   GGA     =    PE    GGA type
   LEXCH   =     8    internal setting for exchange type
   VOSKOWN=      0    Vosko Wilk Nusair interpolation
   LHFCALC =     F    Hartree Fock is set to
   LHFONE  =     F    Hartree Fock one center treatment
   AEXX    =    0.0000 exact exchange contribution

 Linear response parameters
   LEPSILON=     F    determine dielectric tensor
   LRPA    =     F    only Hartree local field effects (RPA)
   LNABLA  =     F    use nabla operator in PAW spheres
   LVEL    =     F    velocity operator in full k-point grid
   LINTERFAST=   F  fast interpolation
   KINTER  =     0    interpolate to denser k-point grid
   CSHIFT  =0.1000    complex shift for real part using Kramers Kronig
   OMEGAMAX=  -1.0    maximum frequency
   DEG_THRESHOLD= 0.2000000E-02 threshold for treating states as degnerate
   RTIME   =   -0.100 relaxation time in fs
  (WPLASMAI=    0.000 imaginary part of plasma frequency in eV, 0.658/RTIME)
   DFIELD  = 0.0000000 0.0000000 0.0000000 field for delta impulse in time
 
 Orbital magnetization related:
   ORBITALMAG=     F  switch on orbital magnetization
   LCHIMAG   =     F  perturbation theory with respect to B field
   DQ        =  0.001000  dq finite difference perturbation B field
   LLRAUG    =     F  two centre corrections for induced B field



--------------------------------------------------------------------------------------------------------


 Static calculation
 charge density and potential will be updated during run
 spin polarized calculation
 RMM-DIIS sequential band-by-band and
  variant of blocked Davidson during initial phase
 perform sub-space diagonalisation
    before iterative eigenvector-optimisation
 modified Broyden-mixing scheme, WC =      100.0
 initial mixing is a Kerker type mixing with AMIX =  0.4000 and BMIX =      1.0000
 Hartree-type preconditioning will be used
 using additional bands           15
 reciprocal scheme for non local part
 use partial core corrections
 calculate Harris-corrections to forces 
   (improved forces if not selfconsistent)
 use gradient corrections 
 use of overlap-Matrix (Vanderbilt PP)
 Methfessel and Paxton  Order N= 1 SIGMA  =   0.10


--------------------------------------------------------------------------------------------------------


  energy-cutoff  :      600.00
  volume of cell :     3375.00
      direct lattice vectors                 reciprocal lattice vectors
    15.000000000  0.000000000  0.000000000     0.066666667  0.000000000  0.000000000
     0.000000000 15.000000000  0.000000000     0.000000000  0.066666667  0.000000000
     0.000000000  0.000000000 15.000000000     0.000000000  0.000000000  0.066666667

  length of vectors
    15.000000000 15.000000000 15.000000000     0.066666667  0.066666667  0.066666667


 
 k-points in units of 2pi/SCALE and weight: read from INCAR                         
   0.00000000  0.00000000  0.00000000       1.000
 
 k-points in reciprocal lattice and weights: read from INCAR                         
   0.00000000  0.00000000  0.00000000       1.000
 
 position of ions in fractional coordinates (direct lattice) 
   0.28926067  0.41625067  0.55242200
   0.37640133  0.55199667  0.49500933
   0.39828800  0.28527800  0.56039333
   0.53341200  0.50930933  0.48596667
   0.54921200  0.34667000  0.52431933
   0.44925333  0.43366867  0.60972200
   0.41321200  0.40280467  0.45304667
   0.22521200  0.57578133  0.55025933
   0.34014800  0.53869400  0.65061200
   0.34932000  0.68924667  0.57296400
   0.49069800  0.67492000  0.47603733
   0.61729667  0.47489600  0.61381267
   0.48615067  0.59278400  0.61379533
   0.73768667  0.47694400  0.63963133
   0.81488000  0.48387667  0.64109867
 
 position of ions in cartesian coordinates  (Angst):
   4.33891000  6.24376000  8.28633000
   5.64602000  8.27995000  7.42514000
   5.97432000  4.27917000  8.40590000
   8.00118000  7.63964000  7.28950000
   8.23818000  5.20005000  7.86479000
   6.73880000  6.50503000  9.14583000
   6.19818000  6.04207000  6.79570000
   3.37818000  8.63672000  8.25389000
   5.10222000  8.08041000  9.75918000
   5.23980000 10.33870000  8.59446000
   7.36047000 10.12380000  7.14056000
   9.25945000  7.12344000  9.20719000
   7.29226000  8.89176000  9.20693000
  11.06530000  7.15416000  9.59447000
  12.22320000  7.25815000  9.61648000
 


--------------------------------------------------------------------------------------------------------


 k-point  1 :   0.0000 0.0000 0.0000  plane waves:  112451

 maximum and minimum number of plane-waves per node :     18753    18726

 maximum number of plane-waves:    112451
 maximum index in each direction: 
   IXMAX=   29   IYMAX=   29   IZMAX=   29
   IXMIN=  -29   IYMIN=  -29   IZMIN=  -29


 parallel 3D FFT for wavefunctions:
    minimum data exchange during FFTs selected (reduces bandwidth)
 parallel 3D FFT for charge:
    minimum data exchange during FFTs selected (reduces bandwidth)


 total amount of memory used by VASP MPI-rank0   158680. kBytes
=======================================================================

   base      :      30000. kBytes
   nonl-proj :      12601. kBytes
   fftplans  :      27994. kBytes
   grid      :      74150. kBytes
   one-center:         93. kBytes
   wavefun   :      13842. kBytes
 
     INWAV:  cpu time    0.0000: real time    0.0002
 Broyden mixing: mesh for mixing (old mesh)
   NGX = 59   NGY = 59   NGZ = 59
  (NGX  =240   NGY  =240   NGZ  =240)
  gives a total of 205379 points

 initial charge density was supplied:
 charge density of overlapping atoms calculated
 number of electron     153.0000000 magnetization       1.0000000
 keeping initial charge density in first step


--------------------------------------------------------------------------------------------------------


 Maximum index for augmentation-charges          716 (set IRDMAX)


--------------------------------------------------------------------------------------------------------


 First call to EWALD:  gamma=   0.118
 Maximum number of real-space cells 3x 3x 3
 Maximum number of reciprocal cells 3x 3x 3

    FEWALD:  cpu time    0.0016: real time    0.0022


--------------------------------------- Iteration      1(   1)  ---------------------------------------


    POTLOK:  cpu time    1.1774: real time    1.1819
    SETDIJ:  cpu time    0.0175: real time    0.0175
     EDDAV:  cpu time    7.4747: real time    7.4834
       DOS:  cpu time    0.0011: real time    0.0011
    --------------------------------------------
      LOOP:  cpu time    8.6707: real time    8.6839

 eigenvalue-minimisations  :   376
 total energy-change (2. order) : 0.1117991E+04  (-0.4463383E+04)
 number of electron     153.0000000 magnetization       1.0000000
 augmentation part      153.0000000 magnetization       1.0000000

 Free energy of the ion-electron system (eV)
  ---------------------------------------------------
  alpha Z        PSCENC =        41.16232785
  Ewald energy   TEWEN  =     16401.51801922
  -Hartree energ DENC   =    -33423.23564826
  -exchange      EXHF   =         0.00000000
  -V(xc)+E(xc)   XCENC  =       623.49527371
  PAW double counting   =     16421.75059358   -17800.06104309
  entropy T*S    EENTRO =        -0.02272204
  eigenvalues    EBANDS =       191.16454714
  atomic energy  EATOM  =     18662.21924712
  Solvation  Ediel_sol  =         0.00000000
  ---------------------------------------------------
  free energy    TOTEN  =      1117.99059523 eV

  energy without entropy =     1118.01331727  energy(sigma->0) =     1117.99816924


--------------------------------------------------------------------------------------------------------




--------------------------------------- Iteration      1(   2)  ---------------------------------------


     EDDAV:  cpu time    7.3672: real time    7.3776
       DOS:  cpu time    0.0007: real time    0.0007
    --------------------------------------------
      LOOP:  cpu time    7.3679: real time    7.3783

 eigenvalue-minimisations  :   368
 total energy-change (2. order) :-0.1030158E+04  (-0.9783384E+03)
 number of electron     153.0000000 magnetization       1.0000000
 augmentation part      153.0000000 magnetization       1.0000000

 Free energy of the ion-electron system (eV)
  ---------------------------------------------------
  alpha Z        PSCENC =        41.16232785
  Ewald energy   TEWEN  =     16401.51801922
  -Hartree energ DENC   =    -33423.23564826
  -exchange      EXHF   =         0.00000000
  -V(xc)+E(xc)   XCENC  =       623.49527371
  PAW double counting   =     16421.75059358   -17800.06104309
  entropy T*S    EENTRO =         0.00701224
  eigenvalues    EBANDS =      -839.02345655
  atomic energy  EATOM  =     18662.21924712
  Solvation  Ediel_sol  =         0.00000000
  ---------------------------------------------------
  free energy    TOTEN  =        87.83232582 eV

  energy without entropy =       87.82531358  energy(sigma->0) =       87.82998841


--------------------------------------------------------------------------------------------------------




--------------------------------------- Iteration      1(   3)  ---------------------------------------


     EDDAV:  cpu time   11.5086: real time   11.5226
       DOS:  cpu time    0.0006: real time    0.0005
    --------------------------------------------
      LOOP:  cpu time   11.5091: real time   11.5231

 eigenvalue-minimisations  :   648
 total energy-change (2. order) :-0.1199183E+03  (-0.1121570E+03)
 number of electron     153.0000000 magnetization       1.0000000
 augmentation part      153.0000000 magnetization       1.0000000

 Free energy of the ion-electron system (eV)
  ---------------------------------------------------
  alpha Z        PSCENC =        41.16232785
  Ewald energy   TEWEN  =     16401.51801922
  -Hartree energ DENC   =    -33423.23564826
  -exchange      EXHF   =         0.00000000
  -V(xc)+E(xc)   XCENC  =       623.49527371
  PAW double counting   =     16421.75059358   -17800.06104309
  entropy T*S    EENTRO =         0.00643723
  eigenvalues    EBANDS =      -958.94116584
  atomic energy  EATOM  =     18662.21924712
  Solvation  Ediel_sol  =         0.00000000
  ---------------------------------------------------
  free energy    TOTEN  =       -32.08595848 eV

  energy without entropy =      -32.09239571  energy(sigma->0) =      -32.08810422


--------------------------------------------------------------------------------------------------------




--------------------------------------- Iteration      1(   4)  ---------------------------------------


     EDDAV:  cpu time   10.1985: real time   10.2089
       DOS:  cpu time    0.0009: real time    0.0009
    --------------------------------------------
      LOOP:  cpu time   10.1994: real time   10.2098

 eigenvalue-minimisations  :   560
 total energy-change (2. order) :-0.2361090E+02  (-0.2320335E+02)
 number of electron     153.0000000 magnetization       1.0000000
 augmentation part      153.0000000 magnetization       1.0000000

 Free energy of the ion-electron system (eV)
  ---------------------------------------------------
  alpha Z        PSCENC =        41.16232785
  Ewald energy   TEWEN  =     16401.51801922
  -Hartree energ DENC   =    -33423.23564826
  -exchange      EXHF   =         0.00000000
  -V(xc)+E(xc)   XCENC  =       623.49527371
  PAW double counting   =     16421.75059358   -17800.06104309
  entropy T*S    EENTRO =         0.00914987
  eigenvalues    EBANDS =      -982.55478211
  atomic energy  EATOM  =     18662.21924712
  Solvation  Ediel_sol  =         0.00000000
  ---------------------------------------------------
  free energy    TOTEN  =       -55.69686211 eV

  energy without entropy =      -55.70601198  energy(sigma->0) =      -55.69991206


--------------------------------------------------------------------------------------------------------




--------------------------------------- Iteration      1(   5)  ---------------------------------------


     EDDAV:  cpu time   11.9884: real time   12.0011
       DOS:  cpu time    0.0007: real time    0.0007
    CHARGE:  cpu time    0.7029: real time    0.7035
    MIXING:  cpu time    0.0222: real time    0.0222
    --------------------------------------------
      LOOP:  cpu time   12.7143: real time   12.7276

 eigenvalue-minimisations  :   680
 total energy-change (2. order) :-0.1739544E+01  (-0.1581877E+01)
 number of electron     153.0000009 magnetization       1.0000000
 augmentation part       87.5268643 magnetization       0.3805737

 Broyden mixing:
  rms(total) = 0.23618E+01    rms(broyden)= 0.23617E+01
  rms(prec ) = 0.27118E+01
  weight for this iteration     100.00

 Free energy of the ion-electron system (eV)
  ---------------------------------------------------
  alpha Z        PSCENC =        41.16232785
  Ewald energy   TEWEN  =     16401.51801922
  -Hartree energ DENC   =    -33423.23564826
  -exchange      EXHF   =         0.00000000
  -V(xc)+E(xc)   XCENC  =       623.49527371
  PAW double counting   =     16421.75059358   -17800.06104309
  entropy T*S    EENTRO =         0.00936196
  eigenvalues    EBANDS =      -984.29453860
  atomic energy  EATOM  =     18662.21924712
  Solvation  Ediel_sol  =         0.00000000
  ---------------------------------------------------
  free energy    TOTEN  =       -57.43640651 eV

  energy without entropy =      -57.44576847  energy(sigma->0) =      -57.43952716


--------------------------------------------------------------------------------------------------------




--------------------------------------- Iteration      1(   6)  ---------------------------------------


    POTLOK:  cpu time    1.1675: real time    1.1709
    SETDIJ:  cpu time    0.0174: real time    0.0174
    EDDIAG:  cpu time    1.0986: real time    1.1001
  RMM-DIIS:  cpu time    7.2818: real time    7.2911
    ORTHCH:  cpu time    0.0582: real time    0.0583
       DOS:  cpu time    0.0006: real time    0.0006
    CHARGE:  cpu time    0.6437: real time    0.6444
    MIXING:  cpu time    0.0230: real time    0.0230
    --------------------------------------------
      LOOP:  cpu time   10.2908: real time   10.3059

 eigenvalue-minimisations  :   424
 total energy-change (2. order) : 0.1013772E+01  (-0.1196129E+02)
 number of electron     153.0000011 magnetization       1.0000000
 augmentation part       95.6743631 magnetization       0.0926679

 Broyden mixing:
  rms(total) = 0.15464E+01    rms(broyden)= 0.15463E+01
  rms(prec ) = 0.17871E+01
  weight for this iteration     100.00

 eigenvalues of (default mixing * dielectric matrix)
  average eigenvalue GAMMA=   0.6138
  0.6138

 Free energy of the ion-electron system (eV)
  ---------------------------------------------------
  alpha Z        PSCENC =        41.16232785
  Ewald energy   TEWEN  =     16401.51801922
  -Hartree energ DENC   =    -33174.77945162
  -exchange      EXHF   =         0.00000000
  -V(xc)+E(xc)   XCENC  =       611.41442068
  PAW double counting   =     16703.19868963   -18027.47276890
  entropy T*S    EENTRO =         0.00855704
  eigenvalues    EBANDS =     -1273.69167574
  atomic energy  EATOM  =     18662.21924712
  Solvation  Ediel_sol  =         0.00000000
  ---------------------------------------------------
  free energy    TOTEN  =       -56.42263471 eV

  energy without entropy =      -56.43119175  energy(sigma->0) =      -56.42548706


--------------------------------------------------------------------------------------------------------




--------------------------------------- Iteration      1(   7)  ---------------------------------------


    POTLOK:  cpu time    1.1644: real time    1.1662
    SETDIJ:  cpu time    0.0173: real time    0.0173
    EDDIAG:  cpu time    1.1013: real time    1.1024
  RMM-DIIS:  cpu time    6.5730: real time    6.5798
    ORTHCH:  cpu time    0.0587: real time    0.0589
       DOS:  cpu time    0.0005: real time    0.0005
    CHARGE:  cpu time    0.6566: real time    0.6573
    MIXING:  cpu time    0.0230: real time    0.0230
    --------------------------------------------
      LOOP:  cpu time    9.5950: real time    9.6054

 eigenvalue-minimisations  :   384
 total energy-change (2. order) : 0.7079042E+01  (-0.2490896E+01)
 number of electron     153.0000010 magnetization       1.0000000
 augmentation part       92.8712664 magnetization       0.1102971

 Broyden mixing:
  rms(total) = 0.38436E+00    rms(broyden)= 0.38433E+00
  rms(prec ) = 0.47771E+00
  weight for this iteration     100.00

 eigenvalues of (default mixing * dielectric matrix)
  average eigenvalue GAMMA=   0.9082
  1.1469  0.6694

 Free energy of the ion-electron system (eV)
  ---------------------------------------------------
  alpha Z        PSCENC =        41.16232785
  Ewald energy   TEWEN  =     16401.51801922
  -Hartree energ DENC   =    -33310.19532402
  -exchange      EXHF   =         0.00000000
  -V(xc)+E(xc)   XCENC  =       615.77642161
  PAW double counting   =     17043.74144493   -18417.41202703
  entropy T*S    EENTRO =         0.00931280
  eigenvalues    EBANDS =     -1086.16301546
  atomic energy  EATOM  =     18662.21924712
  Solvation  Ediel_sol  =         0.00000000
  ---------------------------------------------------
  free energy    TOTEN  =       -49.34359297 eV

  energy without entropy =      -49.35290577  energy(sigma->0) =      -49.34669724


--------------------------------------------------------------------------------------------------------




--------------------------------------- Iteration      1(   8)  ---------------------------------------


    POTLOK:  cpu time    1.1680: real time    1.1696
    SETDIJ:  cpu time    0.0165: real time    0.0165
    EDDIAG:  cpu time    1.0995: real time    1.1011
  RMM-DIIS:  cpu time    7.6333: real time    7.6405
    ORTHCH:  cpu time    0.0584: real time    0.0589
       DOS:  cpu time    0.0005: real time    0.0005
    CHARGE:  cpu time    0.6579: real time    0.6587
    MIXING:  cpu time    0.0237: real time    0.0237
    --------------------------------------------
      LOOP:  cpu time   10.6578: real time   10.6695

 eigenvalue-minimisations  :   426
 total energy-change (2. order) : 0.2539136E+00  (-0.3958983E+00)
 number of electron     153.0000010 magnetization       1.0000000
 augmentation part       92.1223845 magnetization       0.1116126

 Broyden mixing:
  rms(total) = 0.28675E+00    rms(broyden)= 0.28673E+00
  rms(prec ) = 0.32420E+00
  weight for this iteration     100.00

 eigenvalues of (default mixing * dielectric matrix)
  average eigenvalue GAMMA=   0.9217
  1.3451  0.7100  0.7100

 Free energy of the ion-electron system (eV)
  ---------------------------------------------------
  alpha Z        PSCENC =        41.16232785
  Ewald energy   TEWEN  =     16401.51801922
  -Hartree energ DENC   =    -33356.84485331
  -exchange      EXHF   =         0.00000000
  -V(xc)+E(xc)   XCENC  =       616.13389911
  PAW double counting   =     17385.08605419   -18777.69132728
  entropy T*S    EENTRO =         0.00933674
  eigenvalues    EBANDS =     -1020.68238299
  atomic energy  EATOM  =     18662.21924712
  Solvation  Ediel_sol  =         0.00000000
  ---------------------------------------------------
  free energy    TOTEN  =       -49.08967935 eV

  energy without entropy =      -49.09901610  energy(sigma->0) =      -49.09279160


--------------------------------------------------------------------------------------------------------




--------------------------------------- Iteration      1(   9)  ---------------------------------------


    POTLOK:  cpu time    1.1647: real time    1.1680
    SETDIJ:  cpu time    0.0194: real time    0.0194
    EDDIAG:  cpu time    1.0965: real time    1.0983
  RMM-DIIS:  cpu time    6.6835: real time    6.7230
    ORTHCH:  cpu time    0.0565: real time    0.0565
       DOS:  cpu time    0.0005: real time    0.0005
    CHARGE:  cpu time    0.6575: real time    0.6583
    MIXING:  cpu time    0.0244: real time    0.0244
    --------------------------------------------
      LOOP:  cpu time    9.7030: real time    9.7483

 eigenvalue-minimisations  :   416
 total energy-change (2. order) : 0.3907587E-01  (-0.9688240E-01)
 number of electron     153.0000010 magnetization       1.0000000
 augmentation part       92.2889858 magnetization       0.0956302

 Broyden mixing:
  rms(total) = 0.18470E+00    rms(broyden)= 0.18470E+00
  rms(prec ) = 0.21924E+00
  weight for this iteration     100.00

 eigenvalues of (default mixing * dielectric matrix)
  average eigenvalue GAMMA=   1.0223
  2.0409  0.7758  0.7758  0.4967

 Free energy of the ion-electron system (eV)
  ---------------------------------------------------
  alpha Z        PSCENC =        41.16232785
  Ewald energy   TEWEN  =     16401.51801922
  -Hartree energ DENC   =    -33355.98227665
  -exchange      EXHF   =         0.00000000
  -V(xc)+E(xc)   XCENC  =       615.65485450
  PAW double counting   =     17500.39460908   -18895.16605619
  entropy T*S    EENTRO =         0.00924691
  eigenvalues    EBANDS =     -1018.86057532
  atomic energy  EATOM  =     18662.21924712
  Solvation  Ediel_sol  =         0.00000000
  ---------------------------------------------------
  free energy    TOTEN  =       -49.05060349 eV

  energy without entropy =      -49.05985039  energy(sigma->0) =      -49.05368579


--------------------------------------------------------------------------------------------------------




--------------------------------------- Iteration      1(  10)  ---------------------------------------


    POTLOK:  cpu time    1.1668: real time    1.1684
    SETDIJ:  cpu time    0.0171: real time    0.0171
    EDDIAG:  cpu time    1.1003: real time    1.1014
  RMM-DIIS:  cpu time    6.9796: real time    6.9865
    ORTHCH:  cpu time    0.0569: real time    0.0570
       DOS:  cpu time    0.0005: real time    0.0005
    CHARGE:  cpu time    0.6570: real time    0.6578
    MIXING:  cpu time    0.0249: real time    0.0249
    --------------------------------------------
      LOOP:  cpu time   10.0031: real time   10.0135

 eigenvalue-minimisations  :   418
 total energy-change (2. order) : 0.6004669E-01  (-0.2366919E-01)
 number of electron     153.0000010 magnetization       1.0000000
 augmentation part       92.4566255 magnetization       0.0847530

 Broyden mixing:
  rms(total) = 0.54846E-01    rms(broyden)= 0.54841E-01
  rms(prec ) = 0.72276E-01
  weight for this iteration     100.00

 eigenvalues of (default mixing * dielectric matrix)
  average eigenvalue GAMMA=   1.0283
  2.1114  0.9575  0.8086  0.8086  0.4552

 Free energy of the ion-electron system (eV)
  ---------------------------------------------------
  alpha Z        PSCENC =        41.16232785
  Ewald energy   TEWEN  =     16401.51801922
  -Hartree energ DENC   =    -33354.41309819
  -exchange      EXHF   =         0.00000000
  -V(xc)+E(xc)   XCENC  =       615.26755605
  PAW double counting   =     17598.69394253   -18995.14820858
  entropy T*S    EENTRO =         0.00934904
  eigenvalues    EBANDS =     -1018.29969184
  atomic energy  EATOM  =     18662.21924712
  Solvation  Ediel_sol  =         0.00000000
  ---------------------------------------------------
  free energy    TOTEN  =       -48.99055680 eV

  energy without entropy =      -48.99990584  energy(sigma->0) =      -48.99367315


--------------------------------------------------------------------------------------------------------




--------------------------------------- Iteration      1(  11)  ---------------------------------------


    POTLOK:  cpu time    1.1687: real time    1.1696
    SETDIJ:  cpu time    0.0174: real time    0.0174
    EDDIAG:  cpu time    1.0982: real time    1.0994
  RMM-DIIS:  cpu time    7.1935: real time    7.2003
    ORTHCH:  cpu time    0.0556: real time    0.0561
       DOS:  cpu time    0.0005: real time    0.0005
    CHARGE:  cpu time    0.6487: real time    0.6494
    MIXING:  cpu time    0.0257: real time    0.0257
    --------------------------------------------
      LOOP:  cpu time   10.2081: real time   10.2184

 eigenvalue-minimisations  :   433
 total energy-change (2. order) : 0.7493890E-02  (-0.7456125E-02)
 number of electron     153.0000010 magnetization       1.0000000
 augmentation part       92.3957795 magnetization       0.0871820

 Broyden mixing:
  rms(total) = 0.45721E-01    rms(broyden)= 0.45719E-01
  rms(prec ) = 0.57912E-01
  weight for this iteration     100.00

 eigenvalues of (default mixing * dielectric matrix)
  average eigenvalue GAMMA=   1.0332
  2.1487  1.4326  0.7803  0.7803  0.5980  0.4593

 Free energy of the ion-electron system (eV)
  ---------------------------------------------------
  alpha Z        PSCENC =        41.16232785
  Ewald energy   TEWEN  =     16401.51801922
  -Hartree energ DENC   =    -33361.85587400
  -exchange      EXHF   =         0.00000000
  -V(xc)+E(xc)   XCENC  =       615.38059751
  PAW double counting   =     17646.86701542   -19045.46633625
  entropy T*S    EENTRO =         0.00930387
  eigenvalues    EBANDS =     -1008.81736364
  atomic energy  EATOM  =     18662.21924712
  Solvation  Ediel_sol  =         0.00000000
  ---------------------------------------------------
  free energy    TOTEN  =       -48.98306291 eV

  energy without entropy =      -48.99236678  energy(sigma->0) =      -48.98616420


--------------------------------------------------------------------------------------------------------




--------------------------------------- Iteration      1(  12)  ---------------------------------------


    POTLOK:  cpu time    1.1681: real time    1.1691
    SETDIJ:  cpu time    0.0168: real time    0.0172
    EDDIAG:  cpu time    1.0984: real time    1.0993
  RMM-DIIS:  cpu time    6.9934: real time    7.0001
    ORTHCH:  cpu time    0.0557: real time    0.0560
       DOS:  cpu time    0.0005: real time    0.0005
    CHARGE:  cpu time    0.6601: real time    0.6605
    MIXING:  cpu time    0.0266: real time    0.0266
    --------------------------------------------
      LOOP:  cpu time   10.0196: real time   10.0293

 eigenvalue-minimisations  :   423
 total energy-change (2. order) : 0.3577000E-02  (-0.2009859E-02)
 number of electron     153.0000010 magnetization       1.0000000
 augmentation part       92.4007792 magnetization       0.0865877

 Broyden mixing:
  rms(total) = 0.17721E-01    rms(broyden)= 0.17720E-01
  rms(prec ) = 0.29435E-01
  weight for this iteration     100.00

 eigenvalues of (default mixing * dielectric matrix)
  average eigenvalue GAMMA=   1.0662
  2.3973  1.6132  1.0216  0.7214  0.7214  0.5382  0.4504

 Free energy of the ion-electron system (eV)
  ---------------------------------------------------
  alpha Z        PSCENC =        41.16232785
  Ewald energy   TEWEN  =     16401.51801922
  -Hartree energ DENC   =    -33364.60373116
  -exchange      EXHF   =         0.00000000
  -V(xc)+E(xc)   XCENC  =       615.41611478
  PAW double counting   =     17655.37600790   -19054.30667602
  entropy T*S    EENTRO =         0.00934003
  eigenvalues    EBANDS =     -1005.77013563
  atomic energy  EATOM  =     18662.21924712
  Solvation  Ediel_sol  =         0.00000000
  ---------------------------------------------------
  free energy    TOTEN  =       -48.97948591 eV

  energy without entropy =      -48.98882594  energy(sigma->0) =      -48.98259925


--------------------------------------------------------------------------------------------------------




--------------------------------------- Iteration      1(  13)  ---------------------------------------


    POTLOK:  cpu time    1.1671: real time    1.1712
    SETDIJ:  cpu time    0.0176: real time    0.0176
    EDDIAG:  cpu time    1.0996: real time    1.1006
  RMM-DIIS:  cpu time    7.5835: real time    7.5903
    ORTHCH:  cpu time    0.0554: real time    0.0554
       DOS:  cpu time    0.0005: real time    0.0004
    CHARGE:  cpu time    0.6598: real time    0.6606
    MIXING:  cpu time    0.0273: real time    0.0274
    --------------------------------------------
      LOOP:  cpu time   10.6107: real time   10.6235

 eigenvalue-minimisations  :   446
 total energy-change (2. order) : 0.7578840E-03  (-0.5970997E-03)
 number of electron     153.0000010 magnetization       1.0000000
 augmentation part       92.4167914 magnetization       0.0866157

 Broyden mixing:
  rms(total) = 0.94058E-02    rms(broyden)= 0.94055E-02
  rms(prec ) = 0.19463E-01
  weight for this iteration     100.00

 eigenvalues of (default mixing * dielectric matrix)
  average eigenvalue GAMMA=   1.1056
  2.4110  1.8661  1.3037  0.7823  0.7555  0.7555  0.5296  0.4411

 Free energy of the ion-electron system (eV)
  ---------------------------------------------------
  alpha Z        PSCENC =        41.16232785
  Ewald energy   TEWEN  =     16401.51801922
  -Hartree energ DENC   =    -33368.36149668
  -exchange      EXHF   =         0.00000000
  -V(xc)+E(xc)   XCENC  =       615.42353959
  PAW double counting   =     17660.41105973   -19059.36119852
  entropy T*S    EENTRO =         0.00932976
  eigenvalues    EBANDS =     -1001.99955610
  atomic energy  EATOM  =     18662.21924712
  Solvation  Ediel_sol  =         0.00000000
  ---------------------------------------------------
  free energy    TOTEN  =       -48.97872803 eV

  energy without entropy =      -48.98805778  energy(sigma->0) =      -48.98183794


--------------------------------------------------------------------------------------------------------




--------------------------------------- Iteration      1(  14)  ---------------------------------------


    POTLOK:  cpu time    1.1684: real time    1.1708
    SETDIJ:  cpu time    0.0171: real time    0.0171
    EDDIAG:  cpu time    1.0985: real time    1.0998
  RMM-DIIS:  cpu time    7.0646: real time    7.0713
    ORTHCH:  cpu time    0.0560: real time    0.0563
       DOS:  cpu time    0.0005: real time    0.0005
    CHARGE:  cpu time    0.6590: real time    0.6593
    MIXING:  cpu time    0.0282: real time    0.0282
    --------------------------------------------
      LOOP:  cpu time   10.0923: real time   10.1033

 eigenvalue-minimisations  :   424
 total energy-change (2. order) :-0.1261588E-02  (-0.3117688E-03)
 number of electron     153.0000010 magnetization       1.0000000
 augmentation part       92.4234706 magnetization       0.0869001

 Broyden mixing:
  rms(total) = 0.10494E-01    rms(broyden)= 0.10493E-01
  rms(prec ) = 0.16416E-01
  weight for this iteration     100.00

 eigenvalues of (default mixing * dielectric matrix)
  average eigenvalue GAMMA=   1.1423
  2.4066  2.4066  1.2472  1.0915  0.7561  0.7561  0.6727  0.5001  0.4439

 Free energy of the ion-electron system (eV)
  ---------------------------------------------------
  alpha Z        PSCENC =        41.16232785
  Ewald energy   TEWEN  =     16401.51801922
  -Hartree energ DENC   =    -33373.44628610
  -exchange      EXHF   =         0.00000000
  -V(xc)+E(xc)   XCENC  =       615.45902503
  PAW double counting   =     17653.30488382   -19051.96027654
  entropy T*S    EENTRO =         0.00933222
  eigenvalues    EBANDS =      -997.24626224
  atomic energy  EATOM  =     18662.21924712
  Solvation  Ediel_sol  =         0.00000000
  ---------------------------------------------------
  free energy    TOTEN  =       -48.97998961 eV

  energy without entropy =      -48.98932184  energy(sigma->0) =      -48.98310036


--------------------------------------------------------------------------------------------------------




--------------------------------------- Iteration      1(  15)  ---------------------------------------


    POTLOK:  cpu time    1.1680: real time    1.1708
    SETDIJ:  cpu time    0.0174: real time    0.0174
    EDDIAG:  cpu time    1.0989: real time    1.1000
  RMM-DIIS:  cpu time    6.8712: real time    6.8773
    ORTHCH:  cpu time    0.0560: real time    0.0561
       DOS:  cpu time    0.0005: real time    0.0004
    CHARGE:  cpu time    0.6600: real time    0.6608
    MIXING:  cpu time    0.0288: real time    0.0289
    --------------------------------------------
      LOOP:  cpu time    9.9009: real time    9.9118

 eigenvalue-minimisations  :   405
 total energy-change (2. order) :-0.1134373E-02  (-0.1558169E-03)
 number of electron     153.0000010 magnetization       1.0000000
 augmentation part       92.4157594 magnetization       0.0871357

 Broyden mixing:
  rms(total) = 0.54827E-02    rms(broyden)= 0.54824E-02
  rms(prec ) = 0.98203E-02
  weight for this iteration     100.00

 eigenvalues of (default mixing * dielectric matrix)
  average eigenvalue GAMMA=   1.1682
  2.6598  2.6598  1.3145  1.3145  0.7511  0.7511  0.7681  0.5490  0.4449  0.4689

 Free energy of the ion-electron system (eV)
  ---------------------------------------------------
  alpha Z        PSCENC =        41.16232785
  Ewald energy   TEWEN  =     16401.51801922
  -Hartree energ DENC   =    -33376.93635340
  -exchange      EXHF   =         0.00000000
  -V(xc)+E(xc)   XCENC  =       615.49801087
  PAW double counting   =     17648.50251454   -19047.08356898
  entropy T*S    EENTRO =         0.00933158
  eigenvalues    EBANDS =      -993.87065278
  atomic energy  EATOM  =     18662.21924712
  Solvation  Ediel_sol  =         0.00000000
  ---------------------------------------------------
  free energy    TOTEN  =       -48.98112399 eV

  energy without entropy =      -48.99045557  energy(sigma->0) =      -48.98423451


--------------------------------------------------------------------------------------------------------




--------------------------------------- Iteration      1(  16)  ---------------------------------------


    POTLOK:  cpu time    1.1677: real time    1.1723
    SETDIJ:  cpu time    0.0168: real time    0.0168
    EDDIAG:  cpu time    1.0999: real time    1.1009
  RMM-DIIS:  cpu time    7.0757: real time    7.0829
    ORTHCH:  cpu time    0.0554: real time    0.0554
       DOS:  cpu time    0.0005: real time    0.0005
    CHARGE:  cpu time    0.6599: real time    0.6604
    MIXING:  cpu time    0.0297: real time    0.0297
    --------------------------------------------
      LOOP:  cpu time   10.1054: real time   10.1188

 eigenvalue-minimisations  :   396
 total energy-change (2. order) :-0.1386670E-02  (-0.7869468E-04)
 number of electron     153.0000010 magnetization       1.0000000
 augmentation part       92.4127441 magnetization       0.0873437

 Broyden mixing:
  rms(total) = 0.47099E-02    rms(broyden)= 0.47098E-02
  rms(prec ) = 0.73978E-02
  weight for this iteration     100.00

 eigenvalues of (default mixing * dielectric matrix)
  average eigenvalue GAMMA=   1.2054
  3.1451  2.6034  1.4593  1.4593  0.8899  0.7679  0.7679  0.7342  0.4417  0.4952
  0.4952

 Free energy of the ion-electron system (eV)
  ---------------------------------------------------
  alpha Z        PSCENC =        41.16232785
  Ewald energy   TEWEN  =     16401.51801922
  -Hartree energ DENC   =    -33379.40785973
  -exchange      EXHF   =         0.00000000
  -V(xc)+E(xc)   XCENC  =       615.52243885
  PAW double counting   =     17644.90264612   -19043.42796810
  entropy T*S    EENTRO =         0.00932875
  eigenvalues    EBANDS =      -991.48069074
  atomic energy  EATOM  =     18662.21924712
  Solvation  Ediel_sol  =         0.00000000
  ---------------------------------------------------
  free energy    TOTEN  =       -48.98251066 eV

  energy without entropy =      -48.99183940  energy(sigma->0) =      -48.98562024


--------------------------------------------------------------------------------------------------------




--------------------------------------- Iteration      1(  17)  ---------------------------------------


    POTLOK:  cpu time    1.1680: real time    1.1693
    SETDIJ:  cpu time    0.0168: real time    0.0168
    EDDIAG:  cpu time    1.0988: real time    1.0999
  RMM-DIIS:  cpu time    7.3840: real time    7.3900
    ORTHCH:  cpu time    0.0550: real time    0.0550
       DOS:  cpu time    0.0005: real time    0.0005
    CHARGE:  cpu time    0.6601: real time    0.6608
    MIXING:  cpu time    0.0307: real time    0.0308
    --------------------------------------------
      LOOP:  cpu time   10.4138: real time   10.4230

 eigenvalue-minimisations  :   394
 total energy-change (2. order) :-0.1742858E-02  (-0.5173443E-04)
 number of electron     153.0000010 magnetization       1.0000000
 augmentation part       92.4153023 magnetization       0.0872234

 Broyden mixing:
  rms(total) = 0.23601E-02    rms(broyden)= 0.23601E-02
  rms(prec ) = 0.40892E-02
  weight for this iteration     100.00

 eigenvalues of (default mixing * dielectric matrix)
  average eigenvalue GAMMA=   1.3109
  4.1899  2.5762  2.0545  1.3978  1.0936  0.8159  0.7588  0.7588  0.6565  0.4430
  0.5088  0.4769

 Free energy of the ion-electron system (eV)
  ---------------------------------------------------
  alpha Z        PSCENC =        41.16232785
  Ewald energy   TEWEN  =     16401.51801922
  -Hartree energ DENC   =    -33381.49434169
  -exchange      EXHF   =         0.00000000
  -V(xc)+E(xc)   XCENC  =       615.53114788
  PAW double counting   =     17642.72736786   -19041.20322569
  entropy T*S    EENTRO =         0.00932937
  eigenvalues    EBANDS =      -989.45412543
  atomic energy  EATOM  =     18662.21924712
  Solvation  Ediel_sol  =         0.00000000
  ---------------------------------------------------
  free energy    TOTEN  =       -48.98425352 eV

  energy without entropy =      -48.99358289  energy(sigma->0) =      -48.98736331


--------------------------------------------------------------------------------------------------------




--------------------------------------- Iteration      1(  18)  ---------------------------------------


    POTLOK:  cpu time    1.1695: real time    1.1703
    SETDIJ:  cpu time    0.0170: real time    0.0170
    EDDIAG:  cpu time    1.0983: real time    1.0997
  RMM-DIIS:  cpu time    7.0095: real time    7.0156
    ORTHCH:  cpu time    0.0553: real time    0.0553
       DOS:  cpu time    0.0005: real time    0.0005
    CHARGE:  cpu time    0.6587: real time    0.6594
    MIXING:  cpu time    0.0321: real time    0.0321
    --------------------------------------------
      LOOP:  cpu time   10.0409: real time   10.0499

 eigenvalue-minimisations  :   415
 total energy-change (2. order) :-0.8761918E-03  (-0.2113799E-04)
 number of electron     153.0000010 magnetization       1.0000000
 augmentation part       92.4144077 magnetization       0.0873465

 Broyden mixing:
  rms(total) = 0.14503E-02    rms(broyden)= 0.14502E-02
  rms(prec ) = 0.26667E-02
  weight for this iteration     100.00

 eigenvalues of (default mixing * dielectric matrix)
  average eigenvalue GAMMA=   1.3518
  5.0158  2.6442  2.1935  1.2743  1.2743  0.8438  0.8438  0.7374  0.7374  0.5915
  0.5079  0.4432  0.4660

 Free energy of the ion-electron system (eV)
  ---------------------------------------------------
  alpha Z        PSCENC =        41.16232785
  Ewald energy   TEWEN  =     16401.51801922
  -Hartree energ DENC   =    -33382.51323039
  -exchange      EXHF   =         0.00000000
  -V(xc)+E(xc)   XCENC  =       615.53403706
  PAW double counting   =     17642.53798757   -19041.02738144
  entropy T*S    EENTRO =         0.00932783
  eigenvalues    EBANDS =      -988.42546453
  atomic energy  EATOM  =     18662.21924712
  Solvation  Ediel_sol  =         0.00000000
  ---------------------------------------------------
  free energy    TOTEN  =       -48.98512971 eV

  energy without entropy =      -48.99445754  energy(sigma->0) =      -48.98823899


--------------------------------------------------------------------------------------------------------




--------------------------------------- Iteration      1(  19)  ---------------------------------------


    POTLOK:  cpu time    1.1713: real time    1.1753
    SETDIJ:  cpu time    0.0172: real time    0.0172
    EDDIAG:  cpu time    1.0988: real time    1.1005
  RMM-DIIS:  cpu time    7.8314: real time    7.8386
    ORTHCH:  cpu time    0.0556: real time    0.0558
       DOS:  cpu time    0.0005: real time    0.0005
    CHARGE:  cpu time    0.6577: real time    0.6584
    MIXING:  cpu time    0.0336: real time    0.0336
    --------------------------------------------
      LOOP:  cpu time   10.8660: real time   10.8799

 eigenvalue-minimisations  :   458
 total energy-change (2. order) :-0.7471728E-03  (-0.1222096E-04)
 number of electron     153.0000010 magnetization       1.0000000
 augmentation part       92.4129280 magnetization       0.0873272

 Broyden mixing:
  rms(total) = 0.11012E-02    rms(broyden)= 0.11012E-02
  rms(prec ) = 0.19555E-02
  weight for this iteration     100.00

 eigenvalues of (default mixing * dielectric matrix)
  average eigenvalue GAMMA=   1.4207
  5.8235  2.6913  2.2368  1.5271  1.5271  0.9742  0.9742  0.7421  0.7421  0.6688
  0.5651  0.5067  0.4426  0.4679

 Free energy of the ion-electron system (eV)
  ---------------------------------------------------
  alpha Z        PSCENC =        41.16232785
  Ewald energy   TEWEN  =     16401.51801922
  -Hartree energ DENC   =    -33383.11963440
  -exchange      EXHF   =         0.00000000
  -V(xc)+E(xc)   XCENC  =       615.53496738
  PAW double counting   =     17642.69853812   -19041.20689979
  entropy T*S    EENTRO =         0.00932901
  eigenvalues    EBANDS =      -987.80177138
  atomic energy  EATOM  =     18662.21924712
  Solvation  Ediel_sol  =         0.00000000
  ---------------------------------------------------
  free energy    TOTEN  =       -48.98587688 eV

  energy without entropy =      -48.99520589  energy(sigma->0) =      -48.98898655


--------------------------------------------------------------------------------------------------------




--------------------------------------- Iteration      1(  20)  ---------------------------------------


    POTLOK:  cpu time    1.1702: real time    1.1722
    SETDIJ:  cpu time    0.0170: real time    0.0173
    EDDIAG:  cpu time    1.1001: real time    1.1011
  RMM-DIIS:  cpu time    6.9287: real time    6.9371
    ORTHCH:  cpu time    0.0554: real time    0.0554
       DOS:  cpu time    0.0004: real time    0.0004
    CHARGE:  cpu time    0.6587: real time    0.6595
    MIXING:  cpu time    0.0347: real time    0.0347
    --------------------------------------------
      LOOP:  cpu time    9.9652: real time    9.9777

 eigenvalue-minimisations  :   407
 total energy-change (2. order) :-0.5572923E-03  (-0.4046042E-05)
 number of electron     153.0000010 magnetization       1.0000000
 augmentation part       92.4135061 magnetization       0.0873288

 Broyden mixing:
  rms(total) = 0.71567E-03    rms(broyden)= 0.71566E-03
  rms(prec ) = 0.12760E-02
  weight for this iteration     100.00

 eigenvalues of (default mixing * dielectric matrix)
  average eigenvalue GAMMA=   1.4543
  6.3839  2.7977  2.2828  2.0084  1.2403  1.2403  0.8820  0.8820  0.7446  0.7446
  0.6455  0.4428  0.5390  0.5120  0.4685

 Free energy of the ion-electron system (eV)
  ---------------------------------------------------
  alpha Z        PSCENC =        41.16232785
  Ewald energy   TEWEN  =     16401.51801922
  -Hartree energ DENC   =    -33383.24027537
  -exchange      EXHF   =         0.00000000
  -V(xc)+E(xc)   XCENC  =       615.53341799
  PAW double counting   =     17642.95005180   -19041.46270403
  entropy T*S    EENTRO =         0.00932901
  eigenvalues    EBANDS =      -987.67584776
  atomic energy  EATOM  =     18662.21924712
  Solvation  Ediel_sol  =         0.00000000
  ---------------------------------------------------
  free energy    TOTEN  =       -48.98643417 eV

  energy without entropy =      -48.99576318  energy(sigma->0) =      -48.98954384


--------------------------------------------------------------------------------------------------------




--------------------------------------- Iteration      1(  21)  ---------------------------------------


    POTLOK:  cpu time    1.1675: real time    1.1687
    SETDIJ:  cpu time    0.0174: real time    0.0174
    EDDIAG:  cpu time    1.0987: real time    1.0997
  RMM-DIIS:  cpu time    6.8788: real time    6.8855
    ORTHCH:  cpu time    0.0552: real time    0.0552
       DOS:  cpu time    0.0004: real time    0.0004
    CHARGE:  cpu time    0.6563: real time    0.6570
    MIXING:  cpu time    0.0367: real time    0.0367
    --------------------------------------------
      LOOP:  cpu time    9.9110: real time    9.9206

 eigenvalue-minimisations  :   404
 total energy-change (2. order) :-0.4140136E-03  (-0.3379417E-05)
 number of electron     153.0000010 magnetization       1.0000000
 augmentation part       92.4151542 magnetization       0.0873316

 Broyden mixing:
  rms(total) = 0.75636E-03    rms(broyden)= 0.75631E-03
  rms(prec ) = 0.10848E-02
  weight for this iteration     100.00

 eigenvalues of (default mixing * dielectric matrix)
  average eigenvalue GAMMA=   1.4983
  6.6424  3.2021  2.4801  2.1402  1.3845  1.3845  0.9607  0.9607  0.7603  0.7603
  0.6919  0.6491  0.4429  0.5377  0.5086  0.4671

 Free energy of the ion-electron system (eV)
  ---------------------------------------------------
  alpha Z        PSCENC =        41.16232785
  Ewald energy   TEWEN  =     16401.51801922
  -Hartree energ DENC   =    -33383.22016710
  -exchange      EXHF   =         0.00000000
  -V(xc)+E(xc)   XCENC  =       615.53090000
  PAW double counting   =     17643.08244699   -19041.58541308
  entropy T*S    EENTRO =         0.00932936
  eigenvalues    EBANDS =      -987.70353855
  atomic energy  EATOM  =     18662.21924712
  Solvation  Ediel_sol  =         0.00000000
  ---------------------------------------------------
  free energy    TOTEN  =       -48.98684819 eV

  energy without entropy =      -48.99617754  energy(sigma->0) =      -48.98995797


--------------------------------------------------------------------------------------------------------




--------------------------------------- Iteration      1(  22)  ---------------------------------------


    POTLOK:  cpu time    1.1680: real time    1.1719
    SETDIJ:  cpu time    0.0172: real time    0.0172
    EDDIAG:  cpu time    1.0987: real time    1.0999
  RMM-DIIS:  cpu time    6.6179: real time    6.6246
    ORTHCH:  cpu time    0.0555: real time    0.0555
       DOS:  cpu time    0.0005: real time    0.0004
    CHARGE:  cpu time    0.6577: real time    0.6583
    MIXING:  cpu time    0.0381: real time    0.0381
    --------------------------------------------
      LOOP:  cpu time    9.6536: real time    9.6660

 eigenvalue-minimisations  :   402
 total energy-change (2. order) :-0.2665243E-03  (-0.2110885E-05)
 number of electron     153.0000010 magnetization       1.0000000
 augmentation part       92.4145277 magnetization       0.0873476

 Broyden mixing:
  rms(total) = 0.37512E-03    rms(broyden)= 0.37506E-03
  rms(prec ) = 0.59510E-03
  weight for this iteration     100.00

 eigenvalues of (default mixing * dielectric matrix)
  average eigenvalue GAMMA=   1.5386
  7.0206  3.9557  2.4795  2.1456  1.5202  1.5202  0.9260  0.9187  0.9187  0.7729
  0.7729  0.6717  0.4428  0.5779  0.5391  0.4676  0.5068

 Free energy of the ion-electron system (eV)
  ---------------------------------------------------
  alpha Z        PSCENC =        41.16232785
  Ewald energy   TEWEN  =     16401.51801922
  -Hartree energ DENC   =    -33383.32479932
  -exchange      EXHF   =         0.00000000
  -V(xc)+E(xc)   XCENC  =       615.53064955
  PAW double counting   =     17643.35369599   -19041.86548913
  entropy T*S    EENTRO =         0.00932910
  eigenvalues    EBANDS =      -987.59009508
  atomic energy  EATOM  =     18662.21924712
  Solvation  Ediel_sol  =         0.00000000
  ---------------------------------------------------
  free energy    TOTEN  =       -48.98711471 eV

  energy without entropy =      -48.99644381  energy(sigma->0) =      -48.99022441


--------------------------------------------------------------------------------------------------------




--------------------------------------- Iteration      1(  23)  ---------------------------------------


    POTLOK:  cpu time    1.1681: real time    1.1689
    SETDIJ:  cpu time    0.0172: real time    0.0172
    EDDIAG:  cpu time    1.0983: real time    1.0998
  RMM-DIIS:  cpu time    6.8413: real time    6.8477
    ORTHCH:  cpu time    0.0549: real time    0.0549
       DOS:  cpu time    0.0004: real time    0.0004
    CHARGE:  cpu time    0.6558: real time    0.6565
    MIXING:  cpu time    0.0406: real time    0.0407
    --------------------------------------------
      LOOP:  cpu time    9.8765: real time    9.8860

 eigenvalue-minimisations  :   401
 total energy-change (2. order) :-0.1236753E-03  (-0.7444060E-06)
 number of electron     153.0000010 magnetization       1.0000000
 augmentation part       92.4141387 magnetization       0.0873276

 Broyden mixing:
  rms(total) = 0.20808E-03    rms(broyden)= 0.20807E-03
  rms(prec ) = 0.34739E-03
  weight for this iteration     100.00

 eigenvalues of (default mixing * dielectric matrix)
  average eigenvalue GAMMA=   1.5644
  7.4203  4.2947  2.5036  2.1668  1.8328  1.2811  1.2811  0.9720  0.9720  0.7648
  0.7648  0.7049  0.6767  0.4428  0.4680  0.5760  0.5150  0.5213

 Free energy of the ion-electron system (eV)
  ---------------------------------------------------
  alpha Z        PSCENC =        41.16232785
  Ewald energy   TEWEN  =     16401.51801922
  -Hartree energ DENC   =    -33383.38815255
  -exchange      EXHF   =         0.00000000
  -V(xc)+E(xc)   XCENC  =       615.53081068
  PAW double counting   =     17643.36093953   -19041.87466067
  entropy T*S    EENTRO =         0.00932922
  eigenvalues    EBANDS =      -987.52509879
  atomic energy  EATOM  =     18662.21924712
  Solvation  Ediel_sol  =         0.00000000
  ---------------------------------------------------
  free energy    TOTEN  =       -48.98723839 eV

  energy without entropy =      -48.99656761  energy(sigma->0) =      -48.99034813


--------------------------------------------------------------------------------------------------------




--------------------------------------- Iteration      1(  24)  ---------------------------------------


    POTLOK:  cpu time    1.1673: real time    1.1692
    SETDIJ:  cpu time    0.0172: real time    0.0172
    EDDIAG:  cpu time    1.0985: real time    1.0995
  RMM-DIIS:  cpu time    6.5425: real time    6.5489
    ORTHCH:  cpu time    0.0547: real time    0.0547
       DOS:  cpu time    0.0005: real time    0.0005
    CHARGE:  cpu time    0.6567: real time    0.6571
    MIXING:  cpu time    0.0420: real time    0.0424
    --------------------------------------------
      LOOP:  cpu time    9.5793: real time    9.5895

 eigenvalue-minimisations  :   396
 total energy-change (2. order) :-0.1014291E-03  (-0.7171410E-06)
 number of electron     153.0000010 magnetization       1.0000000
 augmentation part       92.4139216 magnetization       0.0873220

 Broyden mixing:
  rms(total) = 0.20508E-03    rms(broyden)= 0.20507E-03
  rms(prec ) = 0.29392E-03
  weight for this iteration     100.00

 eigenvalues of (default mixing * dielectric matrix)
  average eigenvalue GAMMA=   1.5826
  7.7290  4.5117  2.4223  2.4223  1.8983  1.4561  1.4561  0.9694  0.9694  0.7838
  0.7838  0.7583  0.7583  0.6266  0.4428  0.4679  0.5757  0.5105  0.5280

 Free energy of the ion-electron system (eV)
  ---------------------------------------------------
  alpha Z        PSCENC =        41.16232785
  Ewald energy   TEWEN  =     16401.51801922
  -Hartree energ DENC   =    -33383.41426632
  -exchange      EXHF   =         0.00000000
  -V(xc)+E(xc)   XCENC  =       615.53115401
  PAW double counting   =     17643.30240159   -19041.81660467
  entropy T*S    EENTRO =         0.00932911
  eigenvalues    EBANDS =      -987.49894772
  atomic energy  EATOM  =     18662.21924712
  Solvation  Ediel_sol  =         0.00000000
  ---------------------------------------------------
  free energy    TOTEN  =       -48.98733981 eV

  energy without entropy =      -48.99666893  energy(sigma->0) =      -48.99044952


--------------------------------------------------------------------------------------------------------




--------------------------------------- Iteration      1(  25)  ---------------------------------------


    POTLOK:  cpu time    1.1701: real time    1.1711
    SETDIJ:  cpu time    0.0171: real time    0.0171
    EDDIAG:  cpu time    1.0988: real time    1.1000
  RMM-DIIS:  cpu time    6.8512: real time    6.8575
    ORTHCH:  cpu time    0.0545: real time    0.0545
       DOS:  cpu time    0.0004: real time    0.0004
    CHARGE:  cpu time    0.6566: real time    0.6571
    MIXING:  cpu time    0.0445: real time    0.0449
    --------------------------------------------
      LOOP:  cpu time    9.8933: real time    9.9026

 eigenvalue-minimisations  :   397
 total energy-change (2. order) :-0.6271286E-04  (-0.4896348E-06)
 number of electron     153.0000010 magnetization       1.0000000
 augmentation part       92.4141778 magnetization       0.0873300

 Broyden mixing:
  rms(total) = 0.12805E-03    rms(broyden)= 0.12802E-03
  rms(prec ) = 0.18674E-03
  weight for this iteration     100.00

 eigenvalues of (default mixing * dielectric matrix)
  average eigenvalue GAMMA=   1.6165
  7.9046  4.9993  2.5952  2.5952  1.8362  1.8362  1.2751  1.2751  0.9849  0.9849
  0.7676  0.7676  0.6967  0.6967  0.6153  0.4428  0.4676  0.5577  0.5157  0.5157

 Free energy of the ion-electron system (eV)
  ---------------------------------------------------
  alpha Z        PSCENC =        41.16232785
  Ewald energy   TEWEN  =     16401.51801922
  -Hartree energ DENC   =    -33383.40192119
  -exchange      EXHF   =         0.00000000
  -V(xc)+E(xc)   XCENC  =       615.53086911
  PAW double counting   =     17643.19334639   -19041.70294279
  entropy T*S    EENTRO =         0.00932921
  eigenvalues    EBANDS =      -987.51567745
  atomic energy  EATOM  =     18662.21924712
  Solvation  Ediel_sol  =         0.00000000
  ---------------------------------------------------
  free energy    TOTEN  =       -48.98740253 eV

  energy without entropy =      -48.99673174  energy(sigma->0) =      -48.99051227


--------------------------------------------------------------------------------------------------------




--------------------------------------- Iteration      1(  26)  ---------------------------------------


    POTLOK:  cpu time    1.1688: real time    1.1726
    SETDIJ:  cpu time    0.0171: real time    0.0171
    EDDIAG:  cpu time    1.0988: real time    1.1000
  RMM-DIIS:  cpu time    6.0949: real time    6.1007
    ORTHCH:  cpu time    0.0552: real time    0.0552
       DOS:  cpu time    0.0004: real time    0.0004
    CHARGE:  cpu time    0.6567: real time    0.6575
    MIXING:  cpu time    0.0482: real time    0.0482
    --------------------------------------------
      LOOP:  cpu time    9.1401: real time    9.1516

 eigenvalue-minimisations  :   377
 total energy-change (2. order) :-0.3493236E-04  (-0.3109438E-06)
 number of electron     153.0000010 magnetization       1.0000000
 augmentation part       92.4142985 magnetization       0.0873435

 Broyden mixing:
  rms(total) = 0.67134E-04    rms(broyden)= 0.67131E-04
  rms(prec ) = 0.10107E-03
  weight for this iteration     100.00

 eigenvalues of (default mixing * dielectric matrix)
  average eigenvalue GAMMA=   1.6302
  8.1040  5.3769  2.9970  2.5475  1.9678  1.8392  1.3132  1.3132  0.9918  0.9918
  0.7940  0.7940  0.7306  0.7306  0.6199  0.6199  0.4428  0.4678  0.5598  0.5163
  0.5163

 Free energy of the ion-electron system (eV)
  ---------------------------------------------------
  alpha Z        PSCENC =        41.16232785
  Ewald energy   TEWEN  =     16401.51801922
  -Hartree energ DENC   =    -33383.39929648
  -exchange      EXHF   =         0.00000000
  -V(xc)+E(xc)   XCENC  =       615.53065348
  PAW double counting   =     17643.15089028   -19041.65830706
  entropy T*S    EENTRO =         0.00932916
  eigenvalues    EBANDS =      -987.52030103
  atomic energy  EATOM  =     18662.21924712
  Solvation  Ediel_sol  =         0.00000000
  ---------------------------------------------------
  free energy    TOTEN  =       -48.98743746 eV

  energy without entropy =      -48.99676662  energy(sigma->0) =      -48.99054718


--------------------------------------------------------------------------------------------------------




--------------------------------------- Iteration      1(  27)  ---------------------------------------


    POTLOK:  cpu time    1.1686: real time    1.1699
    SETDIJ:  cpu time    0.0168: real time    0.0168
    EDDIAG:  cpu time    1.0992: real time    1.1003
  RMM-DIIS:  cpu time    4.7067: real time    4.7120
    ORTHCH:  cpu time    0.0549: real time    0.0549
       DOS:  cpu time    0.0004: real time    0.0004
    CHARGE:  cpu time    0.6562: real time    0.6568
    MIXING:  cpu time    0.0513: real time    0.0515
    --------------------------------------------
      LOOP:  cpu time    7.7541: real time    7.7627

 eigenvalue-minimisations  :   272
 total energy-change (2. order) :-0.1233100E-04  (-0.1082716E-06)
 number of electron     153.0000010 magnetization       1.0000000
 augmentation part       92.4142950 magnetization       0.0873346

 Broyden mixing:
  rms(total) = 0.65253E-04    rms(broyden)= 0.65250E-04
  rms(prec ) = 0.88003E-04
  weight for this iteration     100.00

 eigenvalues of (default mixing * dielectric matrix)
  average eigenvalue GAMMA=   1.6142
  8.1629  5.5686  3.1605  2.5164  1.9258  1.9258  1.3311  1.3311  1.0162  1.0162
  0.8752  0.8752  0.7596  0.7596  0.6391  0.6129  0.4428  0.4679  0.5105  0.5311
  0.5419  0.5419

 Free energy of the ion-electron system (eV)
  ---------------------------------------------------
  alpha Z        PSCENC =        41.16232785
  Ewald energy   TEWEN  =     16401.51801922
  -Hartree energ DENC   =    -33383.40160608
  -exchange      EXHF   =         0.00000000
  -V(xc)+E(xc)   XCENC  =       615.53068328
  PAW double counting   =     17643.14588601   -19041.65357112
  entropy T*S    EENTRO =         0.00932916
  eigenvalues    EBANDS =      -987.51776523
  atomic energy  EATOM  =     18662.21924712
  Solvation  Ediel_sol  =         0.00000000
  ---------------------------------------------------
  free energy    TOTEN  =       -48.98744979 eV

  energy without entropy =      -48.99677895  energy(sigma->0) =      -48.99055951


--------------------------------------------------------------------------------------------------------




--------------------------------------- Iteration      1(  28)  ---------------------------------------


    POTLOK:  cpu time    1.1667: real time    1.1679
    SETDIJ:  cpu time    0.0174: real time    0.0174
    EDDIAG:  cpu time    1.0974: real time    1.0986
  RMM-DIIS:  cpu time    4.5224: real time    4.5270
    ORTHCH:  cpu time    0.0549: real time    0.0550
       DOS:  cpu time    0.0004: real time    0.0004
    CHARGE:  cpu time    0.6562: real time    0.6569
[...]
     66      -4.9050      1.00000
     67      -4.8945      1.00000
     68      -4.8618      1.00000
     69      -4.8333      1.00000
     70      -4.8287      1.00000
     71      -4.7845      1.00000
     72      -4.7664      1.00000
     73      -4.7228      1.00000
     74      -4.5084      1.00000
     75      -4.1967      1.00000
     76      -4.1814      1.00000
     77      -3.4859      1.00000
     78      -2.9694     -0.00000
     79      -2.8578     -0.00000
     80      -2.4875     -0.00000
     81      -2.3308     -0.00000
     82      -2.0496     -0.00000
     83      -1.9039     -0.00000
     84      -1.6711     -0.00000
     85      -1.4149     -0.00000
     86      -1.0410     -0.00000
     87      -0.9053     -0.00000
     88      -0.6600      0.00000
     89      -0.4497      0.00000
     90      -0.3430      0.00000
     91      -0.2355      0.00000
     92       0.2183      0.00000

 spin component 2

 k-point     1 :       0.0000    0.0000    0.0000
  band No.  band energies     occupation 
      1     -28.3537      1.00000
      2     -13.7876      1.00000
      3     -11.1923      1.00000
      4     -11.0538      1.00000
      5     -10.9231      1.00000
      6     -10.1638      1.00000
      7      -8.6225      1.00000
      8      -8.1824      1.00000
      9      -7.6721      1.00000
     10      -7.5654      1.00000
     11      -7.5166      1.00000
     12      -7.3434      1.00000
     13      -7.3030      1.00000
     14      -7.1627      1.00000
     15      -7.0413      1.00000
     16      -6.9360      1.00000
     17      -6.8003      1.00000
     18      -6.7657      1.00000
     19      -6.7302      1.00000
     20      -6.6408      1.00000
     21      -6.6232      1.00000
     22      -6.5453      1.00000
     23      -6.4975      1.00000
     24      -6.4662      1.00000
     25      -6.3767      1.00000
     26      -6.3114      1.00000
     27      -6.2629      1.00000
     28      -6.2330      1.00000
     29      -6.1625      1.00000
     30      -6.1227      1.00000
     31      -6.0911      1.00000
     32      -6.0324      1.00000
     33      -5.9754      1.00000
     34      -5.9631      1.00000
     35      -5.8737      1.00000
     36      -5.7502      1.00000
     37      -5.6869      1.00000
     38      -5.6644      1.00000
     39      -5.5987      1.00000
     40      -5.5730      1.00000
     41      -5.5656      1.00000
     42      -5.5205      1.00000
     43      -5.4686      1.00000
     44      -5.4411      1.00000
     45      -5.3972      1.00000
     46      -5.3867      1.00000
     47      -5.3565      1.00000
     48      -5.3338      1.00000
     49      -5.2914      1.00000
     50      -5.2726      1.00000
     51      -5.2557      1.00000
     52      -5.2363      1.00000
     53      -5.2098      1.00000
     54      -5.1843      1.00000
     55      -5.1480      1.00000
     56      -5.1269      1.00000
     57      -5.1203      1.00000
     58      -5.0975      1.00000
     59      -5.0475      1.00000
     60      -5.0108      1.00000
     61      -5.0046      1.00000
     62      -4.9675      1.00000
     63      -4.9463      1.00000
     64      -4.9326      1.00000
     65      -4.9088      1.00000
     66      -4.8818      1.00000
     67      -4.8724      1.00000
     68      -4.8194      1.00000
     69      -4.8036      1.00000
     70      -4.7953      1.00000
     71      -4.7544      1.00000
     72      -4.7426      1.00000
     73      -4.6928      1.00000
     74      -4.4707      1.00000
     75      -4.1682      1.03507
     76      -4.1120      0.96493
     77      -3.2716     -0.00000
     78      -2.9179     -0.00000
     79      -2.8059     -0.00000
     80      -2.4152     -0.00000
     81      -2.2375     -0.00000
     82      -2.0233     -0.00000
     83      -1.8289     -0.00000
     84      -1.6074     -0.00000
     85      -1.2895      0.00000
     86      -0.9060      0.00000
     87      -0.8315      0.00000
     88      -0.5793      0.00000
     89      -0.3990      0.00000
     90      -0.2604      0.00000
     91      -0.1587      0.00000
     92       0.3224      0.00000


--------------------------------------------------------------------------------------------------------


 soft charge-density along one line, spin component           1
         0         1         2         3         4         5         6         7         8         9
 total charge-density along one line
 
 soft charge-density along one line, spin component           2
         0         1         2         3         4         5         6         7         8         9
 total charge-density along one line
 
 pseudopotential strength for first ion, spin component:           1
-10.451   0.005  -0.003  -0.007  -0.009   0.968  -0.004   0.005
  0.005 -10.436  -0.009  -0.002   0.010  -0.004   0.956   0.007
 -0.003  -0.009 -10.429   0.005  -0.002   0.005   0.007   0.950
 -0.007  -0.002   0.005 -10.442   0.004   0.005  -0.000  -0.004
 -0.009   0.010  -0.002   0.004 -10.441   0.007  -0.007   0.002
  0.968  -0.004   0.005   0.005   0.007   6.330   0.002  -0.005
 -0.004   0.956   0.007  -0.000  -0.007   0.002   6.335  -0.005
  0.005   0.007   0.950  -0.004   0.002  -0.005  -0.005   6.341
  0.005  -0.000  -0.004   0.958  -0.003  -0.003   0.002   0.002
  0.007  -0.007   0.002  -0.003   0.960  -0.005   0.005  -0.003
 -0.004   0.002  -0.003  -0.001  -0.002   0.004   0.000  -0.001
 -0.008   0.004  -0.006  -0.002  -0.004   0.008   0.000  -0.001
 -0.014  -0.000   0.005  -0.000   0.009   0.010   0.000  -0.003
 -0.000  -0.007  -0.000  -0.013  -0.000   0.000   0.005   0.000
 -0.006  -0.000   0.009  -0.001  -0.014   0.003   0.000  -0.006
 -0.015  -0.000   0.005  -0.000   0.010   0.009   0.001  -0.003
 -0.000  -0.008  -0.001  -0.013  -0.000   0.001   0.004   0.000
 -0.006  -0.000   0.009  -0.001  -0.014   0.002   0.001  -0.006
 pseudopotential strength for first ion, spin component:           2
-10.417   0.002   0.001  -0.013   0.005   0.940  -0.002   0.000
  0.002 -10.425  -0.010  -0.002   0.007  -0.002   0.946   0.007
  0.001  -0.010 -10.420   0.004   0.000   0.000   0.007   0.941
 -0.013  -0.002   0.004 -10.429   0.001   0.010   0.001  -0.003
  0.005   0.007   0.000   0.001 -10.426  -0.004  -0.006   0.000
  0.940  -0.002   0.000   0.010  -0.004   6.347   0.002  -0.000
 -0.002   0.946   0.007   0.001  -0.006   0.002   6.341  -0.005
  0.000   0.007   0.941  -0.003   0.000  -0.000  -0.005   6.344
  0.010   0.001  -0.003   0.948  -0.001  -0.006  -0.000   0.002
 -0.004  -0.006   0.000  -0.001   0.947   0.002   0.003  -0.000
 -0.001   0.003  -0.001  -0.001  -0.001   0.000   0.000  -0.001
 -0.002   0.005  -0.002  -0.002  -0.001   0.001   0.001  -0.003
 -0.015   0.000   0.006   0.001   0.009   0.012  -0.001  -0.005
  0.001  -0.009  -0.000  -0.014  -0.000  -0.000   0.006  -0.001
 -0.010   0.001   0.009   0.000  -0.015   0.007  -0.000  -0.008
 -0.017   0.000   0.007   0.001   0.010   0.014  -0.001  -0.005
  0.001  -0.010   0.000  -0.016   0.000  -0.000   0.007  -0.001
 -0.011   0.001   0.011   0.000  -0.017   0.008  -0.000  -0.009
 total augmentation occupancy for first ion, spin component:           1
  1.936   0.003  -0.006  -0.001  -0.005  -0.016  -0.001   0.004   0.002   0.001  -0.010   0.011   0.035   0.005   0.028  -0.022
  0.003   1.933  -0.006   0.003  -0.001  -0.001  -0.020   0.005   0.000  -0.001   0.001  -0.002   0.007   0.036   0.001  -0.000
 -0.006  -0.006   1.948   0.003  -0.004   0.004   0.005  -0.026  -0.004   0.002   0.001   0.009  -0.010  -0.003  -0.019   0.006
 -0.001   0.003   0.003   1.938  -0.004   0.002   0.000  -0.004  -0.017  -0.002  -0.002   0.003   0.009   0.071  -0.007  -0.000
 -0.005  -0.001  -0.004  -0.004   1.939   0.001  -0.001   0.002  -0.002  -0.016  -0.004   0.006  -0.014  -0.001   0.041   0.012
 -0.016  -0.001   0.004   0.002   0.001   0.012  -0.000   0.001   0.001   0.000  -0.015  -0.001   0.023   0.001   0.007  -0.001
 -0.001  -0.020   0.005   0.000  -0.001  -0.000   0.007   0.000   0.001  -0.001   0.017  -0.001   0.002   0.011   0.001  -0.000
  0.004   0.005  -0.026  -0.004   0.002   0.001   0.000   0.006  -0.000   0.000  -0.030   0.004  -0.005  -0.001  -0.008   0.000
  0.002   0.000  -0.004  -0.017  -0.002   0.001   0.001  -0.000   0.009  -0.002  -0.014   0.001   0.001   0.021  -0.004  -0.000
  0.001  -0.001   0.002  -0.002  -0.016   0.000  -0.001   0.000  -0.002   0.011  -0.005  -0.001  -0.018  -0.005   0.022   0.001
 -0.010   0.001   0.001  -0.002  -0.004  -0.015   0.017  -0.030  -0.014  -0.005   1.602  -0.111   0.106  -0.009   0.203  -0.015
  0.011  -0.002   0.009   0.003   0.006  -0.001  -0.001   0.004   0.001  -0.001  -0.111   0.013  -0.016   0.001  -0.028   0.002
  0.035   0.007  -0.010   0.009  -0.014   0.023   0.002  -0.005   0.001  -0.018   0.106  -0.016   0.161   0.009  -0.028  -0.010
  0.005   0.036  -0.003   0.071  -0.001   0.001   0.011  -0.001   0.021  -0.005  -0.009   0.001   0.009   0.082  -0.013  -0.001
  0.028   0.001  -0.019  -0.007   0.041   0.007   0.001  -0.008  -0.004   0.022   0.203  -0.028  -0.028  -0.013   0.134   0.000
 -0.022  -0.000   0.006  -0.000   0.012  -0.001  -0.000   0.000  -0.000   0.001  -0.015   0.002  -0.010  -0.001   0.000   0.001
  0.000  -0.013  -0.000  -0.024   0.000  -0.000  -0.001   0.000  -0.001   0.000   0.001  -0.000  -0.001  -0.005   0.001   0.000
 -0.012   0.000   0.012  -0.000  -0.022  -0.000  -0.000   0.001   0.000  -0.001  -0.027   0.003   0.000   0.001  -0.010   0.000
 total augmentation occupancy for first ion, spin component:           2
  0.014  -0.002   0.000  -0.004   0.008  -0.002   0.000  -0.001   0.001  -0.002   0.032   0.006  -0.008   0.006  -0.017  -0.001
 -0.002   0.000  -0.000   0.002  -0.001   0.000   0.001   0.000   0.000   0.000  -0.004  -0.001   0.002  -0.002   0.003   0.000
  0.000  -0.000   0.000  -0.001   0.000  -0.001   0.000   0.002  -0.000  -0.001   0.004   0.000   0.001   0.003   0.000   0.000
 -0.004   0.002  -0.001   0.003  -0.002   0.001   0.000  -0.000   0.002   0.000  -0.009  -0.002   0.002  -0.006   0.005   0.000
  0.008  -0.001   0.000  -0.002   0.004  -0.002   0.000  -0.001   0.000   0.001   0.017   0.003  -0.001   0.003  -0.012  -0.000
 -0.002   0.000  -0.001   0.001  -0.002   0.001  -0.000   0.000  -0.000   0.000  -0.008  -0.001   0.001  -0.002   0.004   0.000
  0.000   0.001   0.000   0.000   0.000  -0.000  -0.000   0.000  -0.000  -0.000   0.001   0.000  -0.000   0.000  -0.001  -0.000
 -0.001   0.000   0.002  -0.000  -0.001   0.000   0.000  -0.000  -0.000   0.000  -0.001  -0.000   0.000  -0.000   0.001   0.000
  0.001   0.000  -0.000   0.002   0.000  -0.000  -0.000  -0.000  -0.000  -0.000   0.002   0.000  -0.000   0.000  -0.001  -0.000
 -0.002   0.000  -0.001   0.000   0.001   0.000  -0.000   0.000  -0.000  -0.000  -0.003  -0.000   0.001  -0.001   0.002   0.000
  0.032  -0.004   0.004  -0.009   0.017  -0.008   0.001  -0.001   0.002  -0.003   0.075   0.004  -0.013   0.015  -0.040  -0.000
  0.006  -0.001   0.000  -0.002   0.003  -0.001   0.000  -0.000   0.000  -0.000   0.004   0.001  -0.001   0.001  -0.002  -0.000
 -0.008   0.002   0.001   0.002  -0.001   0.001  -0.000   0.000  -0.000   0.001  -0.013  -0.001   0.003  -0.002   0.003   0.000
  0.006  -0.002   0.003  -0.006   0.003  -0.002   0.000  -0.000   0.000  -0.001   0.015   0.001  -0.002   0.003  -0.006  -0.000
 -0.017   0.003   0.000   0.005  -0.012   0.004  -0.001   0.001  -0.001   0.002  -0.040  -0.002   0.003  -0.006   0.016   0.000
 -0.001   0.000   0.000   0.000  -0.000   0.000  -0.000   0.000  -0.000   0.000  -0.000  -0.000   0.000  -0.000   0.000   0.000
  0.000  -0.000   0.000  -0.001   0.000   0.000  -0.000  -0.000  -0.000   0.000  -0.000   0.000  -0.000   0.000  -0.000  -0.000
 -0.001   0.000   0.000   0.001  -0.001   0.000   0.000   0.000  -0.000   0.000  -0.000  -0.000   0.000  -0.000   0.000   0.000


------------------------ aborting loop because EDIFF is reached ----------------------------------------


    CHARGE:  cpu time    0.6548: real time    0.6556
    FORLOC:  cpu time    0.0651: real time    0.0651
    FORNL :  cpu time    1.5324: real time    1.5436
    STRESS:  cpu time    6.1534: real time    6.1695
    FORCOR:  cpu time    1.1722: real time    1.1733
    FORHAR:  cpu time    0.1879: real time    0.1880
    MIXING:  cpu time    0.1135: real time    0.1136
    OFIELD:  cpu time    0.0000: real time    0.0000

  FORCE on cell =-STRESS in cart. coord.  units (eV):
  Direction    XX          YY          ZZ          XY          YZ          ZX
  --------------------------------------------------------------------------------------
  Alpha Z    41.16233    41.16233    41.16233
  Ewald   10320.04660  8027.66814 -1946.21249  -942.82047   290.41733   176.79391
  Hartree 15414.94170 13479.97814  4488.49194  -852.96403   249.26731   157.31482
  E(xc)    -876.21043  -877.74828  -879.62301    -0.05872     0.03175     0.08971
  Local  -27129.22033-22939.19280 -3978.79284  1797.43361  -538.15928  -332.78952
  n-local  -330.13346  -323.41144  -327.03059    -1.95002     0.45196     0.29814
  augment  1222.22522  1226.75007  1232.19524     0.65294    -0.63234    -0.37565
  Kinetic  1335.10680  1362.76659  1371.27087    -1.02225    -0.58142    -1.64632
  Fock        0.00000     0.00000     0.00000     0.00000     0.00000     0.00000
  -------------------------------------------------------------------------------------
  Total      -2.08157    -2.02725     1.46145    -0.72896     0.79531    -0.31491
  in kB      -0.98816    -0.96237     0.69378    -0.34605     0.37755    -0.14949
  external pressure =       -0.42 kB  Pullay stress =        0.00 kB


 VOLUME and BASIS-vectors are now :
 -----------------------------------------------------------------------------
  energy-cutoff  :      600.00
  volume of cell :     3375.00
      direct lattice vectors                 reciprocal lattice vectors
    15.000000000  0.000000000  0.000000000     0.066666667  0.000000000  0.000000000
     0.000000000 15.000000000  0.000000000     0.000000000  0.066666667  0.000000000
     0.000000000  0.000000000 15.000000000     0.000000000  0.000000000  0.066666667

  length of vectors
    15.000000000 15.000000000 15.000000000     0.066666667  0.066666667  0.066666667


 FORCES acting on ions
    electron-ion (+dipol)            ewald-force                    non-local-force                 convergence-correction
 -----------------------------------------------------------------------------------------------
   0.113E+04 0.671E+03 -.134E+02   -.112E+04 -.668E+03 0.135E+02   -.570E+01 -.294E+01 0.278E-01   -.432E-05 0.587E-05 0.684E-05
   0.450E+03 -.378E+03 0.919E+03   -.449E+03 0.376E+03 -.919E+03   -.144E+01 0.252E+01 -.394E+00   0.133E-04 -.186E-04 -.277E-04
   0.287E+03 0.126E+04 -.184E+03   -.285E+03 -.125E+04 0.182E+03   -.201E+01 -.909E+01 0.248E+01   0.132E-04 -.962E-05 0.253E-05
   -.866E+03 -.185E+03 0.910E+03   0.863E+03 0.184E+03 -.906E+03   0.259E+01 0.784E+00 -.428E+01   0.114E-04 -.130E-04 0.173E-04
   -.832E+03 0.100E+04 0.272E+03   0.827E+03 -.997E+03 -.270E+03   0.520E+01 -.621E+01 -.261E+01   0.138E-04 0.152E-04 0.154E-04
   -.113E+03 0.540E+03 -.936E+03   0.113E+03 -.538E+03 0.936E+03   0.263E+00 -.291E+01 0.148E+00   0.271E-04 0.172E-04 0.348E-04
   0.214E+03 0.607E+03 0.122E+04   -.213E+03 -.603E+03 -.122E+04   -.455E+00 -.401E+01 -.585E+01   0.188E-04 0.232E-04 0.333E-05
   0.123E+04 -.359E+03 0.130E+03   -.122E+04 0.356E+03 -.127E+03   -.907E+01 0.235E+01 -.275E+01   -.325E-04 -.874E-05 0.156E-05
   0.595E+03 -.161E+03 -.123E+04   -.592E+03 0.161E+03 0.122E+04   -.364E+01 0.468E+00 0.633E+01   0.250E-04 -.143E-04 0.164E-04
   0.430E+03 -.123E+04 -.193E+03   -.428E+03 0.122E+04 0.191E+03   -.227E+01 0.797E+01 0.203E+01   0.444E-06 0.124E-04 0.127E-04
   -.468E+03 -.103E+04 0.671E+03   0.465E+03 0.102E+04 -.664E+03   0.353E+01 0.675E+01 -.670E+01   0.483E-05 -.603E-05 0.268E-05
   -.872E+03 0.522E+02 -.523E+03   0.870E+03 -.523E+02 0.518E+03   0.158E+01 -.884E-01 0.454E+01   -.153E-04 -.236E-05 -.489E-05
   -.576E+03 -.791E+03 -.840E+03   0.574E+03 0.787E+03 0.837E+03   0.243E+01 0.400E+01 0.309E+01   0.179E-04 -.388E-04 0.152E-04
   -.131E+03 0.241E+02 -.114E+03   0.111E+03 -.259E+02 0.115E+03   0.200E+02 0.192E+01 -.457E+00   -.112E-04 -.176E-05 -.143E-05
   -.433E+03 -.164E+02 -.895E+02   0.491E+03 0.217E+02 0.907E+02   -.591E+02 -.540E+01 -.130E+01   0.753E-05 -.521E-06 -.174E-05
 -----------------------------------------------------------------------------------------------
   0.481E+02 0.391E+01 0.569E+01   -.284E-12 0.426E-13 -.227E-12   -.481E+02 -.391E+01 -.569E+01   0.900E-04 -.398E-04 0.929E-04
 
 
 POSITION                                       TOTAL-FORCE (eV/Angst)
 -----------------------------------------------------------------------------------
      4.33891      6.24376      8.28633         0.039532      0.183951      0.155696
      5.64602      8.27995      7.42514        -0.130267      0.231086     -0.332281
      5.97432      4.27917      8.40590        -0.050474      0.233834      0.057738
      8.00118      7.63964      7.28950         0.010518      0.068313     -0.485853
      8.23818      5.20005      7.86479         0.085444      0.028586     -0.056146
      6.73880      6.50503      9.14583         0.239626     -0.243439      0.053760
      6.19818      6.04207      6.79570         0.193616     -0.194741     -0.240196
      3.37818      8.63672      8.25389         0.071031     -0.069475     -0.040808
      5.10222      8.08041      9.75918        -0.335778      0.335399      0.334101
      5.23980     10.33870      8.59446         0.207269     -0.340175     -0.024793
      7.36047     10.12380      7.14056        -0.286245     -0.372591      0.339660
      9.25945      7.12344      9.20719         0.109932     -0.104499      0.009777
      7.29226      8.89176      9.20693         0.182595      0.190416      0.116237
     11.06530      7.15416      9.59447         0.390325      0.156882      0.211258
     12.22320      7.25815      9.61648        -0.727124     -0.103546     -0.098150
 -----------------------------------------------------------------------------------
    total drift:                                0.001585     -0.002780     -0.001748


--------------------------------------------------------------------------------------------------------



  FREE ENERGIE OF THE ION-ELECTRON SYSTEM (eV)
  ---------------------------------------------------
  free  energy   TOTEN  =       -48.98746505 eV

  energy  without entropy=      -48.99679424  energy(sigma->0) =      -48.99057478
 


--------------------------------------------------------------------------------------------------------


    POTLOK:  cpu time    1.1871: real time    1.1885


--------------------------------------------------------------------------------------------------------


     LOOP+:  cpu time  351.9172: real time  352.3731
    4ORBIT:  cpu time    0.0000: real time    0.0000

 total amount of memory used by VASP MPI-rank0   158680. kBytes
=======================================================================

   base      :      30000. kBytes
   nonl-proj :      12601. kBytes
   fftplans  :      27994. kBytes
   grid      :      74150. kBytes
   one-center:         93. kBytes
   wavefun   :      13842. kBytes
 
  
  
 General timing and accounting informations for this job:
 ========================================================
  
                  Total CPU time used (sec):      355.945
                            User time (sec):      343.149
                          System time (sec):       12.796
                         Elapsed time (sec):      356.439
  
                   Maximum memory used (kb):      278652.
                   Average memory used (kb):           0.
  
                          Minor page faults:       295515
                          Major page faults:            0
                 Voluntary context switches:          878
