<?xml version="1.0" encoding="ISO-8859-1"?>
<modeling>
 <generator>
  <i name="program" type="string">vasp </i>
  <i name="version" type="string">5.4.4.18Apr17-6-g9f103f2a35  </i>
  <i name="subversion" type="string">(build May 08 2019 13:49:07) complex            parallel </i>
  <i name="platform" type="string">LinuxIFC </i>
  <i name="date" type="string">2019 11 13 </i>
  <i name="time" type="string">11:40:15 </i>
 </generator>
 <incar>
  <i type="string" name="SYSTEM"> CuCO</i>
  <i type="int" name="ISTART">     0</i>
  <i type="string" name="PREC">accurate</i>
  <i type="string" name="ALGO"> Fast</i>
  <i type="int" name="ISPIN">     2</i>
  <i type="int" name="INIWAV">     1</i>
  <i type="int" name="NELM">   300</i>
  <i type="int" name="NELMIN">     3</i>
  <i type="int" name="IBRION">    -1</i>
  <i name="EDIFF">      0.00000010</i>
  <i name="EDIFFG">     -0.00100000</i>
  <i type="int" name="NSW">     0</i>
  <i type="int" name="ISYM">     0</i>
  <i name="ENCUT">    600.00000000</i>
  <i name="NUPDOWN">      1.00000000</i>
  <i type="logical" name="LREAL"> F  </i>
  <i type="int" name="ISMEAR">     1</i>
  <i name="SIGMA">      0.10000000</i>
  <i name="KSPACING">      0.50000000</i>
  <i type="logical" name="KGAMMA"> F  </i>
  <i type="logical" name="LWAVE"> F  </i>
  <i type="logical" name="LCHARG"> F  </i>
  <v type="int" name="KPOINT_BSE">    -1     0     0     0</v>
  <i type="int" name="NELM">   300</i>
  <i type="string" name="GGA"> PE</i>
 </incar>
 <structure name="primitive_cell" >
  <crystal>
   <varray name="basis" >
    <v>      15.00000000       0.00000000       0.00000000 </v>
    <v>       0.00000000      15.00000000       0.00000000 </v>
    <v>       0.00000000       0.00000000      15.00000000 </v>
   </varray>
   <i name="volume">   3375.00000000 </i>
   <varray name="rec_basis" >
    <v>       0.06666667       0.00000000       0.00000000 </v>
    <v>       0.00000000       0.06666667       0.00000000 </v>
    <v>       0.00000000       0.00000000       0.06666667 </v>
   </varray>
  </crystal>
  <varray name="positions" >
   <v>       0.29193867       0.42006933      -0.44521333 </v>
   <v>       0.22486133      -0.43655467      -0.45173000 </v>
   <v>       0.39391200       0.29650667      -0.43956600 </v>
   <v>       0.44266533       0.43744733      -0.38819467 </v>
   <v>       0.37924867      -0.45028867       0.49385933 </v>
   <v>       0.33345600      -0.45696333      -0.33784467 </v>
   <v>       0.42028533       0.39623267       0.44123667 </v>
   <v>      -0.45495800       0.34736467      -0.46933600 </v>
   <v>      -0.46715400      -0.49730533       0.48112933 </v>
   <v>       0.48520800      -0.40614933      -0.38305333 </v>
   <v>       0.35532000      -0.31704667      -0.43476400 </v>
   <v>       0.48804533      -0.33272667       0.47808733 </v>
   <v>      -0.37394867       0.48675267      -0.39276600 </v>
   <v>      -0.26442667       0.49328533      -0.34898200 </v>
   <v>      -0.18756667       0.49129067      -0.34157133 </v>
  </varray>
 </structure>
 <varray name="primitive_index" >
  <v type="int" >        1 </v>
  <v type="int" >        8 </v>
  <v type="int" >        3 </v>
  <v type="int" >        6 </v>
  <v type="int" >        2 </v>
  <v type="int" >        9 </v>
  <v type="int" >        7 </v>
  <v type="int" >        5 </v>
  <v type="int" >        4 </v>
  <v type="int" >       13 </v>
  <v type="int" >       10 </v>
  <v type="int" >       11 </v>
  <v type="int" >       12 </v>
  <v type="int" >       14 </v>
  <v type="int" >       15 </v>
 </varray>
 <kpoints>
  <generation param="Monkhorst-Pack">
   <v type="int" name="divisions">       1        1        1 </v>
   <v name="usershift">      0.00000000       0.00000000       0.00000000 </v>
   <v name="genvec1">      1.00000000       0.00000000       0.00000000 </v>
   <v name="genvec2">      0.00000000       1.00000000       0.00000000 </v>
   <v name="genvec3">      0.00000000       0.00000000       1.00000000 </v>
   <v name="shift">      0.00000000       0.00000000       0.00000000 </v>
  </generation>
  <varray name="kpointlist" >
   <v>       0.00000000       0.00000000       0.00000000 </v>
  </varray>
  <varray name="weights" >
   <v>       1.00000000 </v>
  </varray>
 </kpoints>
 <parameters>
  <separator name="general" >
   <i type="string" name="SYSTEM">CuCO</i>
   <i type="logical" name="LCOMPAT"> F  </i>
  </separator>
  <separator name="electronic" >
   <i type="string" name="PREC">accura</i>
   <i name="ENMAX">    600.00000000</i>
   <i name="ENAUG">    644.87300000</i>
   <i name="EDIFF">      0.00000010</i>
   <i type="int" name="IALGO">    68</i>
   <i type="int" name="IWAVPR">    10</i>
   <i type="int" name="NBANDS">    92</i>
   <i name="NELECT">    153.00000000</i>
   <i type="int" name="TURBO">     0</i>
   <i type="int" name="IRESTART">     0</i>
   <i type="int" name="NREBOOT">     0</i>
   <i type="int" name="NMIN">     0</i>
   <i name="EREF">      0.00000000</i>
   <separator name="electronic smearing" >
    <i type="int" name="ISMEAR">     1</i>
    <i name="SIGMA">      0.10000000</i>
    <i name="KSPACING">      0.50000000</i>
    <i type="logical" name="KGAMMA"> F  </i>
   </separator>
   <separator name="electronic projectors" >
    <i type="logical" name="LREAL"> F  </i>
    <v name="ROPT">      0.00000000      0.00000000      0.00000000</v>
    <i type="int" name="LMAXPAW">  -100</i>
    <i type="int" name="LMAXMIX">     2</i>
    <i type="logical" name="NLSPLINE"> F  </i>
   </separator>
   <separator name="electronic startup" >
    <i type="int" name="ISTART">     0</i>
    <i type="int" name="ICHARG">     2</i>
    <i type="int" name="INIWAV">     1</i>
   </separator>
   <separator name="electronic spin" >
    <i type="int" name="ISPIN">     2</i>
    <i type="logical" name="LNONCOLLINEAR"> F  </i>
    <v name="MAGMOM">      0.06666667      0.06666667      0.06666667      0.06666667      0.06666667      0.06666667      0.06666667      0.06666667      0.06666667      0.06666667      0.06666667      0.06666667      0.06666667      0.06666667      0.06666667</v>
    <i name="NUPDOWN">      1.00000000</i>
    <i type="logical" name="LSORBIT"> F  </i>
    <v name="SAXIS">      0.00000000      0.00000000      1.00000000</v>
    <i type="logical" name="LSPIRAL"> F  </i>
    <v name="QSPIRAL">      0.00000000      0.00000000      0.00000000</v>
    <i type="logical" name="LZEROZ"> F  </i>
   </separator>
   <separator name="electronic exchange-correlation" >
    <i type="logical" name="LASPH"> F  </i>
    <i type="logical" name="LMETAGGA"> F  </i>
   </separator>
   <separator name="electronic convergence" >
    <i type="int" name="NELM">   300</i>
    <i type="int" name="NELMDL">    -5</i>
    <i type="int" name="NELMIN">     3</i>
    <i name="ENINI">    600.00000000</i>
    <separator name="electronic convergence detail" >
     <i type="logical" name="LDIAG"> T  </i>
     <i type="logical" name="LSUBROT"> F  </i>
     <i name="WEIMIN">      0.00000000</i>
     <i name="EBREAK">      0.00000000</i>
     <i name="DEPER">      0.30000000</i>
     <i type="int" name="NRMM">     4</i>
     <i name="TIME">      0.40000000</i>
    </separator>
   </separator>
   <separator name="electronic mixer" >
    <i name="AMIX">      0.40000000</i>
    <i name="BMIX">      1.00000000</i>
    <i name="AMIN">      0.10000000</i>
    <i name="AMIX_MAG">      1.60000000</i>
    <i name="BMIX_MAG">      1.00000000</i>
    <separator name="electronic mixer details" >
     <i type="int" name="IMIX">     4</i>
     <i type="logical" name="MIXFIRST"> F  </i>
     <i type="int" name="MAXMIX">   -45</i>
     <i name="WC">    100.00000000</i>
     <i type="int" name="INIMIX">     1</i>
     <i type="int" name="MIXPRE">     1</i>
     <i type="int" name="MREMOVE">     5</i>
    </separator>
   </separator>
   <separator name="electronic dipolcorrection" >
    <i type="logical" name="LDIPOL"> F  </i>
    <i type="logical" name="LMONO"> F  </i>
    <i type="int" name="IDIPOL">     0</i>
    <i name="EPSILON">      1.00000000</i>
    <v name="DIPOL">   -100.00000000   -100.00000000   -100.00000000</v>
    <i name="EFIELD">      0.00000000</i>
   </separator>
  </separator>
  <separator name="grids" >
   <i type="int" name="NGX">   120</i>
   <i type="int" name="NGY">   120</i>
   <i type="int" name="NGZ">   120</i>
   <i type="int" name="NGXF">   240</i>
   <i type="int" name="NGYF">   240</i>
   <i type="int" name="NGZF">   240</i>
   <i type="logical" name="ADDGRID"> F  </i>
  </separator>
  <separator name="ionic" >
   <i type="int" name="NSW">     0</i>
   <i type="int" name="IBRION">    -1</i>
   <i type="int" name="MDALGO">     0</i>
   <i type="int" name="ISIF">     2</i>
   <i name="PSTRESS">      0.00000000</i>
   <i name="EDIFFG">     -0.00100000</i>
   <i type="int" name="NFREE">     0</i>
   <i name="POTIM">      0.50000000</i>
   <i name="SMASS">     -3.00000000</i>
   <i name="SCALEE">      1.00000000</i>
  </separator>
  <separator name="ionic md" >
   <i name="TEBEG">      0.00010000</i>
   <i name="TEEND">      0.00010000</i>
   <i type="int" name="NBLOCK">     1</i>
   <i type="int" name="KBLOCK">     1</i>
   <i type="int" name="NPACO">   256</i>
   <i name="APACO">     16.00000000</i>
  </separator>
  <separator name="symmetry" >
   <i type="int" name="ISYM">     0</i>
   <i name="SYMPREC">      0.00001000</i>
  </separator>
  <separator name="dos" >
   <i type="int" name="LORBIT">     0</i>
   <v name="RWIGS">     -1.00000000     -1.00000000     -1.00000000</v>
   <i type="int" name="NEDOS">   301</i>
   <i name="EMIN">     10.00000000</i>
   <i name="EMAX">    -10.00000000</i>
   <i name="EFERMI">      0.00000000</i>
  </separator>
  <separator name="writing" >
   <i type="int" name="NWRITE">     2</i>
   <i type="logical" name="LWAVE"> F  </i>
   <i type="logical" name="LDOWNSAMPLE"> F  </i>
   <i type="logical" name="LCHARG"> F  </i>
   <i type="logical" name="LPARD"> F  </i>
   <i type="logical" name="LVTOT"> F  </i>
   <i type="logical" name="LVHAR"> F  </i>
   <i type="logical" name="LELF"> F  </i>
   <i type="logical" name="LOPTICS"> F  </i>
   <v name="STM">      0.00000000      0.00000000      0.00000000      0.00000000      0.00000000      0.00000000      0.00000000</v>
  </separator>
  <separator name="performance" >
   <i type="int" name="NPAR">     4</i>
   <i type="int" name="NSIM">     4</i>
   <i type="int" name="NBLK">    -1</i>
   <i type="logical" name="LPLANE"> T  </i>
   <i type="logical" name="LSCALAPACK"> T  </i>
   <i type="logical" name="LSCAAWARE"> F  </i>
   <i type="logical" name="LSCALU"> F  </i>
   <i type="logical" name="LASYNC"> F  </i>
   <i type="logical" name="LORBITALREAL"> F  </i>
  </separator>
  <separator name="miscellaneous" >
   <i type="int" name="IDIOT">     3</i>
   <i type="int" name="ISPECIAL">     0</i>
   <i type="logical" name="LMUSIC"> F  </i>
   <v name="POMASS">     63.54600000     12.01100000     16.00000000</v>
   <v name="DARWINR">      0.00000000      0.00000000      0.00000000</v>
   <v name="DARWINV">      1.00000000      1.00000000      1.00000000</v>
   <i type="logical" name="LCORR"> T  </i>
  </separator>
  <i type="logical" name="GGA_COMPAT"> T  </i>
  <i type="logical" name="LBERRY"> F  </i>
  <i type="int" name="ICORELEVEL">     0</i>
  <i type="logical" name="LDAU"> F  </i>
  <i type="int" name="I_CONSTRAINED_M">     0</i>
  <separator name="electronic exchange-correlation" >
   <i type="string" name="GGA">PE</i>
   <i type="int" name="VOSKOWN">     0</i>
   <i type="logical" name="LHFCALC"> F  </i>
   <i type="string" name="PRECFOCK"></i>
   <i type="logical" name="LSYMGRAD"> F  </i>
   <i type="logical" name="LHFONE"> F  </i>
   <i type="logical" name="LRHFCALC"> F  </i>
   <i type="logical" name="LTHOMAS"> F  </i>
   <i type="logical" name="LMODELHF"> F  </i>
   <i name="ENCUT4O">     -1.00000000</i>
   <i type="int" name="EXXOEP">     0</i>
   <i type="int" name="FOURORBIT">     0</i>
   <i name="AEXX">      0.00000000</i>
   <i name="HFALPHA">      0.00000000</i>
   <i name="MCALPHA">      0.00000000</i>
   <i name="ALDAX">      1.00000000</i>
   <i name="AGGAX">      1.00000000</i>
   <i name="ALDAC">      1.00000000</i>
   <i name="AGGAC">      1.00000000</i>
   <i type="int" name="NKREDX">     1</i>
   <i type="int" name="NKREDY">     1</i>
   <i type="int" name="NKREDZ">     1</i>
   <i type="logical" name="SHIFTRED"> F  </i>
   <i type="logical" name="ODDONLY"> F  </i>
   <i type="logical" name="EVENONLY"> F  </i>
   <i type="int" name="LMAXFOCK">     0</i>
   <i type="int" name="NMAXFOCKAE">     0</i>
   <i type="logical" name="LFOCKAEDFT"> F  </i>
   <i name="HFSCREEN">      0.00000000</i>
   <i name="HFSCREENC">      0.00000000</i>
   <i type="int" name="NBANDSGWLOW">     0</i>
  </separator>
  <separator name="vdW DFT" >
   <i type="logical" name="LUSE_VDW"> F  </i>
   <i name="Zab_VDW">     -0.84910000</i>
   <i name="PARAM1">      0.12340000</i>
   <i name="PARAM2">      1.00000000</i>
   <i name="PARAM3">      0.00000000</i>
  </separator>
  <separator name="model GW" >
   <i type="int" name="MODEL_GW">     0</i>
   <i name="MODEL_EPS0">    135.00000000</i>
   <i name="MODEL_ALPHA">      1.00000000</i>
  </separator>
  <separator name="linear response parameters" >
   <i type="logical" name="LEPSILON"> F  </i>
   <i type="logical" name="LRPA"> F  </i>
   <i type="logical" name="LNABLA"> F  </i>
   <i type="logical" name="LVEL"> F  </i>
   <i type="int" name="KINTER">     0</i>
   <i name="CSHIFT">      0.10000000</i>
   <i name="OMEGAMAX">     -1.00000000</i>
   <i name="DEG_THRESHOLD">      0.00200000</i>
   <i name="RTIME">     -0.10000000</i>
   <i name="WPLASMAI">      0.00000000</i>
   <v name="DFIELD">      0.00000000      0.00000000      0.00000000</v>
   <v name="WPLASMA">      0.00000000      0.00000000      0.00000000      0.00000000      0.00000000      0.00000000      0.00000000      0.00000000      0.00000000</v>
  </separator>
  <separator name="orbital magnetization" >
   <i type="logical" name="NUCIND"> F  </i>
   <v name="MAGPOS">      0.00000000      0.00000000      0.00000000</v>
   <i type="logical" name="LNICSALL"> T  </i>
   <i type="logical" name="ORBITALMAG"> F  </i>
   <i type="logical" name="LMAGBLOCH"> F  </i>
   <i type="logical" name="LCHIMAG"> F  </i>
   <i type="logical" name="LGAUGE"> T  </i>
   <i type="int" name="MAGATOM">     0</i>
   <v name="MAGDIPOL">      0.00000000      0.00000000      0.00000000</v>
   <v name="AVECCONST">      0.00000000      0.00000000      0.00000000</v>
  </separator>
  <separator name="response functions" >
   <i type="logical" name="LADDER"> F  </i>
   <i type="logical" name="LRPAFORCE"> F  </i>
   <i type="logical" name="LFXC"> F  </i>
   <i type="logical" name="LHARTREE"> T  </i>
   <i type="int" name="IBSE">     0</i>
   <v type="int" name="KPOINT">    -1     0     0     0</v>
   <i type="logical" name="LTCTE"> F  </i>
   <i type="logical" name="LTETE"> F  </i>
   <i type="logical" name="LTRIPLET"> F  </i>
   <i type="logical" name="LFXCEPS"> F  </i>
   <i type="logical" name="LFXHEG"> F  </i>
   <i type="int" name="NATURALO">     2</i>
   <i type="logical" name="L2ORDER"> F  </i>
   <i type="logical" name="LMP2LT"> F  </i>
   <i type="logical" name="LUSEW"> F  </i>
   <i name="ENCUTGW">     -2.00000000</i>
   <i name="ENCUTGWSOFT">     -2.00000000</i>
   <i name="ENCUTLF">     -1.00000000</i>
   <i type="int" name="LMAXMP2">    -1</i>
   <i name="SCISSOR">      0.00000000</i>
   <i type="int" name="NOMEGA">     0</i>
   <i type="int" name="NOMEGAR">     0</i>
   <i type="int" name="NBANDSGW">    -1</i>
   <i type="int" name="NBANDSO">    -1</i>
   <i type="int" name="NBANDSV">    -1</i>
   <i type="int" name="NELM">   300</i>
   <i type="int" name="NELMHF">     1</i>
   <i type="int" name="DIM">     3</i>
   <i type="int" name="ANTIRES">     0</i>
   <i name="OMEGAMAX">    -30.00000000</i>
   <i name="OMEGAMIN">    -30.00000000</i>
   <i name="OMEGATL">   -200.00000000</i>
   <i type="int" name="OMEGAGRID">   140</i>
   <i name="CSHIFT">     -0.10000000</i>
   <i type="logical" name="SELFENERGY"> F  </i>
   <i type="logical" name="LSPECTRAL"> F  </i>
   <i type="logical" name="LSPECTRALGW"> F  </i>
   <i type="logical" name="LSINGLES"> F  </i>
   <i type="logical" name="LFERMIGW"> F  </i>
   <i type="logical" name="ODDONLYGW"> F  </i>
   <i type="logical" name="EVENONLYGW"> F  </i>
   <i type="int" name="NKREDLFX">     1</i>
   <i type="int" name="NKREDLFY">     1</i>
   <i type="int" name="NKREDLFZ">     1</i>
   <i type="int" name="MAXMEM">  2800</i>
   <i type="int" name="TELESCOPE">     0</i>
   <i type="int" name="TAUPAR">     1</i>
   <i type="int" name="OMEGAPAR">    -1</i>
   <i name="LAMBDA">      1.00000000</i>
  </separator>
  <separator name="External order field" >
   <i name="OFIELD_KAPPA">      0.00000000</i>
   <v name="OFIELD_K">      0.00000000      0.00000000      0.00000000</v>
   <i name="OFIELD_Q6_NEAR">      0.00000000</i>
   <i name="OFIELD_Q6_FAR">      0.00000000</i>
   <i name="OFIELD_A">      0.00000000</i>
  </separator>
 </parameters>
 <atominfo>
  <atoms>      15 </atoms>
  <types>       3 </types>
  <array name="atoms" >
   <dimension dim="1">ion</dimension>
   <field type="string">element</field>
   <field type="int">atomtype</field>
   <set>
    <rc><c>Cu</c><c>   1</c></rc>
    <rc><c>Cu</c><c>   1</c></rc>
    <rc><c>Cu</c><c>   1</c></rc>
    <rc><c>Cu</c><c>   1</c></rc>
    <rc><c>Cu</c><c>   1</c></rc>
    <rc><c>Cu</c><c>   1</c></rc>
    <rc><c>Cu</c><c>   1</c></rc>
    <rc><c>Cu</c><c>   1</c></rc>
    <rc><c>Cu</c><c>   1</c></rc>
    <rc><c>Cu</c><c>   1</c></rc>
    <rc><c>Cu</c><c>   1</c></rc>
    <rc><c>Cu</c><c>   1</c></rc>
    <rc><c>Cu</c><c>   1</c></rc>
    <rc><c>C </c><c>   2</c></rc>
    <rc><c>O </c><c>   3</c></rc>
   </set>
  </array>
  <array name="atomtypes" >
   <dimension dim="1">type</dimension>
   <field type="int">atomspertype</field>
   <field type="string">element</field>
   <field>mass</field>
   <field>valence</field>
   <field type="string">pseudopotential</field>
   <set>
    <rc><c>  13</c><c>Cu</c><c>     63.54600000</c><c>     11.00000000</c><c>  PAW_PBE Cu 22Jun2005                  </c></rc>
    <rc><c>   1</c><c>C </c><c>     12.01100000</c><c>      4.00000000</c><c>  PAW_PBE C 08Apr2002                   </c></rc>
    <rc><c>   1</c><c>O </c><c>     16.00000000</c><c>      6.00000000</c><c>  PAW_PBE O 08Apr2002                   </c></rc>
   </set>
  </array>
 </atominfo>
 <structure name="initialpos" >
  <crystal>
   <varray name="basis" >
    <v>      15.00000000       0.00000000       0.00000000 </v>
    <v>       0.00000000      15.00000000       0.00000000 </v>
    <v>       0.00000000       0.00000000      15.00000000 </v>
   </varray>
   <i name="volume">   3375.00000000 </i>
   <varray name="rec_basis" >
    <v>       0.06666667       0.00000000       0.00000000 </v>
    <v>       0.00000000       0.06666667       0.00000000 </v>
    <v>       0.00000000       0.00000000       0.06666667 </v>
   </varray>
  </crystal>
  <varray name="positions" >
   <v>       0.29193867       0.42006933       0.55478667 </v>
   <v>       0.37924867       0.54971133       0.49385933 </v>
   <v>       0.39391200       0.29650667       0.56043400 </v>
   <v>       0.53284600       0.50269467       0.48112933 </v>
   <v>       0.54504200       0.34736467       0.53066400 </v>
   <v>       0.44266533       0.43744733       0.61180533 </v>
   <v>       0.42028533       0.39623267       0.44123667 </v>
   <v>       0.22486133       0.56344533       0.54827000 </v>
   <v>       0.33345600       0.54303667       0.66215533 </v>
   <v>       0.35532000       0.68295333       0.56523600 </v>
   <v>       0.48804533       0.66727333       0.47808733 </v>
   <v>       0.62605133       0.48675267       0.60723400 </v>
   <v>       0.48520800       0.59385067       0.61694667 </v>
   <v>       0.73557333       0.49328533       0.65101800 </v>
   <v>       0.81243333       0.49129067       0.65842867 </v>
  </varray>
 </structure>
 <calculation>
  <scstep>
   <time name="dav">    7.53    7.54</time>
   <time name="total">    8.73    8.74</time>
   <energy>
    <i name="alphaZ">     41.16232785 </i>
    <i name="ewald">  16465.42463513 </i>
    <i name="hartreedc"> -33484.02540216 </i>
    <i name="XCdc">    623.69951153 </i>
    <i name="pawpsdc">  16421.75059358 </i>
    <i name="pawaedc"> -17800.06104309 </i>
    <i name="eentropy">      0.00712933 </i>
    <i name="bandstr">    189.52799883 </i>
    <i name="atom">  18662.21924712 </i>
    <i name="e_fr_energy">   1119.70499812 </i>
    <i name="e_wo_entrp">   1119.69786879 </i>
    <i name="e_0_energy">   1119.70262168 </i>
   </energy>
  </scstep>
  <scstep>
   <time name="dav">    7.38    7.41</time>
   <time name="total">    7.38    7.41</time>
   <energy>
    <i name="e_fr_energy">     87.79838962 </i>
    <i name="e_wo_entrp">     87.78438012 </i>
    <i name="e_0_energy">     87.79371979 </i>
   </energy>
  </scstep>
  <scstep>
   <time name="dav">   11.93   11.94</time>
   <time name="total">   11.93   11.94</time>
   <energy>
    <i name="e_fr_energy">    -33.68760852 </i>
    <i name="e_wo_entrp">    -33.70369816 </i>
    <i name="e_0_energy">    -33.69297173 </i>
   </energy>
  </scstep>
  <scstep>
   <time name="dav">   10.24   10.24</time>
   <time name="total">   10.24   10.25</time>
   <energy>
    <i name="e_fr_energy">    -55.89217363 </i>
    <i name="e_wo_entrp">    -55.90148690 </i>
    <i name="e_0_energy">    -55.89527805 </i>
   </energy>
  </scstep>
  <scstep>
   <time name="dav">   12.02   12.03</time>
   <time name="total">   12.74   12.75</time>
   <energy>
    <i name="e_fr_energy">    -57.56484148 </i>
    <i name="e_wo_entrp">    -57.57425647 </i>
    <i name="e_0_energy">    -57.56797981 </i>
   </energy>
  </scstep>
  <scstep>
   <time name="diag">    1.12    1.12</time>
   <time name="diis">    6.84    6.84</time>
   <time name="orth">    0.06    0.06</time>
   <time name="total">    9.89    9.90</time>
   <energy>
    <i name="e_fr_energy">    -57.09839327 </i>
    <i name="e_wo_entrp">    -57.10483323 </i>
    <i name="e_0_energy">    -57.10053993 </i>
   </energy>
  </scstep>
  <scstep>
   <time name="diag">    1.12    1.13</time>
   <time name="diis">    6.66    6.66</time>
   <time name="orth">    0.06    0.06</time>
   <time name="total">    9.71    9.71</time>
   <energy>
    <i name="e_fr_energy">    -49.20116907 </i>
    <i name="e_wo_entrp">    -49.20860592 </i>
    <i name="e_0_energy">    -49.20364802 </i>
   </energy>
  </scstep>
  <scstep>
   <time name="diag">    1.13    1.13</time>
   <time name="diis">    6.85    6.85</time>
   <time name="orth">    0.06    0.06</time>
   <time name="total">    9.90    9.91</time>
   <energy>
    <i name="e_fr_energy">    -48.93869315 </i>
    <i name="e_wo_entrp">    -48.94705123 </i>
    <i name="e_0_energy">    -48.94147918 </i>
   </energy>
  </scstep>
  <scstep>
   <time name="diag">    1.12    1.12</time>
   <time name="diis">    7.48    7.48</time>
   <time name="orth">    0.06    0.06</time>
   <time name="total">   10.57   10.58</time>
   <energy>
    <i name="e_fr_energy">    -48.88796532 </i>
    <i name="e_wo_entrp">    -48.89654115 </i>
    <i name="e_0_energy">    -48.89082393 </i>
   </energy>
  </scstep>
  <scstep>
   <time name="diag">    1.13    1.13</time>
   <time name="diis">    7.13    7.13</time>
   <time name="orth">    0.06    0.06</time>
   <time name="total">   10.23   10.24</time>
   <energy>
    <i name="e_fr_energy">    -48.82089542 </i>
    <i name="e_wo_entrp">    -48.82920911 </i>
    <i name="e_0_energy">    -48.82366665 </i>
   </energy>
  </scstep>
  <scstep>
   <time name="diag">    1.12    1.12</time>
   <time name="diis">    7.04    7.04</time>
   <time name="orth">    0.06    0.06</time>
   <time name="total">   10.12   10.13</time>
   <energy>
    <i name="e_fr_energy">    -48.81075802 </i>
    <i name="e_wo_entrp">    -48.81934986 </i>
    <i name="e_0_energy">    -48.81362196 </i>
   </energy>
  </scstep>
  <scstep>
   <time name="diag">    1.12    1.12</time>
   <time name="diis">    6.90    6.90</time>
   <time name="orth">    0.06    0.06</time>
   <time name="total">   10.00   10.01</time>
   <energy>
    <i name="e_fr_energy">    -48.80805525 </i>
    <i name="e_wo_entrp">    -48.81650798 </i>
    <i name="e_0_energy">    -48.81087282 </i>
   </energy>
  </scstep>
  <scstep>
   <time name="diag">    1.12    1.12</time>
   <time name="diis">    6.81    6.81</time>
   <time name="orth">    0.06    0.06</time>
   <time name="total">    9.90    9.91</time>
   <energy>
    <i name="e_fr_energy">    -48.80680145 </i>
    <i name="e_wo_entrp">    -48.81530006 </i>
    <i name="e_0_energy">    -48.80963432 </i>
   </energy>
  </scstep>
  <scstep>
   <time name="diag">    1.12    1.12</time>
   <time name="diis">    6.79    6.80</time>
   <time name="orth">    0.06    0.06</time>
   <time name="total">    9.88    9.89</time>
   <energy>
    <i name="e_fr_energy">    -48.80781010 </i>
    <i name="e_wo_entrp">    -48.81630930 </i>
    <i name="e_0_energy">    -48.81064317 </i>
   </energy>
  </scstep>
  <scstep>
   <time name="diag">    1.12    1.12</time>
   <time name="diis">    6.89    6.89</time>
   <time name="orth">    0.06    0.06</time>
   <time name="total">    9.98    9.98</time>
   <energy>
    <i name="e_fr_energy">    -48.80897490 </i>
    <i name="e_wo_entrp">    -48.81746740 </i>
    <i name="e_0_energy">    -48.81180573 </i>
   </energy>
  </scstep>
  <scstep>
   <time name="diag">    1.12    1.12</time>
   <time name="diis">    6.53    6.54</time>
   <time name="orth">    0.06    0.06</time>
   <time name="total">    9.63    9.64</time>
   <energy>
    <i name="e_fr_energy">    -48.81039406 </i>
    <i name="e_wo_entrp">    -48.81892392 </i>
    <i name="e_0_energy">    -48.81323735 </i>
   </energy>
  </scstep>
  <scstep>
   <time name="diag">    1.11    1.12</time>
   <time name="diis">    6.74    6.74</time>
   <time name="orth">    0.06    0.06</time>
   <time name="total">    9.84    9.85</time>
   <energy>
    <i name="e_fr_energy">    -48.81210582 </i>
    <i name="e_wo_entrp">    -48.82064124 </i>
    <i name="e_0_energy">    -48.81495096 </i>
   </energy>
  </scstep>
  <scstep>
   <time name="diag">    1.12    1.12</time>
   <time name="diis">    6.72    6.73</time>
   <time name="orth">    0.06    0.06</time>
   <time name="total">    9.82    9.83</time>
   <energy>
    <i name="e_fr_energy">    -48.81296485 </i>
    <i name="e_wo_entrp">    -48.82149851 </i>
    <i name="e_0_energy">    -48.81580940 </i>
   </energy>
  </scstep>
  <scstep>
   <time name="diag">    1.12    1.12</time>
   <time name="diis">    7.56    7.56</time>
   <time name="orth">    0.06    0.06</time>
   <time name="total">   10.67   10.67</time>
   <energy>
    <i name="e_fr_energy">    -48.81376008 </i>
    <i name="e_wo_entrp">    -48.82229211 </i>
    <i name="e_0_energy">    -48.81660409 </i>
   </energy>
  </scstep>
  <scstep>
   <time name="diag">    1.11    1.12</time>
   <time name="diis">    6.66    6.66</time>
   <time name="orth">    0.06    0.06</time>
   <time name="total">    9.77    9.78</time>
   <energy>
    <i name="e_fr_energy">    -48.81429571 </i>
    <i name="e_wo_entrp">    -48.82282541 </i>
    <i name="e_0_energy">    -48.81713894 </i>
   </energy>
  </scstep>
  <scstep>
   <time name="diag">    1.12    1.12</time>
   <time name="diis">    6.90    6.90</time>
   <time name="orth">    0.06    0.06</time>
   <time name="total">   10.01   10.01</time>
   <energy>
    <i name="e_fr_energy">    -48.81468610 </i>
    <i name="e_wo_entrp">    -48.82321143 </i>
    <i name="e_0_energy">    -48.81752788 </i>
   </energy>
  </scstep>
  <scstep>
   <time name="diag">    1.12    1.12</time>
   <time name="diis">    6.73    6.73</time>
   <time name="orth">    0.06    0.06</time>
   <time name="total">    9.84    9.84</time>
   <energy>
    <i name="e_fr_energy">    -48.81494802 </i>
    <i name="e_wo_entrp">    -48.82347601 </i>
    <i name="e_0_energy">    -48.81779068 </i>
   </energy>
  </scstep>
  <scstep>
   <time name="diag">    1.12    1.12</time>
   <time name="diis">    6.54    6.55</time>
   <time name="orth">    0.06    0.06</time>
   <time name="total">    9.65    9.66</time>
   <energy>
    <i name="e_fr_energy">    -48.81508237 </i>
    <i name="e_wo_entrp">    -48.82361048 </i>
    <i name="e_0_energy">    -48.81792507 </i>
   </energy>
  </scstep>
  <scstep>
   <time name="diag">    1.12    1.12</time>
   <time name="diis">    6.67    6.68</time>
   <time name="orth">    0.06    0.06</time>
   <time name="total">    9.79    9.80</time>
   <energy>
    <i name="e_fr_energy">    -48.81518184 </i>
    <i name="e_wo_entrp">    -48.82371033 </i>
    <i name="e_0_energy">    -48.81802467 </i>
   </energy>
  </scstep>
  <scstep>
   <time name="diag">    1.12    1.12</time>
   <time name="diis">    6.46    6.46</time>
   <time name="orth">    0.06    0.06</time>
   <time name="total">    9.57    9.58</time>
   <energy>
    <i name="e_fr_energy">    -48.81524421 </i>
    <i name="e_wo_entrp">    -48.82377259 </i>
    <i name="e_0_energy">    -48.81808700 </i>
   </energy>
  </scstep>
  <scstep>
   <time name="diag">    1.12    1.12</time>
   <time name="diis">    6.22    6.23</time>
   <time name="orth">    0.05    0.05</time>
   <time name="total">    9.34    9.35</time>
   <energy>
    <i name="e_fr_energy">    -48.81528347 </i>
    <i name="e_wo_entrp">    -48.82381162 </i>
    <i name="e_0_energy">    -48.81812618 </i>
   </energy>
  </scstep>
  <scstep>
   <time name="diag">    1.12    1.12</time>
   <time name="diis">    5.13    5.13</time>
   <time name="orth">    0.05    0.05</time>
   <time name="total">    8.25    8.26</time>
   <energy>
    <i name="e_fr_energy">    -48.81529683 </i>
    <i name="e_wo_entrp">    -48.82382505 </i>
    <i name="e_0_energy">    -48.81813957 </i>
   </energy>
  </scstep>
  <scstep>
   <time name="diag">    1.12    1.12</time>
   <time name="diis">    4.31    4.31</time>
   <time name="orth">    0.05    0.05</time>
   <time name="total">    7.43    7.44</time>
   <energy>
    <i name="e_fr_energy">    -48.81530243 </i>
    <i name="e_wo_entrp">    -48.82383052 </i>
    <i name="e_0_energy">    -48.81814512 </i>
   </energy>
  </scstep>
  <scstep>
   <time name="diag">    1.11    1.12</time>
   <time name="diis">    4.43    4.45</time>
   <time name="orth">    0.05    0.05</time>
   <time name="total">    7.55    7.58</time>
   <energy>
    <i name="e_fr_energy">    -48.81530705 </i>
    <i name="e_wo_entrp">    -48.82383516 </i>
    <i name="e_0_energy">    -48.81814975 </i>
   </energy>
  </scstep>
  <scstep>
   <time name="diag">    1.12    1.12</time>
   <time name="diis">    4.38    4.38</time>
   <time name="orth">    0.05    0.05</time>
   <time name="total">    7.51    7.52</time>
   <energy>
    <i name="e_fr_energy">    -48.81530848 </i>
    <i name="e_wo_entrp">    -48.82383651 </i>
    <i name="e_0_energy">    -48.81815116 </i>
   </energy>
  </scstep>
  <scstep>
   <time name="diag">    1.12    1.12</time>
   <time name="diis">    4.60    4.60</time>
   <time name="orth">    0.06    0.06</time>
   <time name="total">    7.74    7.74</time>
   <energy>
    <i name="e_fr_energy">    -48.81530936 </i>
    <i name="e_wo_entrp">    -48.82383741 </i>
    <i name="e_0_energy">    -48.81815204 </i>
   </energy>
  </scstep>
  <scstep>
   <time name="diag">    1.12    1.12</time>
   <time name="diis">    4.38    4.38</time>
   <time name="orth">    0.05    0.05</time>
   <time name="total">    7.53    7.54</time>
   <energy>
    <i name="e_fr_energy">    -48.81531007 </i>
    <i name="e_wo_entrp">    -48.82383815 </i>
    <i name="e_0_energy">    -48.81815277 </i>
   </energy>
  </scstep>
  <scstep>
   <time name="diag">    1.12    1.12</time>
   <time name="diis">    4.06    4.06</time>
   <time name="orth">    0.05    0.05</time>
   <time name="total">    7.22    7.22</time>
   <energy>
    <i name="e_fr_energy">    -48.81531058 </i>
    <i name="e_wo_entrp">    -48.82383865 </i>
    <i name="e_0_energy">    -48.81815327 </i>
   </energy>
  </scstep>
  <scstep>
   <time name="diag">    1.12    1.12</time>
   <time name="diis">    4.00    4.01</time>
   <time name="orth">    0.05    0.05</time>
   <time name="total">    7.17    7.17</time>
   <energy>
    <i name="e_fr_energy">    -48.81531098 </i>
    <i name="e_wo_entrp">    -48.82383907 </i>
    <i name="e_0_energy">    -48.81815368 </i>
   </energy>
  </scstep>
  <scstep>
   <time name="diag">    1.12    1.12</time>
   <time name="diis">    4.02    4.02</time>
   <time name="orth">    0.05    0.05</time>
   <time name="total">    7.19    7.19</time>
   <energy>
    <i name="e_fr_energy">    -48.81531120 </i>
    <i name="e_wo_entrp">    -48.82383928 </i>
    <i name="e_0_energy">    -48.81815390 </i>
   </energy>
  </scstep>
  <scstep>
   <time name="diag">    1.11    1.11</time>
   <time name="diis">    3.42    3.42</time>
   <time name="orth">    0.05    0.05</time>
   <time name="total">    6.59    6.60</time>
   <energy>
    <i name="e_fr_energy">    -48.81531144 </i>
    <i name="e_wo_entrp">    -48.82383951 </i>
    <i name="e_0_energy">    -48.81815413 </i>
   </energy>
  </scstep>
  <scstep>
   <time name="diag">    1.12    1.12</time>
   <time name="diis">    3.45    3.46</time>
   <time name="orth">    0.05    0.05</time>
   <time name="total">    6.63    6.64</time>
   <energy>
    <i name="e_fr_energy">    -48.81531158 </i>
    <i name="e_wo_entrp">    -48.82383965 </i>
    <i name="e_0_energy">    -48.81815427 </i>
   </energy>
  </scstep>
  <scstep>
   <time name="diag">    1.12    1.12</time>
   <time name="diis">    3.45    3.45</time>
   <time name="orth">    0.05    0.05</time>
   <time name="total">    5.80    5.81</time>
   <energy>
    <i name="alphaZ">     41.16232785 </i>
    <i name="ewald">  16465.42463513 </i>
    <i name="hartreedc"> -33440.06143877 </i>
    <i name="XCdc">    615.64943003 </i>
    <i name="pawpsdc">  17690.96778621 </i>
    <i name="pawaedc"> -19090.24186212 </i>
    <i name="eentropy">      0.00852807 </i>
    <i name="bandstr">   -993.94396514 </i>
    <i name="atom">  18662.21924712 </i>
    <i name="e_fr_energy">    -48.81531162 </i>
    <i name="e_wo_entrp">    -48.82383968 </i>
    <i name="e_0_energy">    -48.81815431 </i>
   </energy>
  </scstep>
  <structure>
   <crystal>
    <varray name="basis" >
     <v>      15.00000000       0.00000000       0.00000000 </v>
     <v>       0.00000000      15.00000000       0.00000000 </v>
     <v>       0.00000000       0.00000000      15.00000000 </v>
    </varray>
    <i name="volume">   3375.00000000 </i>
    <varray name="rec_basis" >
     <v>       0.06666667       0.00000000       0.00000000 </v>
     <v>       0.00000000       0.06666667       0.00000000 </v>
     <v>       0.00000000       0.00000000       0.06666667 </v>
    </varray>
   </crystal>
   <varray name="positions" >
    <v>       0.29193867       0.42006933       0.55478667 </v>
    <v>       0.37924867       0.54971133       0.49385933 </v>
    <v>       0.39391200       0.29650667       0.56043400 </v>
    <v>       0.53284600       0.50269467       0.48112933 </v>
    <v>       0.54504200       0.34736467       0.53066400 </v>
    <v>       0.44266533       0.43744733       0.61180533 </v>
    <v>       0.42028533       0.39623267       0.44123667 </v>
    <v>       0.22486133       0.56344533       0.54827000 </v>
    <v>       0.33345600       0.54303667       0.66215533 </v>
    <v>       0.35532000       0.68295333       0.56523600 </v>
    <v>       0.48804533       0.66727333       0.47808733 </v>
    <v>       0.62605133       0.48675267       0.60723400 </v>
    <v>       0.48520800       0.59385067       0.61694667 </v>
    <v>       0.73557333       0.49328533       0.65101800 </v>
    <v>       0.81243333       0.49129067       0.65842867 </v>
   </varray>
  </structure>
  <varray name="forces" >
   <v>       0.03914106      -0.03863649      -0.12637871 </v>
   <v>      -0.35026872      -0.58013736      -0.19913177 </v>
   <v>      -0.12188304      -0.57326399       0.15833949 </v>
   <v>       0.09734233       0.30389966       0.07458748 </v>
   <v>       0.46915166       0.10411531       0.04191012 </v>
   <v>       0.57986836       0.07527074      -0.05279228 </v>
   <v>      -0.32273586       0.28911850       0.22502044 </v>
   <v>       0.09087779       0.40944945      -0.02124178 </v>
   <v>       0.14593184       0.27467618      -0.42521089 </v>
   <v>      -0.46511029       0.21704357       0.45588074 </v>
   <v>       0.25556476      -0.02306220      -0.14306991 </v>
   <v>      -1.20224551      -0.20257171      -0.27482595 </v>
   <v>       0.08733883      -0.25202235       0.00699064 </v>
   <v>       0.80171326      -0.08422477       0.21948851 </v>
   <v>      -0.10468646       0.08034548       0.06043387 </v>
  </varray>
  <varray name="stress" >
   <v>       0.52811759      -0.57137549       0.50754935 </v>
   <v>      -0.57137550       0.60334623      -0.11757729 </v>
   <v>       0.50754935      -0.11757728      -0.32334026 </v>
  </varray>
  <energy>
   <i name="e_fr_energy">    -48.81531162 </i>
   <i name="e_wo_entrp">    -48.81815431 </i>
   <i name="e_0_energy">      0.00852807 </i>
  </energy>
  <time name="totalsc">  356.80  357.10</time>
  <eigenvalues>
   <array>
    <dimension dim="1">band</dimension>
    <dimension dim="2">kpoint</dimension>
    <dimension dim="3">spin</dimension>
    <field>eigene</field>
    <field>occ</field>
    <set>
     <set comment="spin 1">
      <set comment="kpoint 1">
       <r>  -28.3778    1.0000 </r>
       <r>  -13.8757    1.0000 </r>
       <r>  -11.3852    1.0000 </r>
       <r>  -11.0964    1.0000 </r>
       <r>  -10.9848    1.0000 </r>
       <r>  -10.1976    1.0000 </r>
       <r>   -8.6696    1.0000 </r>
       <r>   -8.2336    1.0000 </r>
       <r>   -7.7365    1.0000 </r>
       <r>   -7.5810    1.0000 </r>
       <r>   -7.4595    1.0000 </r>
       <r>   -7.3678    1.0000 </r>
       <r>   -7.3355    1.0000 </r>
       <r>   -7.1896    1.0000 </r>
       <r>   -7.1228    1.0000 </r>
       <r>   -7.0388    1.0000 </r>
       <r>   -6.8468    1.0000 </r>
       <r>   -6.8019    1.0000 </r>
       <r>   -6.7423    1.0000 </r>
       <r>   -6.6606    1.0000 </r>
       <r>   -6.6225    1.0000 </r>
       <r>   -6.6078    1.0000 </r>
       <r>   -6.5423    1.0000 </r>
       <r>   -6.5248    1.0000 </r>
       <r>   -6.4848    1.0000 </r>
       <r>   -6.4302    1.0000 </r>
       <r>   -6.3913    1.0000 </r>
       <r>   -6.3444    1.0000 </r>
       <r>   -6.3151    1.0000 </r>
       <r>   -6.2452    1.0000 </r>
       <r>   -6.2205    1.0000 </r>
       <r>   -6.2084    1.0000 </r>
       <r>   -6.1429    1.0000 </r>
       <r>   -6.1057    1.0000 </r>
       <r>   -5.9865    1.0000 </r>
       <r>   -5.8839    1.0000 </r>
       <r>   -5.8308    1.0000 </r>
       <r>   -5.7716    1.0000 </r>
       <r>   -5.7467    1.0000 </r>
       <r>   -5.7007    1.0000 </r>
       <r>   -5.6291    1.0000 </r>
       <r>   -5.5717    1.0000 </r>
       <r>   -5.5614    1.0000 </r>
       <r>   -5.5249    1.0000 </r>
       <r>   -5.4856    1.0000 </r>
       <r>   -5.4315    1.0000 </r>
       <r>   -5.4092    1.0000 </r>
       <r>   -5.3846    1.0000 </r>
       <r>   -5.3734    1.0000 </r>
       <r>   -5.3689    1.0000 </r>
       <r>   -5.3138    1.0000 </r>
       <r>   -5.2889    1.0000 </r>
       <r>   -5.2637    1.0000 </r>
       <r>   -5.2534    1.0000 </r>
       <r>   -5.2079    1.0000 </r>
       <r>   -5.1781    1.0000 </r>
       <r>   -5.1658    1.0000 </r>
       <r>   -5.1508    1.0000 </r>
       <r>   -5.1305    1.0000 </r>
       <r>   -5.0921    1.0000 </r>
       <r>   -5.0745    1.0000 </r>
       <r>   -5.0346    1.0000 </r>
       <r>   -5.0272    1.0000 </r>
       <r>   -5.0036    1.0000 </r>
       <r>   -4.9546    1.0000 </r>
       <r>   -4.9269    1.0000 </r>
       <r>   -4.9061    1.0000 </r>
       <r>   -4.8909    1.0000 </r>
       <r>   -4.8891    1.0000 </r>
       <r>   -4.8341    1.0000 </r>
       <r>   -4.8055    1.0000 </r>
       <r>   -4.7810    1.0000 </r>
       <r>   -4.7365    1.0000 </r>
       <r>   -4.5380    1.0000 </r>
       <r>   -4.1973    1.0000 </r>
       <r>   -4.0869    1.0000 </r>
       <r>   -3.5615    1.0000 </r>
       <r>   -3.0363   -0.0000 </r>
       <r>   -2.8898   -0.0000 </r>
       <r>   -2.5437   -0.0000 </r>
       <r>   -2.3665   -0.0000 </r>
       <r>   -1.9321   -0.0000 </r>
       <r>   -1.8702   -0.0000 </r>
       <r>   -1.7306   -0.0000 </r>
       <r>   -1.3744   -0.0000 </r>
       <r>   -1.0841   -0.0000 </r>
       <r>   -0.9144   -0.0000 </r>
       <r>   -0.6912    0.0000 </r>
       <r>   -0.4287    0.0000 </r>
       <r>   -0.2378    0.0000 </r>
       <r>   -0.0862    0.0000 </r>
       <r>    0.0439    0.0000 </r>
      </set>
     </set>
     <set comment="spin 2">
      <set comment="kpoint 1">
       <r>  -28.3571    1.0000 </r>
       <r>  -13.8363    1.0000 </r>
       <r>  -11.3591    1.0000 </r>
       <r>  -11.0677    1.0000 </r>
       <r>  -10.9309    1.0000 </r>
       <r>  -10.1562    1.0000 </r>
       <r>   -8.6477    1.0000 </r>
       <r>   -8.1860    1.0000 </r>
       <r>   -7.6953    1.0000 </r>
       <r>   -7.5590    1.0000 </r>
       <r>   -7.4319    1.0000 </r>
       <r>   -7.3291    1.0000 </r>
       <r>   -7.2891    1.0000 </r>
       <r>   -7.1653    1.0000 </r>
       <r>   -7.0929    1.0000 </r>
       <r>   -7.0093    1.0000 </r>
       <r>   -6.8215    1.0000 </r>
       <r>   -6.7725    1.0000 </r>
       <r>   -6.7064    1.0000 </r>
       <r>   -6.6426    1.0000 </r>
       <r>   -6.6005    1.0000 </r>
       <r>   -6.5853    1.0000 </r>
       <r>   -6.5179    1.0000 </r>
       <r>   -6.4933    1.0000 </r>
       <r>   -6.4641    1.0000 </r>
       <r>   -6.4014    1.0000 </r>
       <r>   -6.3666    1.0000 </r>
       <r>   -6.3208    1.0000 </r>
       <r>   -6.2898    1.0000 </r>
       <r>   -6.2235    1.0000 </r>
       <r>   -6.1959    1.0000 </r>
       <r>   -6.1772    1.0000 </r>
       <r>   -6.1195    1.0000 </r>
       <r>   -6.0846    1.0000 </r>
       <r>   -5.9607    1.0000 </r>
       <r>   -5.8557    1.0000 </r>
       <r>   -5.7993    1.0000 </r>
       <r>   -5.7521    1.0000 </r>
       <r>   -5.7286    1.0000 </r>
       <r>   -5.6691    1.0000 </r>
       <r>   -5.6037    1.0000 </r>
       <r>   -5.5453    1.0000 </r>
       <r>   -5.5375    1.0000 </r>
       <r>   -5.4988    1.0000 </r>
       <r>   -5.4601    1.0000 </r>
       <r>   -5.4037    1.0000 </r>
       <r>   -5.3811    1.0000 </r>
       <r>   -5.3586    1.0000 </r>
       <r>   -5.3427    1.0000 </r>
       <r>   -5.3376    1.0000 </r>
       <r>   -5.2881    1.0000 </r>
       <r>   -5.2634    1.0000 </r>
       <r>   -5.2415    1.0000 </r>
       <r>   -5.2281    1.0000 </r>
       <r>   -5.1826    1.0000 </r>
       <r>   -5.1565    1.0000 </r>
       <r>   -5.1384    1.0000 </r>
       <r>   -5.1281    1.0000 </r>
       <r>   -5.1130    1.0000 </r>
       <r>   -5.0586    1.0000 </r>
       <r>   -5.0545    1.0000 </r>
       <r>   -5.0177    1.0000 </r>
       <r>   -5.0040    1.0000 </r>
       <r>   -4.9724    1.0000 </r>
       <r>   -4.9252    1.0000 </r>
       <r>   -4.9013    1.0000 </r>
       <r>   -4.8730    1.0000 </r>
       <r>   -4.8634    1.0000 </r>
       <r>   -4.8555    1.0000 </r>
       <r>   -4.8023    1.0000 </r>
       <r>   -4.7669    1.0000 </r>
       <r>   -4.7569    1.0000 </r>
       <r>   -4.7023    1.0000 </r>
       <r>   -4.4947    1.0000 </r>
       <r>   -4.1314    1.0239 </r>
       <r>   -4.0482    0.9761 </r>
       <r>   -3.3561   -0.0000 </r>
       <r>   -2.9846   -0.0000 </r>
       <r>   -2.8373   -0.0000 </r>
       <r>   -2.4642   -0.0000 </r>
       <r>   -2.2811   -0.0000 </r>
       <r>   -1.9012   -0.0000 </r>
       <r>   -1.7933   -0.0000 </r>
       <r>   -1.6619   -0.0000 </r>
       <r>   -1.2638   -0.0000 </r>
       <r>   -0.9560    0.0000 </r>
       <r>   -0.8351    0.0000 </r>
       <r>   -0.6229    0.0000 </r>
       <r>   -0.3138    0.0000 </r>
       <r>   -0.1859    0.0000 </r>
       <r>   -0.0307    0.0000 </r>
       <r>    0.0980    0.0000 </r>
      </set>
     </set>
    </set>
   </array>
  </eigenvalues>
  <separator name="orbital magnetization" >
   <v name="MAGDIPOLOUT">      0.00000000      0.00000000      0.00000000</v>
  </separator>
  <dos>
   <i name="efermi">     -3.97321317 </i>
   <total>
    <array>
     <dimension dim="1">gridpoints</dimension>
     <dimension dim="2">spin</dimension>
     <field>energy</field>
     <field>total</field>
     <field>integrated</field>
     <set>
      <set comment="spin 1">
       <r>   -29.8016     0.0000     0.0000 </r>
       <r>   -29.6972     0.0000     0.0000 </r>
       <r>   -29.5928     0.0000     0.0000 </r>
       <r>   -29.4884     0.0000     0.0000 </r>
       <r>   -29.3840     0.0000     0.0000 </r>
       <r>   -29.2796    -0.0000    -0.0000 </r>
       <r>   -29.1751    -0.0000    -0.0000 </r>
       <r>   -29.0707    -0.0000    -0.0000 </r>
       <r>   -28.9663    -0.0000    -0.0000 </r>
       <r>   -28.8619    -0.0000    -0.0000 </r>
       <r>   -28.7575    -0.0000    -0.0000 </r>
       <r>   -28.6531    -0.0067    -0.0007 </r>
       <r>   -28.5487    -0.3415    -0.0364 </r>
       <r>   -28.4443     1.3665     0.1063 </r>
       <r>   -28.3399    14.2497     1.5941 </r>
       <r>   -28.2354     4.4784     2.0617 </r>
       <r>   -28.1310    -0.5658     2.0027 </r>
       <r>   -28.0266    -0.0255     2.0000 </r>
       <r>   -27.9222    -0.0001     2.0000 </r>
       <r>   -27.8178    -0.0000     2.0000 </r>
       <r>   -27.7134    -0.0000     2.0000 </r>
       <r>   -27.6090     0.0000     2.0000 </r>
       <r>   -27.5046     0.0000     2.0000 </r>
       <r>   -27.4002     0.0000     2.0000 </r>
       <r>   -27.2957     0.0000     2.0000 </r>
       <r>   -27.1913     0.0000     2.0000 </r>
       <r>   -27.0869     0.0000     2.0000 </r>
       <r>   -26.9825     0.0000     2.0000 </r>
       <r>   -26.8781     0.0000     2.0000 </r>
       <r>   -26.7737     0.0000     2.0000 </r>
       <r>   -26.6693     0.0000     2.0000 </r>
       <r>   -26.5649     0.0000     2.0000 </r>
       <r>   -26.4604     0.0000     2.0000 </r>
       <r>   -26.3560     0.0000     2.0000 </r>
       <r>   -26.2516     0.0000     2.0000 </r>
       <r>   -26.1472     0.0000     2.0000 </r>
       <r>   -26.0428     0.0000     2.0000 </r>
       <r>   -25.9384     0.0000     2.0000 </r>
       <r>   -25.8340     0.0000     2.0000 </r>
       <r>   -25.7296     0.0000     2.0000 </r>
       <r>   -25.6252     0.0000     2.0000 </r>
       <r>   -25.5207     0.0000     2.0000 </r>
       <r>   -25.4163     0.0000     2.0000 </r>
       <r>   -25.3119     0.0000     2.0000 </r>
       <r>   -25.2075     0.0000     2.0000 </r>
       <r>   -25.1031     0.0000     2.0000 </r>
       <r>   -24.9987     0.0000     2.0000 </r>
       <r>   -24.8943     0.0000     2.0000 </r>
       <r>   -24.7899     0.0000     2.0000 </r>
       <r>   -24.6855     0.0000     2.0000 </r>
       <r>   -24.5810     0.0000     2.0000 </r>
       <r>   -24.4766     0.0000     2.0000 </r>
       <r>   -24.3722     0.0000     2.0000 </r>
       <r>   -24.2678     0.0000     2.0000 </r>
       <r>   -24.1634     0.0000     2.0000 </r>
       <r>   -24.0590     0.0000     2.0000 </r>
       <r>   -23.9546     0.0000     2.0000 </r>
       <r>   -23.8502     0.0000     2.0000 </r>
       <r>   -23.7458     0.0000     2.0000 </r>
       <r>   -23.6413     0.0000     2.0000 </r>
       <r>   -23.5369     0.0000     2.0000 </r>
       <r>   -23.4325     0.0000     2.0000 </r>
       <r>   -23.3281     0.0000     2.0000 </r>
       <r>   -23.2237     0.0000     2.0000 </r>
       <r>   -23.1193     0.0000     2.0000 </r>
       <r>   -23.0149     0.0000     2.0000 </r>
       <r>   -22.9105     0.0000     2.0000 </r>
       <r>   -22.8061     0.0000     2.0000 </r>
       <r>   -22.7016     0.0000     2.0000 </r>
       <r>   -22.5972     0.0000     2.0000 </r>
       <r>   -22.4928     0.0000     2.0000 </r>
       <r>   -22.3884     0.0000     2.0000 </r>
       <r>   -22.2840     0.0000     2.0000 </r>
       <r>   -22.1796     0.0000     2.0000 </r>
       <r>   -22.0752     0.0000     2.0000 </r>
       <r>   -21.9708     0.0000     2.0000 </r>
       <r>   -21.8664     0.0000     2.0000 </r>
       <r>   -21.7619     0.0000     2.0000 </r>
       <r>   -21.6575     0.0000     2.0000 </r>
       <r>   -21.5531     0.0000     2.0000 </r>
       <r>   -21.4487     0.0000     2.0000 </r>
       <r>   -21.3443     0.0000     2.0000 </r>
       <r>   -21.2399     0.0000     2.0000 </r>
       <r>   -21.1355     0.0000     2.0000 </r>
       <r>   -21.0311     0.0000     2.0000 </r>
       <r>   -20.9267     0.0000     2.0000 </r>
       <r>   -20.8222     0.0000     2.0000 </r>
       <r>   -20.7178     0.0000     2.0000 </r>
       <r>   -20.6134     0.0000     2.0000 </r>
       <r>   -20.5090     0.0000     2.0000 </r>
       <r>   -20.4046     0.0000     2.0000 </r>
       <r>   -20.3002     0.0000     2.0000 </r>
       <r>   -20.1958     0.0000     2.0000 </r>
       <r>   -20.0914     0.0000     2.0000 </r>
       <r>   -19.9870     0.0000     2.0000 </r>
       <r>   -19.8825     0.0000     2.0000 </r>
       <r>   -19.7781     0.0000     2.0000 </r>
       <r>   -19.6737     0.0000     2.0000 </r>
       <r>   -19.5693     0.0000     2.0000 </r>
       <r>   -19.4649     0.0000     2.0000 </r>
       <r>   -19.3605     0.0000     2.0000 </r>
       <r>   -19.2561     0.0000     2.0000 </r>
       <r>   -19.1517     0.0000     2.0000 </r>
       <r>   -19.0472     0.0000     2.0000 </r>
       <r>   -18.9428     0.0000     2.0000 </r>
       <r>   -18.8384     0.0000     2.0000 </r>
       <r>   -18.7340     0.0000     2.0000 </r>
       <r>   -18.6296     0.0000     2.0000 </r>
       <r>   -18.5252     0.0000     2.0000 </r>
       <r>   -18.4208     0.0000     2.0000 </r>
       <r>   -18.3164     0.0000     2.0000 </r>
       <r>   -18.2120     0.0000     2.0000 </r>
       <r>   -18.1075     0.0000     2.0000 </r>
       <r>   -18.0031     0.0000     2.0000 </r>
       <r>   -17.8987     0.0000     2.0000 </r>
       <r>   -17.7943     0.0000     2.0000 </r>
       <r>   -17.6899     0.0000     2.0000 </r>
       <r>   -17.5855     0.0000     2.0000 </r>
       <r>   -17.4811     0.0000     2.0000 </r>
       <r>   -17.3767     0.0000     2.0000 </r>
       <r>   -17.2723     0.0000     2.0000 </r>
       <r>   -17.1678     0.0000     2.0000 </r>
       <r>   -17.0634     0.0000     2.0000 </r>
       <r>   -16.9590     0.0000     2.0000 </r>
       <r>   -16.8546     0.0000     2.0000 </r>
       <r>   -16.7502     0.0000     2.0000 </r>
       <r>   -16.6458     0.0000     2.0000 </r>
       <r>   -16.5414     0.0000     2.0000 </r>
       <r>   -16.4370     0.0000     2.0000 </r>
       <r>   -16.3326     0.0000     2.0000 </r>
       <r>   -16.2281     0.0000     2.0000 </r>
       <r>   -16.1237     0.0000     2.0000 </r>
       <r>   -16.0193     0.0000     2.0000 </r>
       <r>   -15.9149     0.0000     2.0000 </r>
       <r>   -15.8105     0.0000     2.0000 </r>
       <r>   -15.7061     0.0000     2.0000 </r>
       <r>   -15.6017     0.0000     2.0000 </r>
       <r>   -15.4973     0.0000     2.0000 </r>
       <r>   -15.3929     0.0000     2.0000 </r>
       <r>   -15.2884     0.0000     2.0000 </r>
       <r>   -15.1840     0.0000     2.0000 </r>
       <r>   -15.0796     0.0000     2.0000 </r>
       <r>   -14.9752     0.0000     2.0000 </r>
       <r>   -14.8708     0.0000     2.0000 </r>
       <r>   -14.7664    -0.0000     2.0000 </r>
       <r>   -14.6620    -0.0000     2.0000 </r>
       <r>   -14.5576    -0.0000     2.0000 </r>
       <r>   -14.4532    -0.0000     2.0000 </r>
       <r>   -14.3487    -0.0000     2.0000 </r>
       <r>   -14.2443    -0.0000     2.0000 </r>
       <r>   -14.1399    -0.0115     1.9988 </r>
       <r>   -14.0355    -0.4321     1.9537 </r>
       <r>   -13.9311     2.3930     2.2035 </r>
       <r>   -13.8267    14.6140     3.7294 </r>
       <r>   -13.7223     3.0916     4.0522 </r>
       <r>   -13.6179    -0.4844     4.0016 </r>
       <r>   -13.5135    -0.0155     4.0000 </r>
       <r>   -13.4090    -0.0000     4.0000 </r>
       <r>   -13.3046    -0.0000     4.0000 </r>
       <r>   -13.2002    -0.0000     4.0000 </r>
       <r>   -13.0958     0.0000     4.0000 </r>
       <r>   -12.9914     0.0000     4.0000 </r>
       <r>   -12.8870     0.0000     4.0000 </r>
       <r>   -12.7826     0.0000     4.0000 </r>
       <r>   -12.6782     0.0000     4.0000 </r>
       <r>   -12.5738     0.0000     4.0000 </r>
       <r>   -12.4693     0.0000     4.0000 </r>
       <r>   -12.3649     0.0000     4.0000 </r>
       <r>   -12.2605    -0.0000     4.0000 </r>
       <r>   -12.1561    -0.0000     4.0000 </r>
       <r>   -12.0517    -0.0000     4.0000 </r>
       <r>   -11.9473    -0.0000     4.0000 </r>
       <r>   -11.8429    -0.0000     4.0000 </r>
       <r>   -11.7385    -0.0001     4.0000 </r>
       <r>   -11.6340    -0.0233     3.9976 </r>
       <r>   -11.5296    -0.5523     3.9399 </r>
       <r>   -11.4252     4.2076     4.3792 </r>
       <r>   -11.3208    14.2863     5.8709 </r>
       <r>   -11.2164     0.8763     5.9624 </r>
       <r>   -11.1120     6.7852     6.6708 </r>
       <r>   -11.0076    18.8954     8.6437 </r>
       <r>   -10.9032    13.0651    10.0078 </r>
       <r>   -10.7988     0.1611    10.0247 </r>
       <r>   -10.6943    -0.2332    10.0003 </r>
       <r>   -10.5899    -0.0030    10.0000 </r>
       <r>   -10.4855    -0.0035     9.9996 </r>
       <r>   -10.3811    -0.2480     9.9737 </r>
       <r>   -10.2767     0.4886    10.0248 </r>
       <r>   -10.1723    13.3061    11.4141 </r>
       <r>   -10.0679     6.2769    12.0694 </r>
       <r>    -9.9635    -0.6214    12.0046 </r>
       <r>    -9.8591    -0.0435    12.0000 </r>
       <r>    -9.7546    -0.0002    12.0000 </r>
       <r>    -9.6502    -0.0000    12.0000 </r>
       <r>    -9.5458    -0.0000    12.0000 </r>
       <r>    -9.4414    -0.0000    12.0000 </r>
       <r>    -9.3370    -0.0000    12.0000 </r>
       <r>    -9.2326    -0.0000    12.0000 </r>
       <r>    -9.1282    -0.0000    12.0000 </r>
       <r>    -9.0238    -0.0001    12.0000 </r>
       <r>    -8.9194    -0.0224    11.9977 </r>
       <r>    -8.8149    -0.5462    11.9406 </r>
       <r>    -8.7105     4.0923    12.3679 </r>
       <r>    -8.6061    14.3899    13.8704 </r>
       <r>    -8.5017     1.6046    14.0379 </r>
       <r>    -8.3973    -0.7649    13.9581 </r>
       <r>    -8.2929     1.9970    14.1666 </r>
       <r>    -8.1885    14.5380    15.6845 </r>
       <r>    -8.0841     3.5550    16.0557 </r>
       <r>    -7.9797    -0.5448    15.9988 </r>
       <r>    -7.8752    -0.6084    15.9353 </r>
       <r>    -7.7708     4.7721    16.4335 </r>
       <r>    -7.6664    14.0658    17.9022 </r>
       <r>    -7.5620    13.0760    19.2675 </r>
       <r>    -7.4576    16.6811    21.0091 </r>
       <r>    -7.3532    28.3410    23.9683 </r>
       <r>    -7.2488    21.1588    26.1775 </r>
       <r>    -7.1444    20.3076    28.2978 </r>
       <r>    -7.0400    25.9501    31.0073 </r>
       <r>    -6.9355     9.2732    31.9755 </r>
       <r>    -6.8311    16.7782    33.7274 </r>
       <r>    -6.7267    33.4605    37.2210 </r>
       <r>    -6.6223    39.5275    41.3481 </r>
       <r>    -6.5179    54.1656    47.0036 </r>
       <r>    -6.4135    47.6589    51.9797 </r>
       <r>    -6.3091    45.8897    56.7712 </r>
       <r>    -6.2047    52.0281    62.2035 </r>
       <r>    -6.1003    44.7431    66.8751 </r>
       <r>    -5.9958    19.0837    68.8677 </r>
       <r>    -5.8914    19.7056    70.9252 </r>
       <r>    -5.7870    36.8306    74.7707 </r>
       <r>    -5.6826    43.2170    79.2831 </r>
       <r>    -5.5782    40.7992    83.5429 </r>
       <r>    -5.4738    55.3076    89.3177 </r>
       <r>    -5.3694    73.0588    96.9458 </r>
       <r>    -5.2650    78.3901   105.1307 </r>
       <r>    -5.1605    80.7379   113.5606 </r>
       <r>    -5.0561    82.9856   122.2252 </r>
       <r>    -4.9517    74.2215   129.9748 </r>
       <r>    -4.8473    81.3137   138.4649 </r>
       <r>    -4.7429    58.3821   144.5606 </r>
       <r>    -4.6385    14.9356   146.1201 </r>
       <r>    -4.5341     9.2328   147.0841 </r>
       <r>    -4.4297     9.3344   148.0587 </r>
       <r>    -4.3253    -1.1701   147.9365 </r>
       <r>    -4.2208     5.8338   148.5456 </r>
       <r>    -4.1164    18.7907   150.5076 </r>
       <r>    -4.0120    14.0678   151.9764 </r>
       <r>    -3.9076     0.5106   152.0297 </r>
       <r>    -3.8032    -0.3124   151.9971 </r>
       <r>    -3.6988    -0.5993   151.9345 </r>
       <r>    -3.5944     5.1853   152.4760 </r>
       <r>    -3.4900    13.9305   153.9305 </r>
       <r>    -3.3856     0.9729   154.0320 </r>
       <r>    -3.2811    -0.3296   153.9976 </r>
       <r>    -3.1767    -0.5866   153.9364 </r>
       <r>    -3.0723     4.4916   154.4053 </r>
       <r>    -2.9679    14.6842   155.9385 </r>
       <r>    -2.8635    14.6071   157.4637 </r>
       <r>    -2.7591     5.7135   158.0603 </r>
       <r>    -2.6547    -1.1727   157.9378 </r>
       <r>    -2.5503     8.8558   158.8625 </r>
       <r>    -2.4459    11.5510   160.0685 </r>
       <r>    -2.3414    12.9839   161.4242 </r>
       <r>    -2.2370     6.1810   162.0695 </r>
       <r>    -2.1326    -0.7847   161.9876 </r>
       <r>    -2.0282    -0.7375   161.9106 </r>
       <r>    -1.9238    13.6996   163.3410 </r>
       <r>    -1.8194    23.5305   165.7978 </r>
       <r>    -1.7150    14.5867   167.3209 </r>
       <r>    -1.6106     7.1565   168.0681 </r>
       <r>    -1.5062    -1.2446   167.9381 </r>
       <r>    -1.4017     5.9159   168.5558 </r>
       <r>    -1.2973    13.3926   169.9541 </r>
       <r>    -1.1929     0.0855   169.9631 </r>
       <r>    -1.0885     8.8953   170.8918 </r>
       <r>    -0.9841    11.8818   172.1324 </r>
       <r>    -0.8797    13.4946   173.5414 </r>
       <r>    -0.7753     5.0137   174.0649 </r>
       <r>    -0.6709    12.1814   175.3368 </r>
       <r>    -0.5665     6.4057   176.0056 </r>
       <r>    -0.4620     4.4221   176.4674 </r>
       <r>    -0.3576    13.2940   177.8554 </r>
       <r>    -0.2532     8.4237   178.7349 </r>
       <r>    -0.1488    13.4243   180.1366 </r>
       <r>    -0.0444    14.4597   181.6463 </r>
       <r>     0.0600    16.1101   183.3284 </r>
       <r>     0.1644     7.1320   184.0731 </r>
       <r>     0.2688    -0.6366   184.0066 </r>
       <r>     0.3732    -0.0627   184.0000 </r>
       <r>     0.4777    -0.0003   184.0000 </r>
       <r>     0.5821    -0.0000   184.0000 </r>
       <r>     0.6865    -0.0000   184.0000 </r>
       <r>     0.7909     0.0000   184.0000 </r>
       <r>     0.8953     0.0000   184.0000 </r>
       <r>     0.9997     0.0000   184.0000 </r>
       <r>     1.1041     0.0000   184.0000 </r>
       <r>     1.2085     0.0000   184.0000 </r>
       <r>     1.3129     0.0000   184.0000 </r>
       <r>     1.4174     0.0000   184.0000 </r>
       <r>     1.5218     0.0000   184.0000 </r>
      </set>
      <set comment="spin 2">
       <r>   -29.8016     0.0000     0.0000 </r>
       <r>   -29.6972     0.0000     0.0000 </r>
       <r>   -29.5928     0.0000     0.0000 </r>
       <r>   -29.4884     0.0000     0.0000 </r>
       <r>   -29.3840     0.0000     0.0000 </r>
       <r>   -29.2796     0.0000     0.0000 </r>
       <r>   -29.1751    -0.0000    -0.0000 </r>
       <r>   -29.0707    -0.0000    -0.0000 </r>
       <r>   -28.9663    -0.0000    -0.0000 </r>
       <r>   -28.8619    -0.0000    -0.0000 </r>
       <r>   -28.7575    -0.0000    -0.0000 </r>
       <r>   -28.6531    -0.0022    -0.0002 </r>
       <r>   -28.5487    -0.1967    -0.0208 </r>
       <r>   -28.4443     0.0793    -0.0125 </r>
       <r>   -28.3399    12.4418     1.2866 </r>
       <r>   -28.2354     7.5118     2.0709 </r>
       <r>   -28.1310    -0.6185     2.0063 </r>
       <r>   -28.0266    -0.0602     2.0000 </r>
       <r>   -27.9222    -0.0003     2.0000 </r>
       <r>   -27.8178    -0.0000     2.0000 </r>
       <r>   -27.7134    -0.0000     2.0000 </r>
       <r>   -27.6090     0.0000     2.0000 </r>
       <r>   -27.5046     0.0000     2.0000 </r>
       <r>   -27.4002     0.0000     2.0000 </r>
       <r>   -27.2957     0.0000     2.0000 </r>
       <r>   -27.1913     0.0000     2.0000 </r>
       <r>   -27.0869     0.0000     2.0000 </r>
       <r>   -26.9825     0.0000     2.0000 </r>
       <r>   -26.8781     0.0000     2.0000 </r>
       <r>   -26.7737     0.0000     2.0000 </r>
       <r>   -26.6693     0.0000     2.0000 </r>
       <r>   -26.5649     0.0000     2.0000 </r>
       <r>   -26.4604     0.0000     2.0000 </r>
       <r>   -26.3560     0.0000     2.0000 </r>
       <r>   -26.2516     0.0000     2.0000 </r>
       <r>   -26.1472     0.0000     2.0000 </r>
       <r>   -26.0428     0.0000     2.0000 </r>
       <r>   -25.9384     0.0000     2.0000 </r>
       <r>   -25.8340     0.0000     2.0000 </r>
       <r>   -25.7296     0.0000     2.0000 </r>
       <r>   -25.6252     0.0000     2.0000 </r>
       <r>   -25.5207     0.0000     2.0000 </r>
       <r>   -25.4163     0.0000     2.0000 </r>
       <r>   -25.3119     0.0000     2.0000 </r>
       <r>   -25.2075     0.0000     2.0000 </r>
       <r>   -25.1031     0.0000     2.0000 </r>
       <r>   -24.9987     0.0000     2.0000 </r>
       <r>   -24.8943     0.0000     2.0000 </r>
       <r>   -24.7899     0.0000     2.0000 </r>
       <r>   -24.6855     0.0000     2.0000 </r>
       <r>   -24.5810     0.0000     2.0000 </r>
       <r>   -24.4766     0.0000     2.0000 </r>
       <r>   -24.3722     0.0000     2.0000 </r>
       <r>   -24.2678     0.0000     2.0000 </r>
       <r>   -24.1634     0.0000     2.0000 </r>
       <r>   -24.0590     0.0000     2.0000 </r>
       <r>   -23.9546     0.0000     2.0000 </r>
       <r>   -23.8502     0.0000     2.0000 </r>
       <r>   -23.7458     0.0000     2.0000 </r>
       <r>   -23.6413     0.0000     2.0000 </r>
       <r>   -23.5369     0.0000     2.0000 </r>
       <r>   -23.4325     0.0000     2.0000 </r>
       <r>   -23.3281     0.0000     2.0000 </r>
       <r>   -23.2237     0.0000     2.0000 </r>
       <r>   -23.1193     0.0000     2.0000 </r>
       <r>   -23.0149     0.0000     2.0000 </r>
       <r>   -22.9105     0.0000     2.0000 </r>
       <r>   -22.8061     0.0000     2.0000 </r>
       <r>   -22.7016     0.0000     2.0000 </r>
       <r>   -22.5972     0.0000     2.0000 </r>
       <r>   -22.4928     0.0000     2.0000 </r>
       <r>   -22.3884     0.0000     2.0000 </r>
       <r>   -22.2840     0.0000     2.0000 </r>
       <r>   -22.1796     0.0000     2.0000 </r>
       <r>   -22.0752     0.0000     2.0000 </r>
       <r>   -21.9708     0.0000     2.0000 </r>
       <r>   -21.8664     0.0000     2.0000 </r>
       <r>   -21.7619     0.0000     2.0000 </r>
       <r>   -21.6575     0.0000     2.0000 </r>
       <r>   -21.5531     0.0000     2.0000 </r>
       <r>   -21.4487     0.0000     2.0000 </r>
       <r>   -21.3443     0.0000     2.0000 </r>
       <r>   -21.2399     0.0000     2.0000 </r>
       <r>   -21.1355     0.0000     2.0000 </r>
       <r>   -21.0311     0.0000     2.0000 </r>
       <r>   -20.9267     0.0000     2.0000 </r>
       <r>   -20.8222     0.0000     2.0000 </r>
       <r>   -20.7178     0.0000     2.0000 </r>
       <r>   -20.6134     0.0000     2.0000 </r>
       <r>   -20.5090     0.0000     2.0000 </r>
       <r>   -20.4046     0.0000     2.0000 </r>
       <r>   -20.3002     0.0000     2.0000 </r>
       <r>   -20.1958     0.0000     2.0000 </r>
       <r>   -20.0914     0.0000     2.0000 </r>
       <r>   -19.9870     0.0000     2.0000 </r>
       <r>   -19.8825     0.0000     2.0000 </r>
       <r>   -19.7781     0.0000     2.0000 </r>
       <r>   -19.6737     0.0000     2.0000 </r>
       <r>   -19.5693     0.0000     2.0000 </r>
       <r>   -19.4649     0.0000     2.0000 </r>
       <r>   -19.3605     0.0000     2.0000 </r>
       <r>   -19.2561     0.0000     2.0000 </r>
       <r>   -19.1517     0.0000     2.0000 </r>
       <r>   -19.0472     0.0000     2.0000 </r>
       <r>   -18.9428     0.0000     2.0000 </r>
       <r>   -18.8384     0.0000     2.0000 </r>
       <r>   -18.7340     0.0000     2.0000 </r>
       <r>   -18.6296     0.0000     2.0000 </r>
       <r>   -18.5252     0.0000     2.0000 </r>
       <r>   -18.4208     0.0000     2.0000 </r>
       <r>   -18.3164     0.0000     2.0000 </r>
       <r>   -18.2120     0.0000     2.0000 </r>
       <r>   -18.1075     0.0000     2.0000 </r>
       <r>   -18.0031     0.0000     2.0000 </r>
       <r>   -17.8987     0.0000     2.0000 </r>
       <r>   -17.7943     0.0000     2.0000 </r>
       <r>   -17.6899     0.0000     2.0000 </r>
       <r>   -17.5855     0.0000     2.0000 </r>
       <r>   -17.4811     0.0000     2.0000 </r>
       <r>   -17.3767     0.0000     2.0000 </r>
       <r>   -17.2723     0.0000     2.0000 </r>
       <r>   -17.1678     0.0000     2.0000 </r>
       <r>   -17.0634     0.0000     2.0000 </r>
       <r>   -16.9590     0.0000     2.0000 </r>
       <r>   -16.8546     0.0000     2.0000 </r>
       <r>   -16.7502     0.0000     2.0000 </r>
       <r>   -16.6458     0.0000     2.0000 </r>
       <r>   -16.5414     0.0000     2.0000 </r>
       <r>   -16.4370     0.0000     2.0000 </r>
       <r>   -16.3326     0.0000     2.0000 </r>
       <r>   -16.2281     0.0000     2.0000 </r>
       <r>   -16.1237     0.0000     2.0000 </r>
       <r>   -16.0193     0.0000     2.0000 </r>
       <r>   -15.9149     0.0000     2.0000 </r>
       <r>   -15.8105     0.0000     2.0000 </r>
       <r>   -15.7061     0.0000     2.0000 </r>
       <r>   -15.6017     0.0000     2.0000 </r>
       <r>   -15.4973     0.0000     2.0000 </r>
       <r>   -15.3929     0.0000     2.0000 </r>
       <r>   -15.2884     0.0000     2.0000 </r>
       <r>   -15.1840     0.0000     2.0000 </r>
       <r>   -15.0796     0.0000     2.0000 </r>
       <r>   -14.9752     0.0000     2.0000 </r>
       <r>   -14.8708     0.0000     2.0000 </r>
       <r>   -14.7664     0.0000     2.0000 </r>
       <r>   -14.6620    -0.0000     2.0000 </r>
       <r>   -14.5576    -0.0000     2.0000 </r>
       <r>   -14.4532    -0.0000     2.0000 </r>
       <r>   -14.3487    -0.0000     2.0000 </r>
       <r>   -14.2443    -0.0000     2.0000 </r>
       <r>   -14.1399    -0.0015     1.9998 </r>
       <r>   -14.0355    -0.1554     1.9836 </r>
       <r>   -13.9311    -0.2054     1.9622 </r>
       <r>   -13.8267    11.4832     3.1612 </r>
       <r>   -13.7223     8.6894     4.0684 </r>
       <r>   -13.6179    -0.5745     4.0084 </r>
       <r>   -13.5135    -0.0804     4.0000 </r>
       <r>   -13.4090    -0.0005     4.0000 </r>
       <r>   -13.3046    -0.0000     4.0000 </r>
       <r>   -13.2002    -0.0000     4.0000 </r>
       <r>   -13.0958     0.0000     4.0000 </r>
       <r>   -12.9914     0.0000     4.0000 </r>
       <r>   -12.8870     0.0000     4.0000 </r>
       <r>   -12.7826     0.0000     4.0000 </r>
       <r>   -12.6782     0.0000     4.0000 </r>
       <r>   -12.5738     0.0000     4.0000 </r>
       <r>   -12.4693     0.0000     4.0000 </r>
       <r>   -12.3649     0.0000     4.0000 </r>
       <r>   -12.2605    -0.0000     4.0000 </r>
       <r>   -12.1561    -0.0000     4.0000 </r>
       <r>   -12.0517    -0.0000     4.0000 </r>
       <r>   -11.9473    -0.0000     4.0000 </r>
       <r>   -11.8429    -0.0000     4.0000 </r>
       <r>   -11.7385    -0.0000     4.0000 </r>
       <r>   -11.6340    -0.0068     3.9993 </r>
       <r>   -11.5296    -0.3438     3.9634 </r>
       <r>   -11.4252     1.3905     4.1086 </r>
       <r>   -11.3208    14.2459     5.5960 </r>
       <r>   -11.2164     3.9138     6.0047 </r>
       <r>   -11.1120     2.8303     6.3002 </r>
       <r>   -11.0076    15.1189     7.8788 </r>
       <r>   -10.9032    15.4470     9.4916 </r>
       <r>   -10.7988     5.5335    10.0694 </r>
       <r>   -10.6943    -0.6247    10.0041 </r>
       <r>   -10.5899    -0.0395    10.0000 </r>
       <r>   -10.4855    -0.0005    10.0000 </r>
       <r>   -10.3811    -0.0628     9.9934 </r>
       <r>   -10.2767    -0.6148     9.9292 </r>
       <r>   -10.1723     7.6846    10.7316 </r>
       <r>   -10.0679    12.3090    12.0168 </r>
       <r>    -9.9635     0.0317    12.0201 </r>
       <r>    -9.8591    -0.1902    12.0002 </r>
       <r>    -9.7546    -0.0021    12.0000 </r>
       <r>    -9.6502    -0.0000    12.0000 </r>
       <r>    -9.5458    -0.0000    12.0000 </r>
       <r>    -9.4414    -0.0000    12.0000 </r>
       <r>    -9.3370    -0.0000    12.0000 </r>
       <r>    -9.2326    -0.0000    12.0000 </r>
       <r>    -9.1282    -0.0000    12.0000 </r>
       <r>    -9.0238    -0.0000    12.0000 </r>
       <r>    -8.9194    -0.0080    11.9992 </r>
       <r>    -8.8149    -0.3706    11.9605 </r>
       <r>    -8.7105     1.6754    12.1354 </r>
       <r>    -8.6061    14.4187    13.6409 </r>
       <r>    -8.5017     4.0019    14.0587 </r>
       <r>    -8.3973    -0.6452    13.9914 </r>
       <r>    -8.2929    -0.5083    13.9383 </r>
       <r>    -8.1885     9.7709    14.9585 </r>
       <r>    -8.0841    10.4932    16.0541 </r>
       <r>    -7.9797    -0.3982    16.0125 </r>
       <r>    -7.8752    -0.3966    15.9711 </r>
       <r>    -7.7708     0.6021    16.0340 </r>
       <r>    -7.6664    13.0863    17.4003 </r>
       <r>    -7.5620    14.7673    18.9422 </r>
       <r>    -7.4576    15.2013    20.5294 </r>
       <r>    -7.3532    20.7240    22.6932 </r>
       <r>    -7.2488    27.6826    25.5836 </r>
       <r>    -7.1444    19.3966    27.6088 </r>
       <r>    -7.0400    26.1825    30.3425 </r>
       <r>    -6.9355    14.7333    31.8809 </r>
       <r>    -6.8311    10.1520    32.9408 </r>
       <r>    -6.7267    31.6309    36.2435 </r>
       <r>    -6.6223    38.6613    40.2801 </r>
       <r>    -6.5179    51.5092    45.6583 </r>
       <r>    -6.4135    49.2840    50.8041 </r>
       <r>    -6.3091    46.3382    55.6423 </r>
       <r>    -6.2047    49.1994    60.7793 </r>
       <r>    -6.1003    50.9304    66.0970 </r>
       <r>    -5.9958    22.9881    68.4972 </r>
       <r>    -5.8914    16.6117    70.2317 </r>
       <r>    -5.7870    32.9310    73.6700 </r>
       <r>    -5.6826    44.8794    78.3559 </r>
       <r>    -5.5782    37.4822    82.2695 </r>
       <r>    -5.4738    53.6475    87.8709 </r>
       <r>    -5.3694    64.0805    94.5616 </r>
       <r>    -5.2650    82.8498   103.2121 </r>
       <r>    -5.1605    79.7803   111.5421 </r>
       <r>    -5.0561    84.8691   120.4033 </r>
       <r>    -4.9517    72.0176   127.9228 </r>
       <r>    -4.8473    77.4481   136.0093 </r>
       <r>    -4.7429    68.1108   143.1208 </r>
       <r>    -4.6385    27.7348   146.0166 </r>
       <r>    -4.5341     4.0438   146.4388 </r>
       <r>    -4.4297    13.8329   147.8831 </r>
       <r>    -4.3253     1.2878   148.0176 </r>
       <r>    -4.2208    -0.6955   147.9450 </r>
       <r>    -4.1164    13.3849   149.3425 </r>
       <r>    -4.0120    22.0109   151.6407 </r>
       <r>    -3.9076     4.1118   152.0700 </r>
       <r>    -3.8032    -0.6425   152.0029 </r>
       <r>    -3.6988    -0.0280   152.0000 </r>
       <r>    -3.5944    -0.0367   151.9962 </r>
       <r>    -3.4900    -0.6095   151.9325 </r>
       <r>    -3.3856     5.6641   152.5239 </r>
       <r>    -3.2811    13.6724   153.9515 </r>
       <r>    -3.1767     0.5501   154.0089 </r>
       <r>    -3.0723    -0.2606   153.9817 </r>
       <r>    -2.9679    11.7611   155.2097 </r>
       <r>    -2.8635    13.7309   156.6434 </r>
       <r>    -2.7591    12.7698   157.9767 </r>
       <r>    -2.6547     0.2759   158.0055 </r>
       <r>    -2.5503    -0.1351   157.9914 </r>
       <r>    -2.4459    12.1751   159.2626 </r>
       <r>    -2.3414     9.2457   160.2279 </r>
       <r>    -2.2370    13.8860   161.6778 </r>
       <r>    -2.1326     3.5796   162.0515 </r>
       <r>    -2.0282    -1.1901   161.9273 </r>
       <r>    -1.9238     6.0416   162.5581 </r>
       <r>    -1.8194    18.7445   164.5152 </r>
       <r>    -1.7150    16.3503   166.2224 </r>
       <r>    -1.6106    14.9348   167.7818 </r>
       <r>    -1.5062     2.5424   168.0472 </r>
       <r>    -1.4017    -1.0610   167.9364 </r>
       <r>    -1.2973     5.0807   168.4669 </r>
       <r>    -1.1929    13.9365   169.9220 </r>
       <r>    -1.0885     0.3861   169.9623 </r>
       <r>    -0.9841     5.0487   170.4895 </r>
       <r>    -0.8797    17.1581   172.2810 </r>
       <r>    -0.7753    14.6809   173.8138 </r>
       <r>    -0.6709     4.8951   174.3249 </r>
       <r>    -0.5665    14.1806   175.8056 </r>
       <r>    -0.4620     1.7457   175.9878 </r>
       <r>    -0.3576     2.9596   176.2968 </r>
       <r>    -0.2532    15.7165   177.9378 </r>
       <r>    -0.1488    15.4533   179.5513 </r>
       <r>    -0.0444    11.6972   180.7726 </r>
       <r>     0.0600    15.9112   182.4340 </r>
       <r>     0.1644    14.1591   183.9123 </r>
       <r>     0.2688     1.1897   184.0365 </r>
       <r>     0.3732    -0.3433   184.0007 </r>
       <r>     0.4777    -0.0067   184.0000 </r>
       <r>     0.5821    -0.0000   184.0000 </r>
       <r>     0.6865    -0.0000   184.0000 </r>
       <r>     0.7909    -0.0000   184.0000 </r>
       <r>     0.8953     0.0000   184.0000 </r>
       <r>     0.9997     0.0000   184.0000 </r>
       <r>     1.1041     0.0000   184.0000 </r>
       <r>     1.2085     0.0000   184.0000 </r>
       <r>     1.3129     0.0000   184.0000 </r>
       <r>     1.4174     0.0000   184.0000 </r>
       <r>     1.5218     0.0000   184.0000 </r>
      </set>
     </set>
    </array>
   </total>
  </dos>
 </calculation>
 <structure name="finalpos" >
  <crystal>
   <varray name="basis" >
    <v>      15.00000000       0.00000000       0.00000000 </v>
    <v>       0.00000000      15.00000000       0.00000000 </v>
    <v>       0.00000000       0.00000000      15.00000000 </v>
   </varray>
   <i name="volume">   3375.00000000 </i>
   <varray name="rec_basis" >
    <v>       0.06666667       0.00000000       0.00000000 </v>
    <v>       0.00000000       0.06666667       0.00000000 </v>
    <v>       0.00000000       0.00000000       0.06666667 </v>
   </varray>
  </crystal>
  <varray name="positions" >
   <v>       0.29193867       0.42006933       0.55478667 </v>
   <v>       0.37924867       0.54971133       0.49385933 </v>
   <v>       0.39391200       0.29650667       0.56043400 </v>
   <v>       0.53284600       0.50269467       0.48112933 </v>
   <v>       0.54504200       0.34736467       0.53066400 </v>
   <v>       0.44266533       0.43744733       0.61180533 </v>
   <v>       0.42028533       0.39623267       0.44123667 </v>
   <v>       0.22486133       0.56344533       0.54827000 </v>
   <v>       0.33345600       0.54303667       0.66215533 </v>
   <v>       0.35532000       0.68295333       0.56523600 </v>
   <v>       0.48804533       0.66727333       0.47808733 </v>
   <v>       0.62605133       0.48675267       0.60723400 </v>
   <v>       0.48520800       0.59385067       0.61694667 </v>
   <v>       0.73557333       0.49328533       0.65101800 </v>
   <v>       0.81243333       0.49129067       0.65842867 </v>
  </varray>
 </structure>
</modeling>
