<?xml version="1.0" encoding="ISO-8859-1"?>
<modeling>
 <generator>
  <i name="program" type="string">vasp </i>
  <i name="version" type="string">5.4.4.18Apr17-6-g9f103f2a35  </i>
  <i name="subversion" type="string">(build May 08 2019 13:49:07) complex            parallel </i>
  <i name="platform" type="string">LinuxIFC </i>
  <i name="date" type="string">2019 11 13 </i>
  <i name="time" type="string">11:53:26 </i>
 </generator>
 <incar>
  <i type="string" name="SYSTEM"> CuCO</i>
  <i type="int" name="ISTART">     0</i>
  <i type="string" name="PREC">accurate</i>
  <i type="string" name="ALGO"> Fast</i>
  <i type="int" name="ISPIN">     2</i>
  <i type="int" name="INIWAV">     1</i>
  <i type="int" name="NELM">   300</i>
  <i type="int" name="NELMIN">     3</i>
  <i type="int" name="IBRION">    -1</i>
  <i name="EDIFF">      0.00000010</i>
  <i name="EDIFFG">     -0.00100000</i>
  <i type="int" name="NSW">     0</i>
  <i type="int" name="ISYM">     0</i>
  <i name="ENCUT">    600.00000000</i>
  <i name="NUPDOWN">      1.00000000</i>
  <i type="logical" name="LREAL"> F  </i>
  <i type="int" name="ISMEAR">     1</i>
  <i name="SIGMA">      0.10000000</i>
  <i name="KSPACING">      0.50000000</i>
  <i type="logical" name="KGAMMA"> F  </i>
  <i type="logical" name="LWAVE"> F  </i>
  <i type="logical" name="LCHARG"> F  </i>
  <v type="int" name="KPOINT_BSE">    -1     0     0     0</v>
  <i type="int" name="NELM">   300</i>
  <i type="string" name="GGA"> PE</i>
 </incar>
 <structure name="primitive_cell" >
  <crystal>
   <varray name="basis" >
    <v>      15.00000000       0.00000000       0.00000000 </v>
    <v>       0.00000000      15.00000000       0.00000000 </v>
    <v>       0.00000000       0.00000000      15.00000000 </v>
   </varray>
   <i name="volume">   3375.00000000 </i>
   <varray name="rec_basis" >
    <v>       0.06666667       0.00000000       0.00000000 </v>
    <v>       0.00000000       0.06666667       0.00000000 </v>
    <v>       0.00000000       0.00000000       0.06666667 </v>
   </varray>
  </crystal>
  <varray name="positions" >
   <v>       0.29224600       0.41698933      -0.44198467 </v>
   <v>       0.39146933       0.29428400      -0.43775867 </v>
   <v>       0.41631267       0.39802667       0.45176733 </v>
   <v>       0.33567467      -0.45176000      -0.35160133 </v>
   <v>       0.22497800      -0.42930400      -0.45458333 </v>
   <v>       0.37923400      -0.45038133       0.49181533 </v>
   <v>       0.45312067       0.43803600      -0.38370333 </v>
   <v>       0.48190000      -0.40506733      -0.38640600 </v>
   <v>      -0.46581000      -0.49945333       0.48116000 </v>
   <v>      -0.44852667       0.34279600      -0.47042733 </v>
   <v>       0.35696200      -0.31178000      -0.43213400 </v>
   <v>      -0.38553333       0.47328067      -0.38257333 </v>
   <v>       0.48974533      -0.32961333       0.47246267 </v>
   <v>      -0.27039333       0.49136667      -0.34904267 </v>
   <v>      -0.19456667       0.49782000      -0.35816267 </v>
  </varray>
 </structure>
 <varray name="primitive_index" >
  <v type="int" >        1 </v>
  <v type="int" >        3 </v>
  <v type="int" >        7 </v>
  <v type="int" >        9 </v>
  <v type="int" >        8 </v>
  <v type="int" >        2 </v>
  <v type="int" >        6 </v>
  <v type="int" >       13 </v>
  <v type="int" >        4 </v>
  <v type="int" >        5 </v>
  <v type="int" >       10 </v>
  <v type="int" >       12 </v>
  <v type="int" >       11 </v>
  <v type="int" >       14 </v>
  <v type="int" >       15 </v>
 </varray>
 <kpoints>
  <generation param="Monkhorst-Pack">
   <v type="int" name="divisions">       1        1        1 </v>
   <v name="usershift">      0.00000000       0.00000000       0.00000000 </v>
   <v name="genvec1">      1.00000000       0.00000000       0.00000000 </v>
   <v name="genvec2">      0.00000000       1.00000000       0.00000000 </v>
   <v name="genvec3">      0.00000000       0.00000000       1.00000000 </v>
   <v name="shift">      0.00000000       0.00000000       0.00000000 </v>
  </generation>
  <varray name="kpointlist" >
   <v>       0.00000000       0.00000000       0.00000000 </v>
  </varray>
  <varray name="weights" >
   <v>       1.00000000 </v>
  </varray>
 </kpoints>
 <parameters>
  <separator name="general" >
   <i type="string" name="SYSTEM">CuCO</i>
   <i type="logical" name="LCOMPAT"> F  </i>
  </separator>
  <separator name="electronic" >
   <i type="string" name="PREC">accura</i>
   <i name="ENMAX">    600.00000000</i>
   <i name="ENAUG">    644.87300000</i>
   <i name="EDIFF">      0.00000010</i>
   <i type="int" name="IALGO">    68</i>
   <i type="int" name="IWAVPR">    10</i>
   <i type="int" name="NBANDS">    92</i>
   <i name="NELECT">    153.00000000</i>
   <i type="int" name="TURBO">     0</i>
   <i type="int" name="IRESTART">     0</i>
   <i type="int" name="NREBOOT">     0</i>
   <i type="int" name="NMIN">     0</i>
   <i name="EREF">      0.00000000</i>
   <separator name="electronic smearing" >
    <i type="int" name="ISMEAR">     1</i>
    <i name="SIGMA">      0.10000000</i>
    <i name="KSPACING">      0.50000000</i>
    <i type="logical" name="KGAMMA"> F  </i>
   </separator>
   <separator name="electronic projectors" >
    <i type="logical" name="LREAL"> F  </i>
    <v name="ROPT">      0.00000000      0.00000000      0.00000000</v>
    <i type="int" name="LMAXPAW">  -100</i>
    <i type="int" name="LMAXMIX">     2</i>
    <i type="logical" name="NLSPLINE"> F  </i>
   </separator>
   <separator name="electronic startup" >
    <i type="int" name="ISTART">     0</i>
    <i type="int" name="ICHARG">     2</i>
    <i type="int" name="INIWAV">     1</i>
   </separator>
   <separator name="electronic spin" >
    <i type="int" name="ISPIN">     2</i>
    <i type="logical" name="LNONCOLLINEAR"> F  </i>
    <v name="MAGMOM">      0.06666667      0.06666667      0.06666667      0.06666667      0.06666667      0.06666667      0.06666667      0.06666667      0.06666667      0.06666667      0.06666667      0.06666667      0.06666667      0.06666667      0.06666667</v>
    <i name="NUPDOWN">      1.00000000</i>
    <i type="logical" name="LSORBIT"> F  </i>
    <v name="SAXIS">      0.00000000      0.00000000      1.00000000</v>
    <i type="logical" name="LSPIRAL"> F  </i>
    <v name="QSPIRAL">      0.00000000      0.00000000      0.00000000</v>
    <i type="logical" name="LZEROZ"> F  </i>
   </separator>
   <separator name="electronic exchange-correlation" >
    <i type="logical" name="LASPH"> F  </i>
    <i type="logical" name="LMETAGGA"> F  </i>
   </separator>
   <separator name="electronic convergence" >
    <i type="int" name="NELM">   300</i>
    <i type="int" name="NELMDL">    -5</i>
    <i type="int" name="NELMIN">     3</i>
    <i name="ENINI">    600.00000000</i>
    <separator name="electronic convergence detail" >
     <i type="logical" name="LDIAG"> T  </i>
     <i type="logical" name="LSUBROT"> F  </i>
     <i name="WEIMIN">      0.00000000</i>
     <i name="EBREAK">      0.00000000</i>
     <i name="DEPER">      0.30000000</i>
     <i type="int" name="NRMM">     4</i>
     <i name="TIME">      0.40000000</i>
    </separator>
   </separator>
   <separator name="electronic mixer" >
    <i name="AMIX">      0.40000000</i>
    <i name="BMIX">      1.00000000</i>
    <i name="AMIN">      0.10000000</i>
    <i name="AMIX_MAG">      1.60000000</i>
    <i name="BMIX_MAG">      1.00000000</i>
    <separator name="electronic mixer details" >
     <i type="int" name="IMIX">     4</i>
     <i type="logical" name="MIXFIRST"> F  </i>
     <i type="int" name="MAXMIX">   -45</i>
     <i name="WC">    100.00000000</i>
     <i type="int" name="INIMIX">     1</i>
     <i type="int" name="MIXPRE">     1</i>
     <i type="int" name="MREMOVE">     5</i>
    </separator>
   </separator>
   <separator name="electronic dipolcorrection" >
    <i type="logical" name="LDIPOL"> F  </i>
    <i type="logical" name="LMONO"> F  </i>
    <i type="int" name="IDIPOL">     0</i>
    <i name="EPSILON">      1.00000000</i>
    <v name="DIPOL">   -100.00000000   -100.00000000   -100.00000000</v>
    <i name="EFIELD">      0.00000000</i>
   </separator>
  </separator>
  <separator name="grids" >
   <i type="int" name="NGX">   120</i>
   <i type="int" name="NGY">   120</i>
   <i type="int" name="NGZ">   120</i>
   <i type="int" name="NGXF">   240</i>
   <i type="int" name="NGYF">   240</i>
   <i type="int" name="NGZF">   240</i>
   <i type="logical" name="ADDGRID"> F  </i>
  </separator>
  <separator name="ionic" >
   <i type="int" name="NSW">     0</i>
   <i type="int" name="IBRION">    -1</i>
   <i type="int" name="MDALGO">     0</i>
   <i type="int" name="ISIF">     2</i>
   <i name="PSTRESS">      0.00000000</i>
   <i name="EDIFFG">     -0.00100000</i>
   <i type="int" name="NFREE">     0</i>
   <i name="POTIM">      0.50000000</i>
   <i name="SMASS">     -3.00000000</i>
   <i name="SCALEE">      1.00000000</i>
  </separator>
  <separator name="ionic md" >
   <i name="TEBEG">      0.00010000</i>
   <i name="TEEND">      0.00010000</i>
   <i type="int" name="NBLOCK">     1</i>
   <i type="int" name="KBLOCK">     1</i>
   <i type="int" name="NPACO">   256</i>
   <i name="APACO">     16.00000000</i>
  </separator>
  <separator name="symmetry" >
   <i type="int" name="ISYM">     0</i>
   <i name="SYMPREC">      0.00001000</i>
  </separator>
  <separator name="dos" >
   <i type="int" name="LORBIT">     0</i>
   <v name="RWIGS">     -1.00000000     -1.00000000     -1.00000000</v>
   <i type="int" name="NEDOS">   301</i>
   <i name="EMIN">     10.00000000</i>
   <i name="EMAX">    -10.00000000</i>
   <i name="EFERMI">      0.00000000</i>
  </separator>
  <separator name="writing" >
   <i type="int" name="NWRITE">     2</i>
   <i type="logical" name="LWAVE"> F  </i>
   <i type="logical" name="LDOWNSAMPLE"> F  </i>
   <i type="logical" name="LCHARG"> F  </i>
   <i type="logical" name="LPARD"> F  </i>
   <i type="logical" name="LVTOT"> F  </i>
   <i type="logical" name="LVHAR"> F  </i>
   <i type="logical" name="LELF"> F  </i>
   <i type="logical" name="LOPTICS"> F  </i>
   <v name="STM">      0.00000000      0.00000000      0.00000000      0.00000000      0.00000000      0.00000000      0.00000000</v>
  </separator>
  <separator name="performance" >
   <i type="int" name="NPAR">     4</i>
   <i type="int" name="NSIM">     4</i>
   <i type="int" name="NBLK">    -1</i>
   <i type="logical" name="LPLANE"> T  </i>
   <i type="logical" name="LSCALAPACK"> T  </i>
   <i type="logical" name="LSCAAWARE"> F  </i>
   <i type="logical" name="LSCALU"> F  </i>
   <i type="logical" name="LASYNC"> F  </i>
   <i type="logical" name="LORBITALREAL"> F  </i>
  </separator>
  <separator name="miscellaneous" >
   <i type="int" name="IDIOT">     3</i>
   <i type="int" name="ISPECIAL">     0</i>
   <i type="logical" name="LMUSIC"> F  </i>
   <v name="POMASS">     63.54600000     12.01100000     16.00000000</v>
   <v name="DARWINR">      0.00000000      0.00000000      0.00000000</v>
   <v name="DARWINV">      1.00000000      1.00000000      1.00000000</v>
   <i type="logical" name="LCORR"> T  </i>
  </separator>
  <i type="logical" name="GGA_COMPAT"> T  </i>
  <i type="logical" name="LBERRY"> F  </i>
  <i type="int" name="ICORELEVEL">     0</i>
  <i type="logical" name="LDAU"> F  </i>
  <i type="int" name="I_CONSTRAINED_M">     0</i>
  <separator name="electronic exchange-correlation" >
   <i type="string" name="GGA">PE</i>
   <i type="int" name="VOSKOWN">     0</i>
   <i type="logical" name="LHFCALC"> F  </i>
   <i type="string" name="PRECFOCK"></i>
   <i type="logical" name="LSYMGRAD"> F  </i>
   <i type="logical" name="LHFONE"> F  </i>
   <i type="logical" name="LRHFCALC"> F  </i>
   <i type="logical" name="LTHOMAS"> F  </i>
   <i type="logical" name="LMODELHF"> F  </i>
   <i name="ENCUT4O">     -1.00000000</i>
   <i type="int" name="EXXOEP">     0</i>
   <i type="int" name="FOURORBIT">     0</i>
   <i name="AEXX">      0.00000000</i>
   <i name="HFALPHA">      0.00000000</i>
   <i name="MCALPHA">      0.00000000</i>
   <i name="ALDAX">      1.00000000</i>
   <i name="AGGAX">      1.00000000</i>
   <i name="ALDAC">      1.00000000</i>
   <i name="AGGAC">      1.00000000</i>
   <i type="int" name="NKREDX">     1</i>
   <i type="int" name="NKREDY">     1</i>
   <i type="int" name="NKREDZ">     1</i>
   <i type="logical" name="SHIFTRED"> F  </i>
   <i type="logical" name="ODDONLY"> F  </i>
   <i type="logical" name="EVENONLY"> F  </i>
   <i type="int" name="LMAXFOCK">     0</i>
   <i type="int" name="NMAXFOCKAE">     0</i>
   <i type="logical" name="LFOCKAEDFT"> F  </i>
   <i name="HFSCREEN">      0.00000000</i>
   <i name="HFSCREENC">      0.00000000</i>
   <i type="int" name="NBANDSGWLOW">     0</i>
  </separator>
  <separator name="vdW DFT" >
   <i type="logical" name="LUSE_VDW"> F  </i>
   <i name="Zab_VDW">     -0.84910000</i>
   <i name="PARAM1">      0.12340000</i>
   <i name="PARAM2">      1.00000000</i>
   <i name="PARAM3">      0.00000000</i>
  </separator>
  <separator name="model GW" >
   <i type="int" name="MODEL_GW">     0</i>
   <i name="MODEL_EPS0">    135.00000000</i>
   <i name="MODEL_ALPHA">      1.00000000</i>
  </separator>
  <separator name="linear response parameters" >
   <i type="logical" name="LEPSILON"> F  </i>
   <i type="logical" name="LRPA"> F  </i>
   <i type="logical" name="LNABLA"> F  </i>
   <i type="logical" name="LVEL"> F  </i>
   <i type="int" name="KINTER">     0</i>
   <i name="CSHIFT">      0.10000000</i>
   <i name="OMEGAMAX">     -1.00000000</i>
   <i name="DEG_THRESHOLD">      0.00200000</i>
   <i name="RTIME">     -0.10000000</i>
   <i name="WPLASMAI">      0.00000000</i>
   <v name="DFIELD">      0.00000000      0.00000000      0.00000000</v>
   <v name="WPLASMA">      0.00000000      0.00000000      0.00000000      0.00000000      0.00000000      0.00000000      0.00000000      0.00000000      0.00000000</v>
  </separator>
  <separator name="orbital magnetization" >
   <i type="logical" name="NUCIND"> F  </i>
   <v name="MAGPOS">      0.00000000      0.00000000      0.00000000</v>
   <i type="logical" name="LNICSALL"> T  </i>
   <i type="logical" name="ORBITALMAG"> F  </i>
   <i type="logical" name="LMAGBLOCH"> F  </i>
   <i type="logical" name="LCHIMAG"> F  </i>
   <i type="logical" name="LGAUGE"> T  </i>
   <i type="int" name="MAGATOM">     0</i>
   <v name="MAGDIPOL">      0.00000000      0.00000000      0.00000000</v>
   <v name="AVECCONST">      0.00000000      0.00000000      0.00000000</v>
  </separator>
  <separator name="response functions" >
   <i type="logical" name="LADDER"> F  </i>
   <i type="logical" name="LRPAFORCE"> F  </i>
   <i type="logical" name="LFXC"> F  </i>
   <i type="logical" name="LHARTREE"> T  </i>
   <i type="int" name="IBSE">     0</i>
   <v type="int" name="KPOINT">    -1     0     0     0</v>
   <i type="logical" name="LTCTE"> F  </i>
   <i type="logical" name="LTETE"> F  </i>
   <i type="logical" name="LTRIPLET"> F  </i>
   <i type="logical" name="LFXCEPS"> F  </i>
   <i type="logical" name="LFXHEG"> F  </i>
   <i type="int" name="NATURALO">     2</i>
   <i type="logical" name="L2ORDER"> F  </i>
   <i type="logical" name="LMP2LT"> F  </i>
   <i type="logical" name="LUSEW"> F  </i>
   <i name="ENCUTGW">     -2.00000000</i>
   <i name="ENCUTGWSOFT">     -2.00000000</i>
   <i name="ENCUTLF">     -1.00000000</i>
   <i type="int" name="LMAXMP2">    -1</i>
   <i name="SCISSOR">      0.00000000</i>
   <i type="int" name="NOMEGA">     0</i>
   <i type="int" name="NOMEGAR">     0</i>
   <i type="int" name="NBANDSGW">    -1</i>
   <i type="int" name="NBANDSO">    -1</i>
   <i type="int" name="NBANDSV">    -1</i>
   <i type="int" name="NELM">   300</i>
   <i type="int" name="NELMHF">     1</i>
   <i type="int" name="DIM">     3</i>
   <i type="int" name="ANTIRES">     0</i>
   <i name="OMEGAMAX">    -30.00000000</i>
   <i name="OMEGAMIN">    -30.00000000</i>
   <i name="OMEGATL">   -200.00000000</i>
   <i type="int" name="OMEGAGRID">   140</i>
   <i name="CSHIFT">     -0.10000000</i>
   <i type="logical" name="SELFENERGY"> F  </i>
   <i type="logical" name="LSPECTRAL"> F  </i>
   <i type="logical" name="LSPECTRALGW"> F  </i>
   <i type="logical" name="LSINGLES"> F  </i>
   <i type="logical" name="LFERMIGW"> F  </i>
   <i type="logical" name="ODDONLYGW"> F  </i>
   <i type="logical" name="EVENONLYGW"> F  </i>
   <i type="int" name="NKREDLFX">     1</i>
   <i type="int" name="NKREDLFY">     1</i>
   <i type="int" name="NKREDLFZ">     1</i>
   <i type="int" name="MAXMEM">  2800</i>
   <i type="int" name="TELESCOPE">     0</i>
   <i type="int" name="TAUPAR">     1</i>
   <i type="int" name="OMEGAPAR">    -1</i>
   <i name="LAMBDA">      1.00000000</i>
  </separator>
  <separator name="External order field" >
   <i name="OFIELD_KAPPA">      0.00000000</i>
   <v name="OFIELD_K">      0.00000000      0.00000000      0.00000000</v>
   <i name="OFIELD_Q6_NEAR">      0.00000000</i>
   <i name="OFIELD_Q6_FAR">      0.00000000</i>
   <i name="OFIELD_A">      0.00000000</i>
  </separator>
 </parameters>
 <atominfo>
  <atoms>      15 </atoms>
  <types>       3 </types>
  <array name="atoms" >
   <dimension dim="1">ion</dimension>
   <field type="string">element</field>
   <field type="int">atomtype</field>
   <set>
    <rc><c>Cu</c><c>   1</c></rc>
    <rc><c>Cu</c><c>   1</c></rc>
    <rc><c>Cu</c><c>   1</c></rc>
    <rc><c>Cu</c><c>   1</c></rc>
    <rc><c>Cu</c><c>   1</c></rc>
    <rc><c>Cu</c><c>   1</c></rc>
    <rc><c>Cu</c><c>   1</c></rc>
    <rc><c>Cu</c><c>   1</c></rc>
    <rc><c>Cu</c><c>   1</c></rc>
    <rc><c>Cu</c><c>   1</c></rc>
    <rc><c>Cu</c><c>   1</c></rc>
    <rc><c>Cu</c><c>   1</c></rc>
    <rc><c>Cu</c><c>   1</c></rc>
    <rc><c>C </c><c>   2</c></rc>
    <rc><c>O </c><c>   3</c></rc>
   </set>
  </array>
  <array name="atomtypes" >
   <dimension dim="1">type</dimension>
   <field type="int">atomspertype</field>
   <field type="string">element</field>
   <field>mass</field>
   <field>valence</field>
   <field type="string">pseudopotential</field>
   <set>
    <rc><c>  13</c><c>Cu</c><c>     63.54600000</c><c>     11.00000000</c><c>  PAW_PBE Cu 22Jun2005                  </c></rc>
    <rc><c>   1</c><c>C </c><c>     12.01100000</c><c>      4.00000000</c><c>  PAW_PBE C 08Apr2002                   </c></rc>
    <rc><c>   1</c><c>O </c><c>     16.00000000</c><c>      6.00000000</c><c>  PAW_PBE O 08Apr2002                   </c></rc>
   </set>
  </array>
 </atominfo>
 <structure name="initialpos" >
  <crystal>
   <varray name="basis" >
    <v>      15.00000000       0.00000000       0.00000000 </v>
    <v>       0.00000000      15.00000000       0.00000000 </v>
    <v>       0.00000000       0.00000000      15.00000000 </v>
   </varray>
   <i name="volume">   3375.00000000 </i>
   <varray name="rec_basis" >
    <v>       0.06666667       0.00000000       0.00000000 </v>
    <v>       0.00000000       0.06666667       0.00000000 </v>
    <v>       0.00000000       0.00000000       0.06666667 </v>
   </varray>
  </crystal>
  <varray name="positions" >
   <v>       0.29224600       0.41698933       0.55801533 </v>
   <v>       0.37923400       0.54961867       0.49181533 </v>
   <v>       0.39146933       0.29428400       0.56224133 </v>
   <v>       0.53419000       0.50054667       0.48116000 </v>
   <v>       0.55147333       0.34279600       0.52957267 </v>
   <v>       0.45312067       0.43803600       0.61629667 </v>
   <v>       0.41631267       0.39802667       0.45176733 </v>
   <v>       0.22497800       0.57069600       0.54541667 </v>
   <v>       0.33567467       0.54824000       0.64839867 </v>
   <v>       0.35696200       0.68822000       0.56786600 </v>
   <v>       0.48974533       0.67038667       0.47246267 </v>
   <v>       0.61446667       0.47328067       0.61742667 </v>
   <v>       0.48190000       0.59493267       0.61359400 </v>
   <v>       0.72960667       0.49136667       0.65095733 </v>
   <v>       0.80543333       0.49782000       0.64183733 </v>
  </varray>
 </structure>
 <calculation>
  <scstep>
   <time name="dav">    7.61    7.61</time>
   <time name="total">    8.81    8.81</time>
   <energy>
    <i name="alphaZ">     41.16232785 </i>
    <i name="ewald">  16513.97439359 </i>
    <i name="hartreedc"> -33532.36858445 </i>
    <i name="XCdc">    623.70033324 </i>
    <i name="pawpsdc">  16421.75059358 </i>
    <i name="pawaedc"> -17800.06104309 </i>
    <i name="eentropy">      0.00332923 </i>
    <i name="bandstr">    190.54195843 </i>
    <i name="atom">  18662.21924712 </i>
    <i name="e_fr_energy">   1120.92255549 </i>
    <i name="e_wo_entrp">   1120.91922626 </i>
    <i name="e_0_energy">   1120.92144575 </i>
   </energy>
  </scstep>
  <scstep>
   <time name="dav">    7.44    7.44</time>
   <time name="total">    7.44    7.44</time>
   <energy>
    <i name="e_fr_energy">     90.76499704 </i>
    <i name="e_wo_entrp">     90.76672785 </i>
    <i name="e_0_energy">     90.76557398 </i>
   </energy>
  </scstep>
  <scstep>
   <time name="dav">   11.61   11.62</time>
   <time name="total">   11.61   11.62</time>
   <energy>
    <i name="e_fr_energy">    -33.00374615 </i>
    <i name="e_wo_entrp">    -33.02156957 </i>
    <i name="e_0_energy">    -33.00968729 </i>
   </energy>
  </scstep>
  <scstep>
   <time name="dav">    9.98    9.99</time>
   <time name="total">    9.98    9.99</time>
   <energy>
    <i name="e_fr_energy">    -55.76760643 </i>
    <i name="e_wo_entrp">    -55.77729937 </i>
    <i name="e_0_energy">    -55.77083741 </i>
   </energy>
  </scstep>
  <scstep>
   <time name="dav">   12.00   12.00</time>
   <time name="total">   12.72   12.73</time>
   <energy>
    <i name="e_fr_energy">    -57.52495326 </i>
    <i name="e_wo_entrp">    -57.53533084 </i>
    <i name="e_0_energy">    -57.52841245 </i>
   </energy>
  </scstep>
  <scstep>
   <time name="diag">    1.10    1.11</time>
   <time name="diis">    6.88    6.88</time>
   <time name="orth">    0.06    0.06</time>
   <time name="total">    9.90    9.90</time>
   <energy>
    <i name="e_fr_energy">    -56.38569084 </i>
    <i name="e_wo_entrp">    -56.39464868 </i>
    <i name="e_0_energy">    -56.38867679 </i>
   </energy>
  </scstep>
  <scstep>
   <time name="diag">    1.10    1.11</time>
   <time name="diis">    6.46    6.46</time>
   <time name="orth">    0.06    0.06</time>
   <time name="total">    9.48    9.49</time>
   <energy>
    <i name="e_fr_energy">    -49.29718079 </i>
    <i name="e_wo_entrp">    -49.30642929 </i>
    <i name="e_0_energy">    -49.30026362 </i>
   </energy>
  </scstep>
  <scstep>
   <time name="diag">    1.11    1.11</time>
   <time name="diis">    6.92    6.93</time>
   <time name="orth">    0.06    0.06</time>
   <time name="total">    9.95    9.95</time>
   <energy>
    <i name="e_fr_energy">    -49.06757140 </i>
    <i name="e_wo_entrp">    -49.07691571 </i>
    <i name="e_0_energy">    -49.07068617 </i>
   </energy>
  </scstep>
  <scstep>
   <time name="diag">    1.10    1.11</time>
   <time name="diis">    6.85    6.87</time>
   <time name="orth">    0.06    0.06</time>
   <time name="total">    9.88    9.89</time>
   <energy>
    <i name="e_fr_energy">    -49.02676148 </i>
    <i name="e_wo_entrp">    -49.03602729 </i>
    <i name="e_0_energy">    -49.02985008 </i>
   </energy>
  </scstep>
  <scstep>
   <time name="diag">    1.10    1.11</time>
   <time name="diis">    7.04    7.05</time>
   <time name="orth">    0.06    0.06</time>
   <time name="total">   10.07   10.08</time>
   <energy>
    <i name="e_fr_energy">    -48.97376137 </i>
    <i name="e_wo_entrp">    -48.98311178 </i>
    <i name="e_0_energy">    -48.97687817 </i>
   </energy>
  </scstep>
  <scstep>
   <time name="diag">    1.10    1.10</time>
   <time name="diis">    7.87    7.88</time>
   <time name="orth">    0.06    0.06</time>
   <time name="total">   10.89   10.91</time>
   <energy>
    <i name="e_fr_energy">    -48.96508727 </i>
    <i name="e_wo_entrp">    -48.97442873 </i>
    <i name="e_0_energy">    -48.96820109 </i>
   </energy>
  </scstep>
  <scstep>
   <time name="diag">    1.10    1.11</time>
   <time name="diis">    7.88    7.89</time>
   <time name="orth">    0.06    0.06</time>
   <time name="total">   10.91   10.92</time>
   <energy>
    <i name="e_fr_energy">    -48.96298217 </i>
    <i name="e_wo_entrp">    -48.97233258 </i>
    <i name="e_0_energy">    -48.96609897 </i>
   </energy>
  </scstep>
  <scstep>
   <time name="diag">    1.11    1.11</time>
   <time name="diis">    7.33    7.33</time>
   <time name="orth">    0.06    0.06</time>
   <time name="total">   10.36   10.37</time>
   <energy>
    <i name="e_fr_energy">    -48.96227002 </i>
    <i name="e_wo_entrp">    -48.97161870 </i>
    <i name="e_0_energy">    -48.96538625 </i>
   </energy>
  </scstep>
  <scstep>
   <time name="diag">    1.10    1.11</time>
   <time name="diis">    7.30    7.31</time>
   <time name="orth">    0.06    0.06</time>
   <time name="total">   10.33   10.34</time>
   <energy>
    <i name="e_fr_energy">    -48.96341404 </i>
    <i name="e_wo_entrp">    -48.97276411 </i>
    <i name="e_0_energy">    -48.96653073 </i>
   </energy>
  </scstep>
  <scstep>
   <time name="diag">    1.10    1.10</time>
   <time name="diis">    6.81    6.82</time>
   <time name="orth">    0.06    0.06</time>
   <time name="total">    9.84    9.85</time>
   <energy>
    <i name="e_fr_energy">    -48.96466644 </i>
    <i name="e_wo_entrp">    -48.97401582 </i>
    <i name="e_0_energy">    -48.96778290 </i>
   </energy>
  </scstep>
  <scstep>
   <time name="diag">    1.10    1.10</time>
   <time name="diis">    6.69    6.69</time>
   <time name="orth">    0.06    0.06</time>
   <time name="total">    9.72    9.73</time>
   <energy>
    <i name="e_fr_energy">    -48.96606020 </i>
    <i name="e_wo_entrp">    -48.97540934 </i>
    <i name="e_0_energy">    -48.96917658 </i>
   </energy>
  </scstep>
  <scstep>
   <time name="diag">    1.10    1.10</time>
   <time name="diis">    6.72    6.72</time>
   <time name="orth">    0.06    0.06</time>
   <time name="total">    9.75    9.76</time>
   <energy>
    <i name="e_fr_energy">    -48.96789320 </i>
    <i name="e_wo_entrp">    -48.97724166 </i>
    <i name="e_0_energy">    -48.97100935 </i>
   </energy>
  </scstep>
  <scstep>
   <time name="diag">    1.11    1.11</time>
   <time name="diis">    7.40    7.41</time>
   <time name="orth">    0.06    0.06</time>
   <time name="total">   10.44   10.45</time>
   <energy>
    <i name="e_fr_energy">    -48.96871217 </i>
    <i name="e_wo_entrp">    -48.97806087 </i>
    <i name="e_0_energy">    -48.97182840 </i>
   </energy>
  </scstep>
  <scstep>
   <time name="diag">    1.11    1.11</time>
   <time name="diis">    6.91    6.92</time>
   <time name="orth">    0.06    0.06</time>
   <time name="total">    9.95    9.96</time>
   <energy>
    <i name="e_fr_energy">    -48.96942742 </i>
    <i name="e_wo_entrp">    -48.97877605 </i>
    <i name="e_0_energy">    -48.97254363 </i>
   </energy>
  </scstep>
  <scstep>
   <time name="diag">    1.10    1.10</time>
   <time name="diis">    6.53    6.54</time>
   <time name="orth">    0.06    0.06</time>
   <time name="total">    9.57    9.58</time>
   <energy>
    <i name="e_fr_energy">    -48.96992916 </i>
    <i name="e_wo_entrp">    -48.97927798 </i>
    <i name="e_0_energy">    -48.97304544 </i>
   </energy>
  </scstep>
  <scstep>
   <time name="diag">    1.10    1.10</time>
   <time name="diis">    6.89    6.90</time>
   <time name="orth">    0.06    0.06</time>
   <time name="total">    9.93    9.94</time>
   <energy>
    <i name="e_fr_energy">    -48.97032467 </i>
    <i name="e_wo_entrp">    -48.97967351 </i>
    <i name="e_0_energy">    -48.97344095 </i>
   </energy>
  </scstep>
  <scstep>
   <time name="diag">    1.11    1.11</time>
   <time name="diis">    6.47    6.47</time>
   <time name="orth">    0.06    0.06</time>
   <time name="total">    9.52    9.52</time>
   <energy>
    <i name="e_fr_energy">    -48.97056935 </i>
    <i name="e_wo_entrp">    -48.97991813 </i>
    <i name="e_0_energy">    -48.97368561 </i>
   </energy>
  </scstep>
  <scstep>
   <time name="diag">    1.11    1.11</time>
   <time name="diis">    6.68    6.71</time>
   <time name="orth">    0.06    0.06</time>
   <time name="total">    9.72    9.75</time>
   <energy>
    <i name="e_fr_energy">    -48.97067089 </i>
    <i name="e_wo_entrp">    -48.98001967 </i>
    <i name="e_0_energy">    -48.97378715 </i>
   </energy>
  </scstep>
  <scstep>
   <time name="diag">    1.11    1.11</time>
   <time name="diis">    6.68    6.68</time>
   <time name="orth">    0.06    0.06</time>
   <time name="total">    9.72    9.73</time>
   <energy>
    <i name="e_fr_energy">    -48.97077227 </i>
    <i name="e_wo_entrp">    -48.98012104 </i>
    <i name="e_0_energy">    -48.97388853 </i>
   </energy>
  </scstep>
  <scstep>
   <time name="diag">    1.11    1.11</time>
   <time name="diis">    6.69    6.70</time>
   <time name="orth">    0.06    0.06</time>
   <time name="total">    9.74    9.75</time>
   <energy>
    <i name="e_fr_energy">    -48.97083330 </i>
    <i name="e_wo_entrp">    -48.98018207 </i>
    <i name="e_0_energy">    -48.97394956 </i>
   </energy>
  </scstep>
  <scstep>
   <time name="diag">    1.11    1.11</time>
   <time name="diis">    6.59    6.59</time>
   <time name="orth">    0.06    0.06</time>
   <time name="total">    9.63    9.64</time>
   <energy>
    <i name="e_fr_energy">    -48.97085987 </i>
    <i name="e_wo_entrp">    -48.98020864 </i>
    <i name="e_0_energy">    -48.97397613 </i>
   </energy>
  </scstep>
  <scstep>
   <time name="diag">    1.11    1.11</time>
   <time name="diis">    5.07    5.08</time>
   <time name="orth">    0.06    0.06</time>
   <time name="total">    8.12    8.13</time>
   <energy>
    <i name="e_fr_energy">    -48.97087150 </i>
    <i name="e_wo_entrp">    -48.98022028 </i>
    <i name="e_0_energy">    -48.97398776 </i>
   </energy>
  </scstep>
  <scstep>
   <time name="diag">    1.10    1.10</time>
   <time name="diis">    4.60    4.60</time>
   <time name="orth">    0.06    0.06</time>
   <time name="total">    7.65    7.66</time>
   <energy>
    <i name="e_fr_energy">    -48.97087865 </i>
    <i name="e_wo_entrp">    -48.98022742 </i>
    <i name="e_0_energy">    -48.97399491 </i>
   </energy>
  </scstep>
  <scstep>
   <time name="diag">    1.10    1.10</time>
   <time name="diis">    4.64    4.65</time>
   <time name="orth">    0.06    0.06</time>
   <time name="total">    7.70    7.70</time>
   <energy>
    <i name="e_fr_energy">    -48.97088114 </i>
    <i name="e_wo_entrp">    -48.98022991 </i>
    <i name="e_0_energy">    -48.97399740 </i>
   </energy>
  </scstep>
  <scstep>
   <time name="diag">    1.10    1.11</time>
   <time name="diis">    4.49    4.49</time>
   <time name="orth">    0.06    0.06</time>
   <time name="total">    7.55    7.56</time>
   <energy>
    <i name="e_fr_energy">    -48.97088332 </i>
    <i name="e_wo_entrp">    -48.98023208 </i>
    <i name="e_0_energy">    -48.97399958 </i>
   </energy>
  </scstep>
  <scstep>
   <time name="diag">    1.10    1.10</time>
   <time name="diis">    4.47    4.47</time>
   <time name="orth">    0.06    0.06</time>
   <time name="total">    7.54    7.56</time>
   <energy>
    <i name="e_fr_energy">    -48.97088420 </i>
    <i name="e_wo_entrp">    -48.98023296 </i>
    <i name="e_0_energy">    -48.97400045 </i>
   </energy>
  </scstep>
  <scstep>
   <time name="diag">    1.11    1.11</time>
   <time name="diis">    4.01    4.02</time>
   <time name="orth">    0.06    0.06</time>
   <time name="total">    7.10    7.11</time>
   <energy>
    <i name="e_fr_energy">    -48.97088475 </i>
    <i name="e_wo_entrp">    -48.98023351 </i>
    <i name="e_0_energy">    -48.97400100 </i>
   </energy>
  </scstep>
  <scstep>
   <time name="diag">    1.11    1.11</time>
   <time name="diis">    4.10    4.10</time>
   <time name="orth">    0.06    0.06</time>
   <time name="total">    7.19    7.20</time>
   <energy>
    <i name="e_fr_energy">    -48.97088525 </i>
    <i name="e_wo_entrp">    -48.98023401 </i>
    <i name="e_0_energy">    -48.97400150 </i>
   </energy>
  </scstep>
  <scstep>
   <time name="diag">    1.10    1.11</time>
   <time name="diis">    3.98    3.99</time>
   <time name="orth">    0.06    0.06</time>
   <time name="total">    7.08    7.09</time>
   <energy>
    <i name="e_fr_energy">    -48.97088571 </i>
    <i name="e_wo_entrp">    -48.98023447 </i>
    <i name="e_0_energy">    -48.97400196 </i>
   </energy>
  </scstep>
  <scstep>
   <time name="diag">    1.10    1.10</time>
   <time name="diis">    3.85    3.87</time>
   <time name="orth">    0.06    0.06</time>
   <time name="total">    6.95    6.97</time>
   <energy>
    <i name="e_fr_energy">    -48.97088597 </i>
    <i name="e_wo_entrp">    -48.98023473 </i>
    <i name="e_0_energy">    -48.97400222 </i>
   </energy>
  </scstep>
  <scstep>
   <time name="diag">    1.10    1.11</time>
   <time name="diis">    3.66    3.67</time>
   <time name="orth">    0.06    0.06</time>
   <time name="total">    6.77    6.78</time>
   <energy>
    <i name="e_fr_energy">    -48.97088609 </i>
    <i name="e_wo_entrp">    -48.98023485 </i>
    <i name="e_0_energy">    -48.97400234 </i>
   </energy>
  </scstep>
  <scstep>
   <time name="diag">    1.10    1.10</time>
   <time name="diis">    3.28    3.28</time>
   <time name="orth">    0.06    0.06</time>
   <time name="total">    5.66    5.66</time>
   <energy>
    <i name="alphaZ">     41.16232785 </i>
    <i name="ewald">  16513.97439359 </i>
    <i name="hartreedc"> -33491.80212276 </i>
    <i name="XCdc">    615.73459874 </i>
    <i name="pawpsdc">  17692.08317302 </i>
    <i name="pawaedc"> -19091.09858974 </i>
    <i name="eentropy">      0.00934876 </i>
    <i name="bandstr">   -991.25326277 </i>
    <i name="atom">  18662.21924712 </i>
    <i name="e_fr_energy">    -48.97088619 </i>
    <i name="e_wo_entrp">    -48.98023495 </i>
    <i name="e_0_energy">    -48.97400244 </i>
   </energy>
  </scstep>
  <structure>
   <crystal>
    <varray name="basis" >
     <v>      15.00000000       0.00000000       0.00000000 </v>
     <v>       0.00000000      15.00000000       0.00000000 </v>
     <v>       0.00000000       0.00000000      15.00000000 </v>
    </varray>
    <i name="volume">   3375.00000000 </i>
    <varray name="rec_basis" >
     <v>       0.06666667       0.00000000       0.00000000 </v>
     <v>       0.00000000       0.06666667       0.00000000 </v>
     <v>       0.00000000       0.00000000       0.06666667 </v>
    </varray>
   </crystal>
   <varray name="positions" >
    <v>       0.29224600       0.41698933       0.55801533 </v>
    <v>       0.37923400       0.54961867       0.49181533 </v>
    <v>       0.39146933       0.29428400       0.56224133 </v>
    <v>       0.53419000       0.50054667       0.48116000 </v>
    <v>       0.55147333       0.34279600       0.52957267 </v>
    <v>       0.45312067       0.43803600       0.61629667 </v>
    <v>       0.41631267       0.39802667       0.45176733 </v>
    <v>       0.22497800       0.57069600       0.54541667 </v>
    <v>       0.33567467       0.54824000       0.64839867 </v>
    <v>       0.35696200       0.68822000       0.56786600 </v>
    <v>       0.48974533       0.67038667       0.47246267 </v>
    <v>       0.61446667       0.47328067       0.61742667 </v>
    <v>       0.48190000       0.59493267       0.61359400 </v>
    <v>       0.72960667       0.49136667       0.65095733 </v>
    <v>       0.80543333       0.49782000       0.64183733 </v>
   </varray>
  </structure>
  <varray name="forces" >
   <v>      -0.05587695       0.47028474      -0.01277838 </v>
   <v>      -0.23272105      -0.03422576      -0.23899245 </v>
   <v>       0.24050884      -0.43021159       0.40518825 </v>
   <v>       0.07742624       0.41123479       0.08264727 </v>
   <v>      -0.16769480       0.18281709       0.06521718 </v>
   <v>      -0.19147078      -0.37311491      -0.32700217 </v>
   <v>       0.03132104       0.06970489      -0.18402389 </v>
   <v>      -0.03275464       0.07087891      -0.24880842 </v>
   <v>       0.03088454      -0.17933043       0.45630117 </v>
   <v>      -0.23741378       0.05037728      -0.06530615 </v>
   <v>      -0.01153511      -0.31298574       0.16389710 </v>
   <v>      -0.35592081       0.07783718      -0.01143641 </v>
   <v>       0.67992993       0.01939210      -0.08863514 </v>
   <v>      -0.59764935      -0.16636420      -0.06501844 </v>
   <v>       0.82296668       0.14370566       0.06875046 </v>
  </varray>
  <varray name="stress" >
   <v>       0.74820307       0.05920714       0.23205737 </v>
   <v>       0.05920714      -0.14764126      -0.37722094 </v>
   <v>       0.23205736      -0.37722096       0.18711879 </v>
  </varray>
  <energy>
   <i name="e_fr_energy">    -48.97088619 </i>
   <i name="e_wo_entrp">    -48.97400244 </i>
   <i name="e_0_energy">      0.00934876 </i>
  </energy>
  <time name="totalsc">  350.18  350.53</time>
  <eigenvalues>
   <array>
    <dimension dim="1">band</dimension>
    <dimension dim="2">kpoint</dimension>
    <dimension dim="3">spin</dimension>
    <field>eigene</field>
    <field>occ</field>
    <set>
     <set comment="spin 1">
      <set comment="kpoint 1">
       <r>  -28.5303    1.0000 </r>
       <r>  -13.8030    1.0000 </r>
       <r>  -11.4088    1.0000 </r>
       <r>  -11.1682    1.0000 </r>
       <r>  -10.9194    1.0000 </r>
       <r>  -10.1814    1.0000 </r>
       <r>   -8.6888    1.0000 </r>
       <r>   -8.2084    1.0000 </r>
       <r>   -7.7209    1.0000 </r>
       <r>   -7.5753    1.0000 </r>
       <r>   -7.5117    1.0000 </r>
       <r>   -7.3874    1.0000 </r>
       <r>   -7.3235    1.0000 </r>
       <r>   -7.1588    1.0000 </r>
       <r>   -7.0853    1.0000 </r>
       <r>   -6.9158    1.0000 </r>
       <r>   -6.8870    1.0000 </r>
       <r>   -6.8366    1.0000 </r>
       <r>   -6.7682    1.0000 </r>
       <r>   -6.6729    1.0000 </r>
       <r>   -6.6380    1.0000 </r>
       <r>   -6.6099    1.0000 </r>
       <r>   -6.5245    1.0000 </r>
       <r>   -6.5158    1.0000 </r>
       <r>   -6.4610    1.0000 </r>
       <r>   -6.4136    1.0000 </r>
       <r>   -6.3291    1.0000 </r>
       <r>   -6.3191    1.0000 </r>
       <r>   -6.2721    1.0000 </r>
       <r>   -6.1978    1.0000 </r>
       <r>   -6.1809    1.0000 </r>
       <r>   -6.1137    1.0000 </r>
       <r>   -6.0302    1.0000 </r>
       <r>   -5.9989    1.0000 </r>
       <r>   -5.9212    1.0000 </r>
       <r>   -5.7973    1.0000 </r>
       <r>   -5.7846    1.0000 </r>
       <r>   -5.7043    1.0000 </r>
       <r>   -5.6801    1.0000 </r>
       <r>   -5.6434    1.0000 </r>
       <r>   -5.6156    1.0000 </r>
       <r>   -5.5603    1.0000 </r>
       <r>   -5.4983    1.0000 </r>
       <r>   -5.4771    1.0000 </r>
       <r>   -5.4443    1.0000 </r>
       <r>   -5.4392    1.0000 </r>
       <r>   -5.4063    1.0000 </r>
       <r>   -5.4047    1.0000 </r>
       <r>   -5.3726    1.0000 </r>
       <r>   -5.3255    1.0000 </r>
       <r>   -5.3170    1.0000 </r>
       <r>   -5.2862    1.0000 </r>
       <r>   -5.2501    1.0000 </r>
       <r>   -5.2148    1.0000 </r>
       <r>   -5.1906    1.0000 </r>
       <r>   -5.1844    1.0000 </r>
       <r>   -5.1664    1.0000 </r>
       <r>   -5.1499    1.0000 </r>
       <r>   -5.0973    1.0000 </r>
       <r>   -5.0908    1.0000 </r>
       <r>   -5.0356    1.0000 </r>
       <r>   -5.0096    1.0000 </r>
       <r>   -4.9979    1.0000 </r>
       <r>   -4.9855    1.0000 </r>
       <r>   -4.9421    1.0000 </r>
       <r>   -4.9317    1.0000 </r>
       <r>   -4.8909    1.0000 </r>
       <r>   -4.8837    1.0000 </r>
       <r>   -4.8489    1.0000 </r>
       <r>   -4.8448    1.0000 </r>
       <r>   -4.8093    1.0000 </r>
       <r>   -4.7858    1.0000 </r>
       <r>   -4.7060    1.0000 </r>
       <r>   -4.5304    1.0000 </r>
       <r>   -4.2219    1.0000 </r>
       <r>   -4.1683    1.0000 </r>
       <r>   -3.4877    1.0000 </r>
       <r>   -3.0186   -0.0000 </r>
       <r>   -2.7956   -0.0000 </r>
       <r>   -2.5363   -0.0000 </r>
       <r>   -2.2765   -0.0000 </r>
       <r>   -2.0078   -0.0000 </r>
       <r>   -1.8896   -0.0000 </r>
       <r>   -1.7051   -0.0000 </r>
       <r>   -1.3892   -0.0000 </r>
       <r>   -1.0305   -0.0000 </r>
       <r>   -0.9204   -0.0000 </r>
       <r>   -0.7222   -0.0000 </r>
       <r>   -0.3771    0.0000 </r>
       <r>   -0.3167    0.0000 </r>
       <r>   -0.1560    0.0000 </r>
       <r>    0.1947    0.0000 </r>
      </set>
     </set>
     <set comment="spin 2">
      <set comment="kpoint 1">
       <r>  -28.5067    1.0000 </r>
       <r>  -13.7618    1.0000 </r>
       <r>  -11.3727    1.0000 </r>
       <r>  -11.1476    1.0000 </r>
       <r>  -10.8523    1.0000 </r>
       <r>  -10.1407    1.0000 </r>
       <r>   -8.6634    1.0000 </r>
       <r>   -8.1637    1.0000 </r>
       <r>   -7.6829    1.0000 </r>
       <r>   -7.5566    1.0000 </r>
       <r>   -7.4841    1.0000 </r>
       <r>   -7.3467    1.0000 </r>
       <r>   -7.2861    1.0000 </r>
       <r>   -7.1266    1.0000 </r>
       <r>   -7.0612    1.0000 </r>
       <r>   -6.8804    1.0000 </r>
       <r>   -6.8614    1.0000 </r>
       <r>   -6.8066    1.0000 </r>
       <r>   -6.7384    1.0000 </r>
       <r>   -6.6502    1.0000 </r>
       <r>   -6.6184    1.0000 </r>
       <r>   -6.5856    1.0000 </r>
       <r>   -6.4996    1.0000 </r>
       <r>   -6.4931    1.0000 </r>
       <r>   -6.4405    1.0000 </r>
       <r>   -6.3841    1.0000 </r>
       <r>   -6.3095    1.0000 </r>
       <r>   -6.2942    1.0000 </r>
       <r>   -6.2405    1.0000 </r>
       <r>   -6.1757    1.0000 </r>
       <r>   -6.1504    1.0000 </r>
       <r>   -6.0876    1.0000 </r>
       <r>   -6.0021    1.0000 </r>
       <r>   -5.9811    1.0000 </r>
       <r>   -5.8996    1.0000 </r>
       <r>   -5.7728    1.0000 </r>
       <r>   -5.7559    1.0000 </r>
       <r>   -5.6768    1.0000 </r>
       <r>   -5.6564    1.0000 </r>
       <r>   -5.6194    1.0000 </r>
       <r>   -5.5929    1.0000 </r>
       <r>   -5.5367    1.0000 </r>
       <r>   -5.4669    1.0000 </r>
       <r>   -5.4567    1.0000 </r>
       <r>   -5.4159    1.0000 </r>
       <r>   -5.4139    1.0000 </r>
       <r>   -5.3829    1.0000 </r>
       <r>   -5.3708    1.0000 </r>
       <r>   -5.3430    1.0000 </r>
       <r>   -5.2957    1.0000 </r>
       <r>   -5.2881    1.0000 </r>
       <r>   -5.2634    1.0000 </r>
       <r>   -5.2242    1.0000 </r>
       <r>   -5.1856    1.0000 </r>
       <r>   -5.1705    1.0000 </r>
       <r>   -5.1587    1.0000 </r>
       <r>   -5.1438    1.0000 </r>
       <r>   -5.1278    1.0000 </r>
       <r>   -5.0702    1.0000 </r>
       <r>   -5.0651    1.0000 </r>
       <r>   -5.0075    1.0000 </r>
       <r>   -4.9922    1.0000 </r>
       <r>   -4.9786    1.0000 </r>
       <r>   -4.9565    1.0000 </r>
       <r>   -4.9233    1.0000 </r>
       <r>   -4.9028    1.0000 </r>
       <r>   -4.8693    1.0000 </r>
       <r>   -4.8429    1.0000 </r>
       <r>   -4.8183    1.0000 </r>
       <r>   -4.8077    1.0000 </r>
       <r>   -4.7751    1.0000 </r>
       <r>   -4.7572    1.0000 </r>
       <r>   -4.6787    1.0000 </r>
       <r>   -4.4851    1.0000 </r>
       <r>   -4.1706    1.0354 </r>
       <r>   -4.1211    0.9646 </r>
       <r>   -3.2810   -0.0000 </r>
       <r>   -2.9637   -0.0000 </r>
       <r>   -2.7453   -0.0000 </r>
       <r>   -2.4519   -0.0000 </r>
       <r>   -2.1871   -0.0000 </r>
       <r>   -1.9758   -0.0000 </r>
       <r>   -1.8151   -0.0000 </r>
       <r>   -1.6275   -0.0000 </r>
       <r>   -1.2681    0.0000 </r>
       <r>   -0.9247    0.0000 </r>
       <r>   -0.8341    0.0000 </r>
       <r>   -0.6329    0.0000 </r>
       <r>   -0.3002    0.0000 </r>
       <r>   -0.1531    0.0000 </r>
       <r>    0.1286    0.0000 </r>
       <r>    0.2864    0.0000 </r>
      </set>
     </set>
    </set>
   </array>
  </eigenvalues>
  <separator name="orbital magnetization" >
   <v name="MAGDIPOLOUT">      0.00000000      0.00000000      0.00000000</v>
  </separator>
  <dos>
   <i name="efermi">     -4.04968818 </i>
   <total>
    <array>
     <dimension dim="1">gridpoints</dimension>
     <dimension dim="2">spin</dimension>
     <field>energy</field>
     <field>total</field>
     <field>integrated</field>
     <set>
      <set comment="spin 1">
       <r>   -29.9711     0.0000     0.0000 </r>
       <r>   -29.8654     0.0000     0.0000 </r>
       <r>   -29.7598     0.0000     0.0000 </r>
       <r>   -29.6541     0.0000     0.0000 </r>
       <r>   -29.5485     0.0000     0.0000 </r>
       <r>   -29.4428     0.0000     0.0000 </r>
       <r>   -29.3371    -0.0000    -0.0000 </r>
       <r>   -29.2315    -0.0000    -0.0000 </r>
       <r>   -29.1258    -0.0000    -0.0000 </r>
       <r>   -29.0202    -0.0000    -0.0000 </r>
       <r>   -28.9145    -0.0000    -0.0000 </r>
       <r>   -28.8088    -0.0056    -0.0006 </r>
       <r>   -28.7032    -0.3219    -0.0346 </r>
       <r>   -28.5975     1.2765     0.1003 </r>
       <r>   -28.4919    14.1951     1.6001 </r>
       <r>   -28.3862     4.3557     2.0604 </r>
       <r>   -28.2805    -0.5493     2.0023 </r>
       <r>   -28.1749    -0.0221     2.0000 </r>
       <r>   -28.0692    -0.0001     2.0000 </r>
       <r>   -27.9635    -0.0000     2.0000 </r>
       <r>   -27.8579    -0.0000     2.0000 </r>
       <r>   -27.7522     0.0000     2.0000 </r>
       <r>   -27.6466     0.0000     2.0000 </r>
       <r>   -27.5409     0.0000     2.0000 </r>
       <r>   -27.4352     0.0000     2.0000 </r>
       <r>   -27.3296     0.0000     2.0000 </r>
       <r>   -27.2239     0.0000     2.0000 </r>
       <r>   -27.1183     0.0000     2.0000 </r>
       <r>   -27.0126     0.0000     2.0000 </r>
       <r>   -26.9069     0.0000     2.0000 </r>
       <r>   -26.8013     0.0000     2.0000 </r>
       <r>   -26.6956     0.0000     2.0000 </r>
       <r>   -26.5900     0.0000     2.0000 </r>
       <r>   -26.4843     0.0000     2.0000 </r>
       <r>   -26.3786     0.0000     2.0000 </r>
       <r>   -26.2730     0.0000     2.0000 </r>
       <r>   -26.1673     0.0000     2.0000 </r>
       <r>   -26.0616     0.0000     2.0000 </r>
       <r>   -25.9560     0.0000     2.0000 </r>
       <r>   -25.8503     0.0000     2.0000 </r>
       <r>   -25.7447     0.0000     2.0000 </r>
       <r>   -25.6390     0.0000     2.0000 </r>
       <r>   -25.5333     0.0000     2.0000 </r>
       <r>   -25.4277     0.0000     2.0000 </r>
       <r>   -25.3220     0.0000     2.0000 </r>
       <r>   -25.2164     0.0000     2.0000 </r>
       <r>   -25.1107     0.0000     2.0000 </r>
       <r>   -25.0050     0.0000     2.0000 </r>
       <r>   -24.8994     0.0000     2.0000 </r>
       <r>   -24.7937     0.0000     2.0000 </r>
       <r>   -24.6881     0.0000     2.0000 </r>
       <r>   -24.5824     0.0000     2.0000 </r>
       <r>   -24.4767     0.0000     2.0000 </r>
       <r>   -24.3711     0.0000     2.0000 </r>
       <r>   -24.2654     0.0000     2.0000 </r>
       <r>   -24.1597     0.0000     2.0000 </r>
       <r>   -24.0541     0.0000     2.0000 </r>
       <r>   -23.9484     0.0000     2.0000 </r>
       <r>   -23.8428     0.0000     2.0000 </r>
       <r>   -23.7371     0.0000     2.0000 </r>
       <r>   -23.6314     0.0000     2.0000 </r>
       <r>   -23.5258     0.0000     2.0000 </r>
       <r>   -23.4201     0.0000     2.0000 </r>
       <r>   -23.3145     0.0000     2.0000 </r>
       <r>   -23.2088     0.0000     2.0000 </r>
       <r>   -23.1031     0.0000     2.0000 </r>
       <r>   -22.9975     0.0000     2.0000 </r>
       <r>   -22.8918     0.0000     2.0000 </r>
       <r>   -22.7862     0.0000     2.0000 </r>
       <r>   -22.6805     0.0000     2.0000 </r>
       <r>   -22.5748     0.0000     2.0000 </r>
       <r>   -22.4692     0.0000     2.0000 </r>
       <r>   -22.3635     0.0000     2.0000 </r>
       <r>   -22.2579     0.0000     2.0000 </r>
       <r>   -22.1522     0.0000     2.0000 </r>
       <r>   -22.0465     0.0000     2.0000 </r>
       <r>   -21.9409     0.0000     2.0000 </r>
       <r>   -21.8352     0.0000     2.0000 </r>
       <r>   -21.7295     0.0000     2.0000 </r>
       <r>   -21.6239     0.0000     2.0000 </r>
       <r>   -21.5182     0.0000     2.0000 </r>
       <r>   -21.4126     0.0000     2.0000 </r>
       <r>   -21.3069     0.0000     2.0000 </r>
       <r>   -21.2012     0.0000     2.0000 </r>
       <r>   -21.0956     0.0000     2.0000 </r>
       <r>   -20.9899     0.0000     2.0000 </r>
       <r>   -20.8843     0.0000     2.0000 </r>
       <r>   -20.7786     0.0000     2.0000 </r>
       <r>   -20.6729     0.0000     2.0000 </r>
       <r>   -20.5673     0.0000     2.0000 </r>
       <r>   -20.4616     0.0000     2.0000 </r>
       <r>   -20.3560     0.0000     2.0000 </r>
       <r>   -20.2503     0.0000     2.0000 </r>
       <r>   -20.1446     0.0000     2.0000 </r>
       <r>   -20.0390     0.0000     2.0000 </r>
       <r>   -19.9333     0.0000     2.0000 </r>
       <r>   -19.8276     0.0000     2.0000 </r>
       <r>   -19.7220     0.0000     2.0000 </r>
       <r>   -19.6163     0.0000     2.0000 </r>
       <r>   -19.5107     0.0000     2.0000 </r>
       <r>   -19.4050     0.0000     2.0000 </r>
       <r>   -19.2993     0.0000     2.0000 </r>
       <r>   -19.1937     0.0000     2.0000 </r>
       <r>   -19.0880     0.0000     2.0000 </r>
       <r>   -18.9824     0.0000     2.0000 </r>
       <r>   -18.8767     0.0000     2.0000 </r>
       <r>   -18.7710     0.0000     2.0000 </r>
       <r>   -18.6654     0.0000     2.0000 </r>
       <r>   -18.5597     0.0000     2.0000 </r>
       <r>   -18.4541     0.0000     2.0000 </r>
       <r>   -18.3484     0.0000     2.0000 </r>
       <r>   -18.2427     0.0000     2.0000 </r>
       <r>   -18.1371     0.0000     2.0000 </r>
       <r>   -18.0314     0.0000     2.0000 </r>
       <r>   -17.9257     0.0000     2.0000 </r>
       <r>   -17.8201     0.0000     2.0000 </r>
       <r>   -17.7144     0.0000     2.0000 </r>
       <r>   -17.6088     0.0000     2.0000 </r>
       <r>   -17.5031     0.0000     2.0000 </r>
       <r>   -17.3974     0.0000     2.0000 </r>
       <r>   -17.2918     0.0000     2.0000 </r>
       <r>   -17.1861     0.0000     2.0000 </r>
       <r>   -17.0805     0.0000     2.0000 </r>
       <r>   -16.9748     0.0000     2.0000 </r>
       <r>   -16.8691     0.0000     2.0000 </r>
       <r>   -16.7635     0.0000     2.0000 </r>
       <r>   -16.6578     0.0000     2.0000 </r>
       <r>   -16.5522     0.0000     2.0000 </r>
       <r>   -16.4465     0.0000     2.0000 </r>
       <r>   -16.3408     0.0000     2.0000 </r>
       <r>   -16.2352     0.0000     2.0000 </r>
       <r>   -16.1295     0.0000     2.0000 </r>
       <r>   -16.0238     0.0000     2.0000 </r>
       <r>   -15.9182     0.0000     2.0000 </r>
       <r>   -15.8125     0.0000     2.0000 </r>
       <r>   -15.7069     0.0000     2.0000 </r>
       <r>   -15.6012     0.0000     2.0000 </r>
       <r>   -15.4955     0.0000     2.0000 </r>
       <r>   -15.3899     0.0000     2.0000 </r>
       <r>   -15.2842     0.0000     2.0000 </r>
       <r>   -15.1786     0.0000     2.0000 </r>
       <r>   -15.0729     0.0000     2.0000 </r>
       <r>   -14.9672     0.0000     2.0000 </r>
       <r>   -14.8616     0.0000     2.0000 </r>
       <r>   -14.7559     0.0000     2.0000 </r>
       <r>   -14.6503    -0.0000     2.0000 </r>
       <r>   -14.5446    -0.0000     2.0000 </r>
       <r>   -14.4389    -0.0000     2.0000 </r>
       <r>   -14.3333    -0.0000     2.0000 </r>
       <r>   -14.2276    -0.0000     2.0000 </r>
       <r>   -14.1219    -0.0006     1.9999 </r>
       <r>   -14.0163    -0.0958     1.9898 </r>
       <r>   -13.9106    -0.4962     1.9374 </r>
       <r>   -13.8050     9.7498     2.9676 </r>
       <r>   -13.6993    10.3124     4.0572 </r>
       <r>   -13.5936    -0.4308     4.0117 </r>
       <r>   -13.4880    -0.1096     4.0001 </r>
       <r>   -13.3823    -0.0007     4.0000 </r>
       <r>   -13.2767    -0.0000     4.0000 </r>
       <r>   -13.1710    -0.0000     4.0000 </r>
       <r>   -13.0653     0.0000     4.0000 </r>
       <r>   -12.9597     0.0000     4.0000 </r>
       <r>   -12.8540     0.0000     4.0000 </r>
       <r>   -12.7484     0.0000     4.0000 </r>
       <r>   -12.6427     0.0000     4.0000 </r>
       <r>   -12.5370     0.0000     4.0000 </r>
       <r>   -12.4314     0.0000     4.0000 </r>
       <r>   -12.3257     0.0000     4.0000 </r>
       <r>   -12.2200    -0.0000     4.0000 </r>
       <r>   -12.1144    -0.0000     4.0000 </r>
       <r>   -12.0087    -0.0000     4.0000 </r>
       <r>   -11.9031    -0.0000     4.0000 </r>
       <r>   -11.7974    -0.0000     4.0000 </r>
       <r>   -11.6917    -0.0044     3.9995 </r>
       <r>   -11.5861    -0.2889     3.9690 </r>
       <r>   -11.4804     0.9475     4.0691 </r>
       <r>   -11.3748    13.8070     5.5280 </r>
       <r>   -11.2691     4.5780     6.0117 </r>
       <r>   -11.1634    10.1147     7.0804 </r>
       <r>   -11.0578     8.7123     8.0010 </r>
       <r>   -10.9521     4.6040     8.4874 </r>
       <r>   -10.8465    13.7450     9.9397 </r>
       <r>   -10.7408     0.8534    10.0299 </r>
       <r>   -10.6351    -0.2790    10.0004 </r>
       <r>   -10.5295    -0.0042    10.0000 </r>
       <r>   -10.4238    -0.0305     9.9968 </r>
       <r>   -10.3181    -0.5922     9.9342 </r>
       <r>   -10.2125     5.3682    10.5014 </r>
       <r>   -10.1068    13.7085    11.9499 </r>
       <r>   -10.0012     0.7458    12.0287 </r>
       <r>    -9.8955    -0.2674    12.0004 </r>
       <r>    -9.7898    -0.0038    12.0000 </r>
       <r>    -9.6842    -0.0000    12.0000 </r>
       <r>    -9.5785    -0.0000    12.0000 </r>
       <r>    -9.4729    -0.0000    12.0000 </r>
       <r>    -9.3672    -0.0000    12.0000 </r>
       <r>    -9.2615    -0.0000    12.0000 </r>
       <r>    -9.1559    -0.0000    12.0000 </r>
       <r>    -9.0502    -0.0000    12.0000 </r>
       <r>    -8.9446    -0.0168    11.9982 </r>
       <r>    -8.8389    -0.5056    11.9448 </r>
       <r>    -8.7332     3.5876    12.3239 </r>
       <r>    -8.6276    14.4514    13.8508 </r>
       <r>    -8.5219     1.7883    14.0398 </r>
       <r>    -8.4163    -0.4853    13.9885 </r>
       <r>    -8.3106    -0.4068    13.9455 </r>
       <r>    -8.2049    10.5368    15.0588 </r>
       <r>    -8.0993     9.5167    16.0644 </r>
       <r>    -7.9936    -0.5258    16.0088 </r>
       <r>    -7.8879    -0.4595    15.9603 </r>
       <r>    -7.7823     1.6432    16.1339 </r>
       <r>    -7.6766    13.6753    17.5789 </r>
       <r>    -7.5710    15.9753    19.2668 </r>
       <r>    -7.4653    23.3641    21.7355 </r>
       <r>    -7.3596    20.7385    23.9268 </r>
       <r>    -7.2540    18.7565    25.9086 </r>
       <r>    -7.1483    13.5422    27.3395 </r>
       <r>    -7.0427    21.2937    29.5894 </r>
       <r>    -6.9370    12.2495    30.8837 </r>
       <r>    -6.8313    38.4850    34.9500 </r>
       <r>    -6.7257    27.9643    37.9048 </r>
       <r>    -6.6200    36.9653    41.8106 </r>
       <r>    -6.5144    44.2048    46.4813 </r>
       <r>    -6.4087    41.9941    50.9185 </r>
       <r>    -6.3030    40.2820    55.1747 </r>
       <r>    -6.1974    43.5722    59.7786 </r>
       <r>    -6.0917    35.7789    63.5590 </r>
       <r>    -5.9860    33.2059    67.0676 </r>
       <r>    -5.8804    24.6620    69.6734 </r>
       <r>    -5.7747    26.9331    72.5192 </r>
       <r>    -5.6691    47.6292    77.5517 </r>
       <r>    -5.5634    48.5023    82.6765 </r>
       <r>    -5.4577    58.3049    88.8371 </r>
       <r>    -5.3521    86.2905    97.9546 </r>
       <r>    -5.2464    71.1704   105.4746 </r>
       <r>    -5.1408    84.8083   114.4355 </r>
       <r>    -5.0351    71.2116   121.9598 </r>
       <r>    -4.9294    82.6066   130.6881 </r>
       <r>    -4.8238    86.5883   139.8371 </r>
       <r>    -4.7181    48.2606   144.9364 </r>
       <r>    -4.6125    11.0713   146.1062 </r>
       <r>    -4.5068    12.2804   147.4038 </r>
       <r>    -4.4011     5.9786   148.0355 </r>
       <r>    -4.2955    -0.4209   147.9910 </r>
       <r>    -4.1898    20.5198   150.1591 </r>
       <r>    -4.0841    18.0367   152.0649 </r>
       <r>    -3.9785    -0.3779   152.0250 </r>
       <r>    -3.8728    -0.2342   152.0002 </r>
       <r>    -3.7672    -0.0077   151.9994 </r>
       <r>    -3.6615    -0.3146   151.9662 </r>
       <r>    -3.5558     1.2023   152.0932 </r>
       <r>    -3.4502    14.1429   153.5876 </r>
       <r>    -3.3445     4.4816   154.0611 </r>
       <r>    -3.2389    -0.6297   153.9946 </r>
       <r>    -3.1332    -0.5997   153.9312 </r>
       <r>    -3.0275     8.6447   154.8446 </r>
       <r>    -2.9219    10.6728   155.9723 </r>
       <r>    -2.8162     6.6343   156.6733 </r>
       <r>    -2.7106    12.2753   157.9703 </r>
       <r>    -2.6049     1.3380   158.1117 </r>
       <r>    -2.4992    13.8532   159.5754 </r>
       <r>    -2.3936     3.9377   159.9915 </r>
       <r>    -2.2879     7.7470   160.8101 </r>
       <r>    -2.1822    11.2861   162.0026 </r>
       <r>    -2.0766     0.7438   162.0812 </r>
       <r>    -1.9709    14.3012   163.5922 </r>
       <r>    -1.8653    17.2517   165.4151 </r>
       <r>    -1.7596     8.2234   166.2840 </r>
       <r>    -1.6539    13.9285   167.7557 </r>
       <r>    -1.5483     2.3328   168.0021 </r>
       <r>    -1.4426     2.1044   168.2245 </r>
       <r>    -1.3370    14.5700   169.7640 </r>
       <r>    -1.2313     2.5406   170.0324 </r>
       <r>    -1.1256    -0.7889   169.9491 </r>
       <r>    -1.0200    11.1463   171.1268 </r>
       <r>    -0.9143    19.1605   173.1513 </r>
       <r>    -0.8087     8.6438   174.0646 </r>
       <r>    -0.7030    11.9478   175.3270 </r>
       <r>    -0.5973     6.9593   176.0624 </r>
       <r>    -0.4917    -1.5020   175.9037 </r>
       <r>    -0.3860     9.7125   176.9299 </r>
       <r>    -0.2803    24.7405   179.5440 </r>
       <r>    -0.1747    11.5771   180.7673 </r>
       <r>    -0.0690    11.7921   182.0132 </r>
       <r>     0.0366    -0.3886   181.9722 </r>
       <r>     0.1423     2.4821   182.2344 </r>
       <r>     0.2480    14.5819   183.7752 </r>
       <r>     0.3536     2.5737   184.0471 </r>
       <r>     0.4593    -0.4347   184.0012 </r>
       <r>     0.5649    -0.0111   184.0000 </r>
       <r>     0.6706    -0.0000   184.0000 </r>
       <r>     0.7763    -0.0000   184.0000 </r>
       <r>     0.8819    -0.0000   184.0000 </r>
       <r>     0.9876     0.0000   184.0000 </r>
       <r>     1.0932     0.0000   184.0000 </r>
       <r>     1.1989     0.0000   184.0000 </r>
       <r>     1.3046     0.0000   184.0000 </r>
       <r>     1.4102     0.0000   184.0000 </r>
       <r>     1.5159     0.0000   184.0000 </r>
       <r>     1.6216     0.0000   184.0000 </r>
       <r>     1.7272     0.0000   184.0000 </r>
      </set>
      <set comment="spin 2">
       <r>   -29.9711     0.0000     0.0000 </r>
       <r>   -29.8654     0.0000     0.0000 </r>
       <r>   -29.7598     0.0000     0.0000 </r>
       <r>   -29.6541     0.0000     0.0000 </r>
       <r>   -29.5485     0.0000     0.0000 </r>
       <r>   -29.4428     0.0000     0.0000 </r>
       <r>   -29.3371    -0.0000    -0.0000 </r>
       <r>   -29.2315    -0.0000    -0.0000 </r>
       <r>   -29.1258    -0.0000    -0.0000 </r>
       <r>   -29.0202    -0.0000    -0.0000 </r>
       <r>   -28.9145    -0.0000    -0.0000 </r>
       <r>   -28.8088    -0.0016    -0.0002 </r>
       <r>   -28.7032    -0.1677    -0.0179 </r>
       <r>   -28.5975    -0.0729    -0.0256 </r>
       <r>   -28.4919    12.0548     1.2481 </r>
       <r>   -28.3862     7.7858     2.0708 </r>
       <r>   -28.2805    -0.6105     2.0063 </r>
       <r>   -28.1749    -0.0592     2.0000 </r>
       <r>   -28.0692    -0.0003     2.0000 </r>
       <r>   -27.9635    -0.0000     2.0000 </r>
       <r>   -27.8579    -0.0000     2.0000 </r>
       <r>   -27.7522     0.0000     2.0000 </r>
       <r>   -27.6466     0.0000     2.0000 </r>
       <r>   -27.5409     0.0000     2.0000 </r>
       <r>   -27.4352     0.0000     2.0000 </r>
       <r>   -27.3296     0.0000     2.0000 </r>
       <r>   -27.2239     0.0000     2.0000 </r>
       <r>   -27.1183     0.0000     2.0000 </r>
       <r>   -27.0126     0.0000     2.0000 </r>
       <r>   -26.9069     0.0000     2.0000 </r>
       <r>   -26.8013     0.0000     2.0000 </r>
       <r>   -26.6956     0.0000     2.0000 </r>
       <r>   -26.5900     0.0000     2.0000 </r>
       <r>   -26.4843     0.0000     2.0000 </r>
       <r>   -26.3786     0.0000     2.0000 </r>
       <r>   -26.2730     0.0000     2.0000 </r>
       <r>   -26.1673     0.0000     2.0000 </r>
       <r>   -26.0616     0.0000     2.0000 </r>
       <r>   -25.9560     0.0000     2.0000 </r>
       <r>   -25.8503     0.0000     2.0000 </r>
       <r>   -25.7447     0.0000     2.0000 </r>
       <r>   -25.6390     0.0000     2.0000 </r>
       <r>   -25.5333     0.0000     2.0000 </r>
       <r>   -25.4277     0.0000     2.0000 </r>
       <r>   -25.3220     0.0000     2.0000 </r>
       <r>   -25.2164     0.0000     2.0000 </r>
       <r>   -25.1107     0.0000     2.0000 </r>
       <r>   -25.0050     0.0000     2.0000 </r>
       <r>   -24.8994     0.0000     2.0000 </r>
       <r>   -24.7937     0.0000     2.0000 </r>
       <r>   -24.6881     0.0000     2.0000 </r>
       <r>   -24.5824     0.0000     2.0000 </r>
       <r>   -24.4767     0.0000     2.0000 </r>
       <r>   -24.3711     0.0000     2.0000 </r>
       <r>   -24.2654     0.0000     2.0000 </r>
       <r>   -24.1597     0.0000     2.0000 </r>
       <r>   -24.0541     0.0000     2.0000 </r>
       <r>   -23.9484     0.0000     2.0000 </r>
       <r>   -23.8428     0.0000     2.0000 </r>
       <r>   -23.7371     0.0000     2.0000 </r>
       <r>   -23.6314     0.0000     2.0000 </r>
       <r>   -23.5258     0.0000     2.0000 </r>
       <r>   -23.4201     0.0000     2.0000 </r>
       <r>   -23.3145     0.0000     2.0000 </r>
       <r>   -23.2088     0.0000     2.0000 </r>
       <r>   -23.1031     0.0000     2.0000 </r>
       <r>   -22.9975     0.0000     2.0000 </r>
       <r>   -22.8918     0.0000     2.0000 </r>
       <r>   -22.7862     0.0000     2.0000 </r>
       <r>   -22.6805     0.0000     2.0000 </r>
       <r>   -22.5748     0.0000     2.0000 </r>
       <r>   -22.4692     0.0000     2.0000 </r>
       <r>   -22.3635     0.0000     2.0000 </r>
       <r>   -22.2579     0.0000     2.0000 </r>
       <r>   -22.1522     0.0000     2.0000 </r>
       <r>   -22.0465     0.0000     2.0000 </r>
       <r>   -21.9409     0.0000     2.0000 </r>
       <r>   -21.8352     0.0000     2.0000 </r>
       <r>   -21.7295     0.0000     2.0000 </r>
       <r>   -21.6239     0.0000     2.0000 </r>
       <r>   -21.5182     0.0000     2.0000 </r>
       <r>   -21.4126     0.0000     2.0000 </r>
       <r>   -21.3069     0.0000     2.0000 </r>
       <r>   -21.2012     0.0000     2.0000 </r>
       <r>   -21.0956     0.0000     2.0000 </r>
       <r>   -20.9899     0.0000     2.0000 </r>
       <r>   -20.8843     0.0000     2.0000 </r>
       <r>   -20.7786     0.0000     2.0000 </r>
       <r>   -20.6729     0.0000     2.0000 </r>
       <r>   -20.5673     0.0000     2.0000 </r>
       <r>   -20.4616     0.0000     2.0000 </r>
       <r>   -20.3560     0.0000     2.0000 </r>
       <r>   -20.2503     0.0000     2.0000 </r>
       <r>   -20.1446     0.0000     2.0000 </r>
       <r>   -20.0390     0.0000     2.0000 </r>
       <r>   -19.9333     0.0000     2.0000 </r>
       <r>   -19.8276     0.0000     2.0000 </r>
       <r>   -19.7220     0.0000     2.0000 </r>
       <r>   -19.6163     0.0000     2.0000 </r>
       <r>   -19.5107     0.0000     2.0000 </r>
       <r>   -19.4050     0.0000     2.0000 </r>
       <r>   -19.2993     0.0000     2.0000 </r>
       <r>   -19.1937     0.0000     2.0000 </r>
       <r>   -19.0880     0.0000     2.0000 </r>
       <r>   -18.9824     0.0000     2.0000 </r>
       <r>   -18.8767     0.0000     2.0000 </r>
       <r>   -18.7710     0.0000     2.0000 </r>
       <r>   -18.6654     0.0000     2.0000 </r>
       <r>   -18.5597     0.0000     2.0000 </r>
       <r>   -18.4541     0.0000     2.0000 </r>
       <r>   -18.3484     0.0000     2.0000 </r>
       <r>   -18.2427     0.0000     2.0000 </r>
       <r>   -18.1371     0.0000     2.0000 </r>
       <r>   -18.0314     0.0000     2.0000 </r>
       <r>   -17.9257     0.0000     2.0000 </r>
       <r>   -17.8201     0.0000     2.0000 </r>
       <r>   -17.7144     0.0000     2.0000 </r>
       <r>   -17.6088     0.0000     2.0000 </r>
       <r>   -17.5031     0.0000     2.0000 </r>
       <r>   -17.3974     0.0000     2.0000 </r>
       <r>   -17.2918     0.0000     2.0000 </r>
       <r>   -17.1861     0.0000     2.0000 </r>
       <r>   -17.0805     0.0000     2.0000 </r>
       <r>   -16.9748     0.0000     2.0000 </r>
       <r>   -16.8691     0.0000     2.0000 </r>
       <r>   -16.7635     0.0000     2.0000 </r>
       <r>   -16.6578     0.0000     2.0000 </r>
       <r>   -16.5522     0.0000     2.0000 </r>
       <r>   -16.4465     0.0000     2.0000 </r>
       <r>   -16.3408     0.0000     2.0000 </r>
       <r>   -16.2352     0.0000     2.0000 </r>
       <r>   -16.1295     0.0000     2.0000 </r>
       <r>   -16.0238     0.0000     2.0000 </r>
       <r>   -15.9182     0.0000     2.0000 </r>
       <r>   -15.8125     0.0000     2.0000 </r>
       <r>   -15.7069     0.0000     2.0000 </r>
       <r>   -15.6012     0.0000     2.0000 </r>
       <r>   -15.4955     0.0000     2.0000 </r>
       <r>   -15.3899     0.0000     2.0000 </r>
       <r>   -15.2842     0.0000     2.0000 </r>
       <r>   -15.1786     0.0000     2.0000 </r>
       <r>   -15.0729     0.0000     2.0000 </r>
       <r>   -14.9672     0.0000     2.0000 </r>
       <r>   -14.8616     0.0000     2.0000 </r>
       <r>   -14.7559     0.0000     2.0000 </r>
       <r>   -14.6503    -0.0000     2.0000 </r>
       <r>   -14.5446    -0.0000     2.0000 </r>
       <r>   -14.4389    -0.0000     2.0000 </r>
       <r>   -14.3333    -0.0000     2.0000 </r>
       <r>   -14.2276    -0.0000     2.0000 </r>
       <r>   -14.1219    -0.0000     2.0000 </r>
       <r>   -14.0163    -0.0179     1.9981 </r>
       <r>   -13.9106    -0.5157     1.9436 </r>
       <r>   -13.8050     3.7511     2.3400 </r>
       <r>   -13.6993    14.4065     3.8622 </r>
       <r>   -13.5936     1.6705     4.0387 </r>
       <r>   -13.4880    -0.3590     4.0007 </r>
       <r>   -13.3823    -0.0071     4.0000 </r>
       <r>   -13.2767    -0.0000     4.0000 </r>
       <r>   -13.1710    -0.0000     4.0000 </r>
       <r>   -13.0653    -0.0000     4.0000 </r>
       <r>   -12.9597     0.0000     4.0000 </r>
       <r>   -12.8540     0.0000     4.0000 </r>
       <r>   -12.7484     0.0000     4.0000 </r>
       <r>   -12.6427     0.0000     4.0000 </r>
       <r>   -12.5370     0.0000     4.0000 </r>
       <r>   -12.4314     0.0000     4.0000 </r>
       <r>   -12.3257     0.0000     4.0000 </r>
       <r>   -12.2200    -0.0000     4.0000 </r>
       <r>   -12.1144    -0.0000     4.0000 </r>
       <r>   -12.0087    -0.0000     4.0000 </r>
       <r>   -11.9031    -0.0000     4.0000 </r>
       <r>   -11.7974    -0.0000     4.0000 </r>
       <r>   -11.6917    -0.0006     3.9999 </r>
       <r>   -11.5861    -0.0952     3.9899 </r>
       <r>   -11.4804    -0.4992     3.9371 </r>
       <r>   -11.3748     9.6657     4.9584 </r>
       <r>   -11.2691     9.7252     5.9860 </r>
       <r>   -11.1634     7.2036     6.7471 </r>
       <r>   -11.0578    11.9416     8.0089 </r>
       <r>   -10.9521    -0.3817     7.9686 </r>
       <r>   -10.8465    10.6965     9.0988 </r>
       <r>   -10.7408     9.1600    10.0666 </r>
       <r>   -10.6351    -0.5469    10.0088 </r>
       <r>   -10.5295    -0.0832    10.0000 </r>
       <r>   -10.4238    -0.0049     9.9995 </r>
       <r>   -10.3181    -0.2877     9.9691 </r>
       <r>   -10.2125     0.9367    10.0681 </r>
       <r>   -10.1068    13.9165    11.5385 </r>
       <r>   -10.0012     4.9719    12.0639 </r>
       <r>    -9.8955    -0.5775    12.0029 </r>
       <r>    -9.7898    -0.0270    12.0000 </r>
       <r>    -9.6842    -0.0001    12.0000 </r>
       <r>    -9.5785    -0.0000    12.0000 </r>
       <r>    -9.4729    -0.0000    12.0000 </r>
       <r>    -9.3672    -0.0000    12.0000 </r>
       <r>    -9.2615    -0.0000    12.0000 </r>
       <r>    -9.1559    -0.0000    12.0000 </r>
       <r>    -9.0502    -0.0000    12.0000 </r>
       <r>    -8.9446    -0.0049    11.9995 </r>
       <r>    -8.8389    -0.3024    11.9675 </r>
       <r>    -8.7332     1.0797    12.0816 </r>
       <r>    -8.6276    14.0466    13.5658 </r>
       <r>    -8.5219     4.7000    14.0624 </r>
       <r>    -8.4163    -0.5853    14.0006 </r>
       <r>    -8.3106    -0.5544    13.9420 </r>
       <r>    -8.2049     3.9893    14.3635 </r>
       <r>    -8.0993    14.3313    15.8778 </r>
       <r>    -7.9936     1.5063    16.0369 </r>
       <r>    -7.8879    -0.4714    15.9871 </r>
       <r>    -7.7823    -0.4039    15.9444 </r>
       <r>    -7.6766    10.1327    17.0151 </r>
       <r>    -7.5710    16.9781    18.8090 </r>
       <r>    -7.4653    23.0855    21.2482 </r>
       <r>    -7.3596    15.8484    22.9228 </r>
       <r>    -7.2540    24.0180    25.4606 </r>
       <r>    -7.1483    11.8331    26.7108 </r>
       <r>    -7.0427    23.8805    29.2341 </r>
       <r>    -6.9370     9.5377    30.2419 </r>
       <r>    -6.8313    33.1174    33.7411 </r>
       <r>    -6.7257    32.9520    37.2228 </r>
       <r>    -6.6200    34.2022    40.8367 </r>
       <r>    -6.5144    43.4245    45.4249 </r>
       <r>    -6.4087    43.4700    50.0180 </r>
       <r>    -6.3030    38.2097    54.0553 </r>
       <r>    -6.1974    43.3979    58.6408 </r>
       <r>    -6.0917    38.6997    62.7298 </r>
       <r>    -5.9860    33.5877    66.2788 </r>
       <r>    -5.8804    28.5838    69.2990 </r>
       <r>    -5.7747    21.2737    71.5468 </r>
       <r>    -5.6691    44.0242    76.1984 </r>
       <r>    -5.5634    52.0806    81.7013 </r>
       <r>    -5.4577    48.2155    86.7958 </r>
       <r>    -5.3521    83.9304    95.6640 </r>
       <r>    -5.2464    74.6850   103.5553 </r>
       <r>    -5.1408    83.7775   112.4073 </r>
       <r>    -5.0351    74.3227   120.2603 </r>
       <r>    -4.9294    78.5170   128.5565 </r>
       <r>    -4.8238    81.5998   137.1784 </r>
       <r>    -4.7181    64.9894   144.0453 </r>
       <r>    -4.6125    18.1623   145.9643 </r>
       <r>    -4.5068     6.7845   146.6812 </r>
       <r>    -4.4011    12.4230   147.9938 </r>
       <r>    -4.2955    -0.7179   147.9179 </r>
       <r>    -4.1898     8.0746   148.7711 </r>
       <r>    -4.0841    26.6759   151.5897 </r>
       <r>    -3.9785     4.6594   152.0820 </r>
       <r>    -3.8728    -0.7507   152.0027 </r>
       <r>    -3.7672    -0.0256   152.0000 </r>
       <r>    -3.6615    -0.0001   152.0000 </r>
       <r>    -3.5558    -0.0067   151.9993 </r>
       <r>    -3.4502    -0.3515   151.9621 </r>
       <r>    -3.3445     1.5885   152.1300 </r>
       <r>    -3.2389    14.3641   153.6477 </r>
       <r>    -3.1332     3.5203   154.0197 </r>
       <r>    -3.0275     1.0291   154.1284 </r>
       <r>    -2.9219    14.0428   155.6122 </r>
       <r>    -2.8162     4.9150   156.1315 </r>
       <r>    -2.7106    13.4355   157.5511 </r>
       <r>    -2.6049     4.3489   158.0106 </r>
       <r>    -2.4992     2.6694   158.2927 </r>
       <r>    -2.3936    14.3793   159.8120 </r>
       <r>    -2.2879     1.6896   159.9905 </r>
       <r>    -2.1822    10.2224   161.0706 </r>
       <r>    -2.0766     8.9156   162.0127 </r>
       <r>    -1.9709     9.7452   163.0424 </r>
       <r>    -1.8653    12.0917   164.3200 </r>
       <r>    -1.7596    13.4235   165.7383 </r>
       <r>    -1.6539     8.2896   166.6142 </r>
       <r>    -1.5483    12.8928   167.9765 </r>
       <r>    -1.4426     0.1475   167.9921 </r>
       <r>    -1.3370     0.9109   168.0883 </r>
       <r>    -1.2313    14.0969   169.5778 </r>
       <r>    -1.1256     4.4303   170.0459 </r>
       <r>    -1.0200    -1.0127   169.9389 </r>
       <r>    -0.9143    11.8652   171.1926 </r>
       <r>    -0.8087    21.3897   173.4527 </r>
       <r>    -0.7030     6.6581   174.1562 </r>
       <r>    -0.5973    13.3450   175.5662 </r>
       <r>    -0.4917     4.5008   176.0418 </r>
       <r>    -0.3860    -0.4829   175.9908 </r>
       <r>    -0.2803    11.9915   177.2578 </r>
       <r>    -0.1747    13.7902   178.7149 </r>
       <r>    -0.0690    12.0446   179.9875 </r>
       <r>     0.0366     0.0274   179.9904 </r>
       <r>     0.1423    11.1622   181.1698 </r>
       <r>     0.2480    12.3096   182.4705 </r>
       <r>     0.3536    13.5889   183.9063 </r>
       <r>     0.4593     1.2147   184.0346 </r>
       <r>     0.5649    -0.3222   184.0006 </r>
       <r>     0.6706    -0.0056   184.0000 </r>
       <r>     0.7763    -0.0000   184.0000 </r>
       <r>     0.8819    -0.0000   184.0000 </r>
       <r>     0.9876    -0.0000   184.0000 </r>
       <r>     1.0932     0.0000   184.0000 </r>
       <r>     1.1989     0.0000   184.0000 </r>
       <r>     1.3046     0.0000   184.0000 </r>
       <r>     1.4102     0.0000   184.0000 </r>
       <r>     1.5159     0.0000   184.0000 </r>
       <r>     1.6216     0.0000   184.0000 </r>
       <r>     1.7272     0.0000   184.0000 </r>
      </set>
     </set>
    </array>
   </total>
  </dos>
 </calculation>
 <structure name="finalpos" >
  <crystal>
   <varray name="basis" >
    <v>      15.00000000       0.00000000       0.00000000 </v>
    <v>       0.00000000      15.00000000       0.00000000 </v>
    <v>       0.00000000       0.00000000      15.00000000 </v>
   </varray>
   <i name="volume">   3375.00000000 </i>
   <varray name="rec_basis" >
    <v>       0.06666667       0.00000000       0.00000000 </v>
    <v>       0.00000000       0.06666667       0.00000000 </v>
    <v>       0.00000000       0.00000000       0.06666667 </v>
   </varray>
  </crystal>
  <varray name="positions" >
   <v>       0.29224600       0.41698933       0.55801533 </v>
   <v>       0.37923400       0.54961867       0.49181533 </v>
   <v>       0.39146933       0.29428400       0.56224133 </v>
   <v>       0.53419000       0.50054667       0.48116000 </v>
   <v>       0.55147333       0.34279600       0.52957267 </v>
   <v>       0.45312067       0.43803600       0.61629667 </v>
   <v>       0.41631267       0.39802667       0.45176733 </v>
   <v>       0.22497800       0.57069600       0.54541667 </v>
   <v>       0.33567467       0.54824000       0.64839867 </v>
   <v>       0.35696200       0.68822000       0.56786600 </v>
   <v>       0.48974533       0.67038667       0.47246267 </v>
   <v>       0.61446667       0.47328067       0.61742667 </v>
   <v>       0.48190000       0.59493267       0.61359400 </v>
   <v>       0.72960667       0.49136667       0.65095733 </v>
   <v>       0.80543333       0.49782000       0.64183733 </v>
  </varray>
 </structure>
</modeling>
