 vasp.5.4.4.18Apr17-6-g9f103f2a35 (build May 08 2019 13:49:07) complex          
  
 executed on             LinuxIFC date 2019.11.13  11:45:11
 running on   24 total cores
 distrk:  each k-point on   24 cores,    1 groups
 distr:  one band on NCORES_PER_BAND=   6 cores,    4 groups


--------------------------------------------------------------------------------------------------------


 INCAR:
 POTCAR:    PAW_PBE Cu 22Jun2005                  
 POTCAR:    PAW_PBE C 08Apr2002                   
 POTCAR:    PAW_PBE O 08Apr2002                   
 POTCAR:    PAW_PBE Cu 22Jun2005                  
   VRHFIN =Cu: d10 p1                                                           
   LEXCH  = PE                                                                  
   EATOM  =  1390.9808 eV,  102.2342 Ry                                         
                                                                                
   TITEL  = PAW_PBE Cu 22Jun2005                                                
   LULTRA =        F    use ultrasoft PP ?                                      
   IUNSCR =        1    unscreen: 0-lin 1-nonlin 2-no                           
   RPACOR =    2.000    partial core radius                                     
   POMASS =   63.546; ZVAL   =   11.000    mass and valenz                      
   RCORE  =    2.300    outmost cutoff radius                                   
   RWIGS  =    2.200; RWIGS  =    1.164    wigner-seitz radius (au A)           
   ENMAX  =  295.446; ENMIN  =  221.585 eV                                      
   ICORE  =        3    local potential                                         
   LCOR   =        T    correct aug charges                                     
   LPAW   =        T    paw PP                                                  
   EAUG   =  586.980                                                            
   DEXC   =    0.000                                                            
   RMAX   =    2.344    core radius for proj-oper                               
   RAUG   =    1.300    factor for augmentation sphere                          
   RDEP   =    2.302    radius for radial grids                                 
   RDEPT  =    1.771    core radius for aug-charge                              
                                                                                
   Atomic configuration                                                         
    9 entries                                                                   
     n  l   j            E        occ.                                          
     1  0  0.50     -8850.2468   2.0000                                         
     2  0  0.50     -1062.3498   2.0000                                         
     2  1  1.50      -916.8226   6.0000                                         
     3  0  0.50      -114.6929   2.0000                                         
     3  1  1.50       -72.1325   6.0000                                         
     3  2  2.50        -5.0394  10.0000                                         
     4  0  0.50        -4.6097   1.0000                                         
     4  1  0.50        -4.0817   0.0000                                         
     4  3  2.50        -1.3606   0.0000                                         
   Description                                                                  
     l       E           TYP  RCUT    TYP  RCUT                                 
     2     -5.0393973     23  2.200                                             
     2     10.8846608     23  2.200                                             
     0     -4.6097109     23  2.200                                             
     0      8.2520465     23  2.200                                             
     1     -2.7211652     23  2.200                                             
     1     21.7055443     23  2.200                                             
     3      2.7211652     23  2.300                                             
  local pseudopotential read in
  partial core-charges read in
  partial kinetic energy density read in
  atomic valenz-charges read in
  non local Contribution for L=           2  read in
    real space projection operators read in
  non local Contribution for L=           2  read in
    real space projection operators read in
  non local Contribution for L=           0  read in
    real space projection operators read in
  non local Contribution for L=           0  read in
    real space projection operators read in
  non local Contribution for L=           1  read in
    real space projection operators read in
  non local Contribution for L=           1  read in
    real space projection operators read in
    PAW grid and wavefunctions read in
 
   number of l-projection  operators is LMAX  =           6
   number of lm-projection operators is LMMAX =          18
 
 POTCAR:    PAW_PBE C 08Apr2002                   
   VRHFIN =C: s2p2                                                              
   LEXCH  = PE                                                                  
   EATOM  =   147.1560 eV,   10.8157 Ry                                         
                                                                                
   TITEL  = PAW_PBE C 08Apr2002                                                 
   LULTRA =        F    use ultrasoft PP ?                                      
   IUNSCR =        1    unscreen: 0-lin 1-nonlin 2-no                           
   RPACOR =    1.200    partial core radius                                     
   POMASS =   12.011; ZVAL   =    4.000    mass and valenz                      
   RCORE  =    1.500    outmost cutoff radius                                   
   RWIGS  =    1.630; RWIGS  =    0.863    wigner-seitz radius (au A)           
   ENMAX  =  400.000; ENMIN  =  300.000 eV                                      
   ICORE  =        2    local potential                                         
   LCOR   =        T    correct aug charges                                     
   LPAW   =        T    paw PP                                                  
   EAUG   =  644.873                                                            
   DEXC   =    0.000                                                            
   RMAX   =    1.529    core radius for proj-oper                               
   RAUG   =    1.300    factor for augmentation sphere                          
   RDEP   =    1.501    radius for radial grids                                 
   RDEPT  =    1.300    core radius for aug-charge                              
                                                                                
   Atomic configuration                                                         
    4 entries                                                                   
     n  l   j            E        occ.                                          
     1  0  0.50      -273.3789   2.0000                                         
     2  0  0.50       -13.7508   2.0000                                         
     2  1  0.50        -5.2854   2.0000                                         
     3  2  1.50        -5.4423   0.0000                                         
   Description                                                                  
     l       E           TYP  RCUT    TYP  RCUT                                 
     0    -13.7508458     23  1.200                                             
     0     -8.2022199     23  1.200                                             
     1     -5.2854383     23  1.500                                             
     1     34.0145650     23  1.500                                             
     2     -5.4423304      7  1.500                                             
  local pseudopotential read in
  partial core-charges read in
  partial kinetic energy density read in
  atomic valenz-charges read in
  non local Contribution for L=           0  read in
    real space projection operators read in
  non local Contribution for L=           0  read in
    real space projection operators read in
  non local Contribution for L=           1  read in
    real space projection operators read in
  non local Contribution for L=           1  read in
    real space projection operators read in
    PAW grid and wavefunctions read in
 
   number of l-projection  operators is LMAX  =           4
   number of lm-projection operators is LMMAX =           8
 
 POTCAR:    PAW_PBE O 08Apr2002                   
   VRHFIN =O: s2p4                                                              
   LEXCH  = PE                                                                  
   EATOM  =   432.3788 eV,   31.7789 Ry                                         
                                                                                
   TITEL  = PAW_PBE O 08Apr2002                                                 
   LULTRA =        F    use ultrasoft PP ?                                      
   IUNSCR =        1    unscreen: 0-lin 1-nonlin 2-no                           
   RPACOR =    1.200    partial core radius                                     
   POMASS =   16.000; ZVAL   =    6.000    mass and valenz                      
   RCORE  =    1.520    outmost cutoff radius                                   
   RWIGS  =    1.550; RWIGS  =    0.820    wigner-seitz radius (au A)           
   ENMAX  =  400.000; ENMIN  =  300.000 eV                                      
   ICORE  =        2    local potential                                         
   LCOR   =        T    correct aug charges                                     
   LPAW   =        T    paw PP                                                  
   EAUG   =  605.392                                                            
   DEXC   =    0.000                                                            
   RMAX   =    1.553    core radius for proj-oper                               
   RAUG   =    1.300    factor for augmentation sphere                          
   RDEP   =    1.550    radius for radial grids                                 
   RDEPT  =    1.329    core radius for aug-charge                              
                                                                                
   Atomic configuration                                                         
    4 entries                                                                   
     n  l   j            E        occ.                                          
     1  0  0.50      -514.6923   2.0000                                         
     2  0  0.50       -23.9615   2.0000                                         
     2  1  0.50        -9.0305   4.0000                                         
     3  2  1.50        -9.5241   0.0000                                         
   Description                                                                  
     l       E           TYP  RCUT    TYP  RCUT                                 
     0    -23.9615318     23  1.200                                             
     0     -9.5240782     23  1.200                                             
     1     -9.0304911     23  1.520                                             
     1      8.1634956     23  1.520                                             
     2     -9.5240782      7  1.500                                             
  local pseudopotential read in
  partial core-charges read in
  partial kinetic energy density read in
  kinetic energy density of atom read in
  atomic valenz-charges read in
  non local Contribution for L=           0  read in
    real space projection operators read in
  non local Contribution for L=           0  read in
    real space projection operators read in
  non local Contribution for L=           1  read in
    real space projection operators read in
  non local Contribution for L=           1  read in
    real space projection operators read in
    PAW grid and wavefunctions read in
 
   number of l-projection  operators is LMAX  =           4
   number of lm-projection operators is LMMAX =           8
 
  PAW_PBE Cu 22Jun2005                  :
 energy of atom  1       EATOM=-1390.9808
 kinetic energy error for atom=    0.0033 (will be added to EATOM!!)
  PAW_PBE C 08Apr2002                   :
 energy of atom  2       EATOM= -147.1560
 kinetic energy error for atom=    0.0057 (will be added to EATOM!!)
  PAW_PBE O 08Apr2002                   :
 energy of atom  3       EATOM= -432.3788
 kinetic energy error for atom=    0.0168 (will be added to EATOM!!)
 
 
 POSCAR: Cu13 C1 O1                              
  positions in cartesian coordinates
  No initial velocities read in
 exchange correlation table for  LEXCH =        8
   RHO(1)=    0.500       N(1)  =     2000
   RHO(2)=  100.500       N(2)  =     4000
 


--------------------------------------------------------------------------------------------------------


 ion  position               nearest neighbor table
   1  0.292  0.419  0.550-   7 2.39   3 2.46   2 2.48   8 2.48   9 2.52   6 2.54
   2  0.377  0.548  0.491-   7 2.35   8 2.44  10 2.44   4 2.46   9 2.47   1 2.48  11 2.52  13 2.60
                             6 2.66
   3  0.396  0.293  0.563-   7 2.35   6 2.44   1 2.46   5 2.48
   4  0.535  0.506  0.483-  12 2.35   7 2.44   2 2.46  13 2.48   6 2.52   5 2.54  11 2.57
   5  0.549  0.344  0.531-   6 2.39   3 2.48   7 2.49  12 2.53   4 2.54
   6  0.449  0.438  0.611-  13 2.37   5 2.39   9 2.41   3 2.44   7 2.50   4 2.52   1 2.54  12 2.57
                             2 2.66
   7  0.415  0.401  0.451-   3 2.35   2 2.35   1 2.39   4 2.44   5 2.49   6 2.50
   8  0.226  0.571  0.547-   9 2.31   2 2.44   1 2.48  10 2.60
   9  0.336  0.545  0.651-   8 2.31   6 2.41  13 2.44  10 2.45   2 2.47   1 2.52
  10  0.351  0.687  0.572-   2 2.44   9 2.45  11 2.53  13 2.59   8 2.60
  11  0.490  0.671  0.477-  13 2.41   2 2.52  10 2.53   4 2.57
  12  0.616  0.475  0.614-  14 1.81   4 2.35   5 2.53   6 2.57  13 2.59
  13  0.488  0.591  0.617-   6 2.37  11 2.41   9 2.44   4 2.48  12 2.59  10 2.59   2 2.60
  14  0.733  0.490  0.638-  15 1.14  12 1.81
  15  0.809  0.489  0.639-  14 1.14
 

IMPORTANT INFORMATION: All symmetrisations will be switched off!
NOSYMM: (Re-)initialisation of all symmetry stuff for point group C_1.

 
 

Automatic generation of k-mesh.
 generate k-points for:    1    1    1
Space group operators:
 irot       det(A)        alpha          n_x          n_y          n_z        tau_x        tau_y        tau_z
    1     1.000000     0.000000     1.000000     0.000000     0.000000     0.000000     0.000000     0.000000
 
 Subroutine IBZKPT returns following result:
 ===========================================
 
 Found      1 irreducible k-points:
 
 Following reciprocal coordinates:
            Coordinates               Weight
  0.000000  0.000000  0.000000      1.000000
 
 Following cartesian coordinates:
            Coordinates               Weight
  0.000000  0.000000  0.000000      1.000000
 


--------------------------------------------------------------------------------------------------------




 Dimension of arrays:
   k-points           NKPTS =      1   k-points in BZ     NKDIM =      1   number of bands    NBANDS=     92
   number of dos      NEDOS =    301   number of ions     NIONS =     15
   non local maximal  LDIM  =      6   non local SUM 2l+1 LMDIM =     18
   total plane-waves  NPLWV = ******
   max r-space proj   IRMAX =      1   max aug-charges    IRDMAX=  15028
   dimension x,y,z NGX =   120 NGY =  120 NGZ =  120
   dimension x,y,z NGXF=   240 NGYF=  240 NGZF=  240
   support grid    NGXF=   240 NGYF=  240 NGZF=  240
   ions per type =              13   1   1
   NGX,Y,Z   is equivalent  to a cutoff of  13.30, 13.30, 13.30 a.u.
   NGXF,Y,Z  is equivalent  to a cutoff of  26.60, 26.60, 26.60 a.u.

 SYSTEM =  CuCO                                    
 POSCAR =  Cu13 C1 O1                              

 Startparameter for this run:
   NWRITE =      2    write-flag & timer
   PREC   = accura    normal or accurate (medium, high low for compatibility)
   ISTART =      0    job   : 0-new  1-cont  2-samecut
   ICHARG =      2    charge: 1-file 2-atom 10-const
   ISPIN  =      2    spin polarized calculation?
   LNONCOLLINEAR =      F non collinear calculations
   LSORBIT =      F    spin-orbit coupling
   INIWAV =      1    electr: 0-lowe 1-rand  2-diag
   LASPH  =      F    aspherical Exc in radial PAW
   METAGGA=      F    non-selfconsistent MetaGGA calc.

 Electronic Relaxation 1
   ENCUT  =  600.0 eV  44.10 Ry    6.64 a.u.  29.96 29.96 29.96*2*pi/ulx,y,z
   ENINI  =  600.0     initial cutoff
   ENAUG  =  644.9 eV  augmentation charge cutoff
   NELM   =    300;   NELMIN=  3; NELMDL= -5     # of ELM steps 
   EDIFF  = 0.1E-06   stopping-criterion for ELM
   LREAL  =      F    real-space projection
   NLSPLINE    = F    spline interpolate recip. space projectors
   LCOMPAT=      F    compatible to vasp.4.4
   GGA_COMPAT  = T    GGA compatible to vasp.4.4-vasp.4.6
   LMAXPAW     = -100 max onsite density
   LMAXMIX     =    2 max onsite mixed and CHGCAR
   VOSKOWN=      0    Vosko Wilk Nusair interpolation
   ROPT   =    0.00000   0.00000   0.00000
 Ionic relaxation
   EDIFFG = -.1E-02   stopping-criterion for IOM
   NSW    =      0    number of steps for IOM
   NBLOCK =      1;   KBLOCK =      1    inner block; outer block 
   IBRION =     -1    ionic relax: 0-MD 1-quasi-New 2-CG
   NFREE  =      0    steps in history (QN), initial steepest desc. (CG)
   ISIF   =      2    stress and relaxation
   IWAVPR =     10    prediction:  0-non 1-charg 2-wave 3-comb
   ISYM   =      0    0-nonsym 1-usesym 2-fastsym
   LCORR  =      T    Harris-Foulkes like correction to forces

   POTIM  = 0.5000    time-step for ionic-motion
   TEIN   =    0.0    initial temperature
   TEBEG  =    0.0;   TEEND  =   0.0 temperature during run
   SMASS  =  -3.00    Nose mass-parameter (am)
   estimated Nose-frequenzy (Omega)   =  0.10E-29 period in steps =****** mass=  -0.514E-26a.u.
   SCALEE = 1.0000    scale energy and forces
   NPACO  =    256;   APACO  = 16.0  distance and # of slots for P.C.
   PSTRESS=    0.0 pullay stress

  Mass of Ions in am
   POMASS =  63.55 12.01 16.00
  Ionic Valenz
   ZVAL   =  11.00  4.00  6.00
  Atomic Wigner-Seitz radii
   RWIGS  =  -1.00 -1.00 -1.00
  virtual crystal weights 
   VCA    =   1.00  1.00  1.00
   NELECT =     153.0000    total number of electrons
   NUPDOWN=       1.0000    fix difference up-down

 DOS related values:
   EMIN   =  10.00;   EMAX   =-10.00  energy-range for DOS
   EFERMI =   0.00
   ISMEAR =     1;   SIGMA  =   0.10  broadening in eV -4-tet -1-fermi 0-gaus

 Electronic relaxation 2 (details)
   IALGO  =     68    algorithm
   LDIAG  =      T    sub-space diagonalisation (order eigenvalues)
   LSUBROT=      F    optimize rotation matrix (better conditioning)
   TURBO    =      0    0=normal 1=particle mesh
   IRESTART =      0    0=no restart 2=restart with 2 vectors
   NREBOOT  =      0    no. of reboots
   NMIN     =      0    reboot dimension
   EREF     =   0.00    reference energy to select bands
   IMIX   =      4    mixing-type and parameters
     AMIX     =   0.40;   BMIX     =  1.00
     AMIX_MAG =   1.60;   BMIX_MAG =  1.00
     AMIN     =   0.10
     WC   =   100.;   INIMIX=   1;  MIXPRE=   1;  MAXMIX= -45

 Intra band minimization:
   WEIMIN = 0.0000     energy-eigenvalue tresh-hold
   EBREAK =  0.27E-09  absolut break condition
   DEPER  =   0.30     relativ break condition  

   TIME   =   0.40     timestep for ELM

  volume/ion in A,a.u.               =     225.00      1518.37
  Fermi-wavevector in a.u.,A,eV,Ry     =   0.583733  1.103095  4.636102  0.340744
  Thomas-Fermi vector in A             =   1.629149
 
 Write flags
   LWAVE        =      F    write WAVECAR
   LDOWNSAMPLE  =      F    k-point downsampling of WAVECAR
   LCHARG       =      F    write CHGCAR
   LVTOT        =      F    write LOCPOT, total local potential
   LVHAR        =      F    write LOCPOT, Hartree potential only
   LELF         =      F    write electronic localiz. function (ELF)
   LORBIT       =      0    0 simple, 1 ext, 2 COOP (PROOUT), +10 PAW based schemes


 Dipole corrections
   LMONO  =      F    monopole corrections only (constant potential shift)
   LDIPOL =      F    correct potential (dipole corrections)
   IDIPOL =      0    1-x, 2-y, 3-z, 4-all directions 
   EPSILON=  1.0000000 bulk dielectric constant

 Exchange correlation treatment:
   GGA     =    PE    GGA type
   LEXCH   =     8    internal setting for exchange type
   VOSKOWN=      0    Vosko Wilk Nusair interpolation
   LHFCALC =     F    Hartree Fock is set to
   LHFONE  =     F    Hartree Fock one center treatment
   AEXX    =    0.0000 exact exchange contribution

 Linear response parameters
   LEPSILON=     F    determine dielectric tensor
   LRPA    =     F    only Hartree local field effects (RPA)
   LNABLA  =     F    use nabla operator in PAW spheres
   LVEL    =     F    velocity operator in full k-point grid
   LINTERFAST=   F  fast interpolation
   KINTER  =     0    interpolate to denser k-point grid
   CSHIFT  =0.1000    complex shift for real part using Kramers Kronig
   OMEGAMAX=  -1.0    maximum frequency
   DEG_THRESHOLD= 0.2000000E-02 threshold for treating states as degnerate
   RTIME   =   -0.100 relaxation time in fs
  (WPLASMAI=    0.000 imaginary part of plasma frequency in eV, 0.658/RTIME)
   DFIELD  = 0.0000000 0.0000000 0.0000000 field for delta impulse in time
 
 Orbital magnetization related:
   ORBITALMAG=     F  switch on orbital magnetization
   LCHIMAG   =     F  perturbation theory with respect to B field
   DQ        =  0.001000  dq finite difference perturbation B field
   LLRAUG    =     F  two centre corrections for induced B field



--------------------------------------------------------------------------------------------------------


 Static calculation
 charge density and potential will be updated during run
 spin polarized calculation
 RMM-DIIS sequential band-by-band and
  variant of blocked Davidson during initial phase
 perform sub-space diagonalisation
    before iterative eigenvector-optimisation
 modified Broyden-mixing scheme, WC =      100.0
 initial mixing is a Kerker type mixing with AMIX =  0.4000 and BMIX =      1.0000
 Hartree-type preconditioning will be used
 using additional bands           15
 reciprocal scheme for non local part
 use partial core corrections
 calculate Harris-corrections to forces 
   (improved forces if not selfconsistent)
 use gradient corrections 
 use of overlap-Matrix (Vanderbilt PP)
 Methfessel and Paxton  Order N= 1 SIGMA  =   0.10


--------------------------------------------------------------------------------------------------------


  energy-cutoff  :      600.00
  volume of cell :     3375.00
      direct lattice vectors                 reciprocal lattice vectors
    15.000000000  0.000000000  0.000000000     0.066666667  0.000000000  0.000000000
     0.000000000 15.000000000  0.000000000     0.000000000  0.066666667  0.000000000
     0.000000000  0.000000000 15.000000000     0.000000000  0.000000000  0.066666667

  length of vectors
    15.000000000 15.000000000 15.000000000     0.066666667  0.066666667  0.066666667


 
 k-points in units of 2pi/SCALE and weight: read from INCAR                         
   0.00000000  0.00000000  0.00000000       1.000
 
 k-points in reciprocal lattice and weights: read from INCAR                         
   0.00000000  0.00000000  0.00000000       1.000
 
 position of ions in fractional coordinates (direct lattice) 
   0.29168600  0.41854867  0.55034533
   0.37696200  0.54779067  0.49149200
   0.39557867  0.29257200  0.56258333
   0.53504467  0.50582533  0.48336333
   0.54942000  0.34393533  0.53073600
   0.44863800  0.43838733  0.61075600
   0.41528333  0.40093067  0.45148933
   0.22600400  0.57058867  0.54691067
   0.33605267  0.54540200  0.65128800
   0.35139133  0.68720000  0.57190333
   0.49039867  0.67090667  0.47745333
   0.61571400  0.47512267  0.61391200
   0.48800800  0.59124000  0.61690733
   0.73313333  0.49032867  0.63795133
   0.80910667  0.48909400  0.63925667
 
 position of ions in cartesian coordinates  (Angst):
   4.37529000  6.27823000  8.25518000
   5.65443000  8.21686000  7.37238000
   5.93368000  4.38858000  8.43875000
   8.02567000  7.58738000  7.25045000
   8.24130000  5.15903000  7.96104000
   6.72957000  6.57581000  9.16134000
   6.22925000  6.01396000  6.77234000
   3.39006000  8.55883000  8.20366000
   5.04079000  8.18103000  9.76932000
   5.27087000 10.30800000  8.57855000
   7.35598000 10.06360000  7.16180000
   9.23571000  7.12684000  9.20868000
   7.32012000  8.86860000  9.25361000
  10.99700000  7.35493000  9.56927000
  12.13660000  7.33641000  9.58885000
 


--------------------------------------------------------------------------------------------------------


 k-point  1 :   0.0000 0.0000 0.0000  plane waves:  112451

 maximum and minimum number of plane-waves per node :     18753    18726

 maximum number of plane-waves:    112451
 maximum index in each direction: 
   IXMAX=   29   IYMAX=   29   IZMAX=   29
   IXMIN=  -29   IYMIN=  -29   IZMIN=  -29


 parallel 3D FFT for wavefunctions:
    minimum data exchange during FFTs selected (reduces bandwidth)
 parallel 3D FFT for charge:
    minimum data exchange during FFTs selected (reduces bandwidth)


 total amount of memory used by VASP MPI-rank0   158680. kBytes
=======================================================================

   base      :      30000. kBytes
   nonl-proj :      12601. kBytes
   fftplans  :      27994. kBytes
   grid      :      74150. kBytes
   one-center:         93. kBytes
   wavefun   :      13842. kBytes
 
     INWAV:  cpu time    0.0000: real time    0.0001
 Broyden mixing: mesh for mixing (old mesh)
   NGX = 59   NGY = 59   NGZ = 59
  (NGX  =240   NGY  =240   NGZ  =240)
  gives a total of 205379 points

 initial charge density was supplied:
 charge density of overlapping atoms calculated
 number of electron     153.0000000 magnetization       1.0000000
 keeping initial charge density in first step


--------------------------------------------------------------------------------------------------------


 Maximum index for augmentation-charges          711 (set IRDMAX)


--------------------------------------------------------------------------------------------------------


 First call to EWALD:  gamma=   0.118
 Maximum number of real-space cells 3x 3x 3
 Maximum number of reciprocal cells 3x 3x 3

    FEWALD:  cpu time    0.0016: real time    0.0020


--------------------------------------- Iteration      1(   1)  ---------------------------------------


    POTLOK:  cpu time    1.1789: real time    1.1832
    SETDIJ:  cpu time    0.0156: real time    0.0156
     EDDAV:  cpu time    7.7769: real time    7.7830
       DOS:  cpu time    0.0004: real time    0.0004
    --------------------------------------------
      LOOP:  cpu time    8.9718: real time    8.9822

 eigenvalue-minimisations  :   376
 total energy-change (2. order) : 0.1122163E+04  (-0.4465807E+04)
 number of electron     153.0000000 magnetization       1.0000000
 augmentation part      153.0000000 magnetization       1.0000000

 Free energy of the ion-electron system (eV)
  ---------------------------------------------------
  alpha Z        PSCENC =        41.16232785
  Ewald energy   TEWEN  =     16618.72189737
  -Hartree energ DENC   =    -33634.89161581
  -exchange      EXHF   =         0.00000000
  -V(xc)+E(xc)   XCENC  =       623.84459514
  PAW double counting   =     16421.75059358   -17800.06104309
  entropy T*S    EENTRO =         0.02122377
  eigenvalues    EBANDS =       189.39532845
  atomic energy  EATOM  =     18662.21924712
  Solvation  Ediel_sol  =         0.00000000
  ---------------------------------------------------
  free energy    TOTEN  =      1122.16255437 eV

  energy without entropy =     1122.14133059  energy(sigma->0) =     1122.15547977


--------------------------------------------------------------------------------------------------------




--------------------------------------- Iteration      1(   2)  ---------------------------------------


     EDDAV:  cpu time    7.6553: real time    7.6625
       DOS:  cpu time    0.0005: real time    0.0005
    --------------------------------------------
      LOOP:  cpu time    7.6558: real time    7.6630

 eigenvalue-minimisations  :   368
 total energy-change (2. order) :-0.1032700E+04  (-0.9812728E+03)
 number of electron     153.0000000 magnetization       1.0000000
 augmentation part      153.0000000 magnetization       1.0000000

 Free energy of the ion-electron system (eV)
  ---------------------------------------------------
  alpha Z        PSCENC =        41.16232785
  Ewald energy   TEWEN  =     16618.72189737
  -Hartree energ DENC   =    -33634.89161581
  -exchange      EXHF   =         0.00000000
  -V(xc)+E(xc)   XCENC  =       623.84459514
  PAW double counting   =     16421.75059358   -17800.06104309
  entropy T*S    EENTRO =         0.00586789
  eigenvalues    EBANDS =      -843.28953102
  atomic energy  EATOM  =     18662.21924712
  Solvation  Ediel_sol  =         0.00000000
  ---------------------------------------------------
  free energy    TOTEN  =        89.46233901 eV

  energy without entropy =       89.45647112  energy(sigma->0) =       89.46038305


--------------------------------------------------------------------------------------------------------




--------------------------------------- Iteration      1(   3)  ---------------------------------------


     EDDAV:  cpu time   11.9285: real time   11.9377
       DOS:  cpu time    0.0003: real time    0.0003
    --------------------------------------------
      LOOP:  cpu time   11.9288: real time   11.9380

 eigenvalue-minimisations  :   648
 total energy-change (2. order) :-0.1212369E+03  (-0.1130556E+03)
 number of electron     153.0000000 magnetization       1.0000000
 augmentation part      153.0000000 magnetization       1.0000000

 Free energy of the ion-electron system (eV)
  ---------------------------------------------------
  alpha Z        PSCENC =        41.16232785
  Ewald energy   TEWEN  =     16618.72189737
  -Hartree energ DENC   =    -33634.89161581
  -exchange      EXHF   =         0.00000000
  -V(xc)+E(xc)   XCENC  =       623.84459514
  PAW double counting   =     16421.75059358   -17800.06104309
  entropy T*S    EENTRO =         0.01775321
  eigenvalues    EBANDS =      -964.53836166
  atomic energy  EATOM  =     18662.21924712
  Solvation  Ediel_sol  =         0.00000000
  ---------------------------------------------------
  free energy    TOTEN  =       -31.77460631 eV

  energy without entropy =      -31.79235951  energy(sigma->0) =      -31.78052404


--------------------------------------------------------------------------------------------------------




--------------------------------------- Iteration      1(   4)  ---------------------------------------


     EDDAV:  cpu time   10.6251: real time   10.6351
       DOS:  cpu time    0.0003: real time    0.0003
    --------------------------------------------
      LOOP:  cpu time   10.6254: real time   10.6354

 eigenvalue-minimisations  :   560
 total energy-change (2. order) :-0.2401371E+02  (-0.2359715E+02)
 number of electron     153.0000000 magnetization       1.0000000
 augmentation part      153.0000000 magnetization       1.0000000

 Free energy of the ion-electron system (eV)
  ---------------------------------------------------
  alpha Z        PSCENC =        41.16232785
  Ewald energy   TEWEN  =     16618.72189737
  -Hartree energ DENC   =    -33634.89161581
  -exchange      EXHF   =         0.00000000
  -V(xc)+E(xc)   XCENC  =       623.84459514
  PAW double counting   =     16421.75059358   -17800.06104309
  entropy T*S    EENTRO =         0.00994105
  eigenvalues    EBANDS =      -988.54425604
  atomic energy  EATOM  =     18662.21924712
  Solvation  Ediel_sol  =         0.00000000
  ---------------------------------------------------
  free energy    TOTEN  =       -55.78831284 eV

  energy without entropy =      -55.79825390  energy(sigma->0) =      -55.79162653


--------------------------------------------------------------------------------------------------------




--------------------------------------- Iteration      1(   5)  ---------------------------------------


     EDDAV:  cpu time   12.1642: real time   12.1730
       DOS:  cpu time    0.0004: real time    0.0004
    CHARGE:  cpu time    0.7009: real time    0.7014
    MIXING:  cpu time    0.0222: real time    0.0222
    --------------------------------------------
      LOOP:  cpu time   12.8877: real time   12.8971

 eigenvalue-minimisations  :   664
 total energy-change (2. order) :-0.1816652E+01  (-0.1686506E+01)
 number of electron     153.0000015 magnetization       1.0000000
 augmentation part       87.4732426 magnetization       0.3685659

 Broyden mixing:
  rms(total) = 0.23841E+01    rms(broyden)= 0.23840E+01
  rms(prec ) = 0.27319E+01
  weight for this iteration     100.00

 Free energy of the ion-electron system (eV)
  ---------------------------------------------------
  alpha Z        PSCENC =        41.16232785
  Ewald energy   TEWEN  =     16618.72189737
  -Hartree energ DENC   =    -33634.89161581
  -exchange      EXHF   =         0.00000000
  -V(xc)+E(xc)   XCENC  =       623.84459514
  PAW double counting   =     16421.75059358   -17800.06104309
  entropy T*S    EENTRO =         0.01466527
  eigenvalues    EBANDS =      -990.36563206
  atomic energy  EATOM  =     18662.21924712
  Solvation  Ediel_sol  =         0.00000000
  ---------------------------------------------------
  free energy    TOTEN  =       -57.60496465 eV

  energy without entropy =      -57.61962992  energy(sigma->0) =      -57.60985307


--------------------------------------------------------------------------------------------------------




--------------------------------------- Iteration      1(   6)  ---------------------------------------


    POTLOK:  cpu time    1.1630: real time    1.1643
    SETDIJ:  cpu time    0.0164: real time    0.0164
    EDDIAG:  cpu time    1.0860: real time    1.0870
  RMM-DIIS:  cpu time    6.8725: real time    6.8774
    ORTHCH:  cpu time    0.0570: real time    0.0570
       DOS:  cpu time    0.0004: real time    0.0004
    CHARGE:  cpu time    0.6408: real time    0.6412
    MIXING:  cpu time    0.0229: real time    0.0229
    --------------------------------------------
      LOOP:  cpu time    9.8589: real time    9.8666

 eigenvalue-minimisations  :   422
 total energy-change (2. order) : 0.1166584E+01  (-0.1198038E+02)
 number of electron     153.0000016 magnetization       1.0000000
 augmentation part       95.6538980 magnetization       0.0705152

 Broyden mixing:
  rms(total) = 0.15469E+01    rms(broyden)= 0.15467E+01
  rms(prec ) = 0.17867E+01
  weight for this iteration     100.00

 eigenvalues of (default mixing * dielectric matrix)
  average eigenvalue GAMMA=   0.6174
  0.6174

 Free energy of the ion-electron system (eV)
  ---------------------------------------------------
  alpha Z        PSCENC =        41.16232785
  Ewald energy   TEWEN  =     16618.72189737
  -Hartree energ DENC   =    -33385.72795646
  -exchange      EXHF   =         0.00000000
  -V(xc)+E(xc)   XCENC  =       611.69168012
  PAW double counting   =     16728.29700115   -18052.62809071
  entropy T*S    EENTRO =         0.00932614
  eigenvalues    EBANDS =     -1280.18381345
  atomic energy  EATOM  =     18662.21924712
  Solvation  Ediel_sol  =         0.00000000
  ---------------------------------------------------
  free energy    TOTEN  =       -56.43838087 eV

  energy without entropy =      -56.44770701  energy(sigma->0) =      -56.44148959


--------------------------------------------------------------------------------------------------------




--------------------------------------- Iteration      1(   7)  ---------------------------------------


    POTLOK:  cpu time    1.1628: real time    1.1667
    SETDIJ:  cpu time    0.0167: real time    0.0166
    EDDIAG:  cpu time    1.0831: real time    1.0841
  RMM-DIIS:  cpu time    6.7731: real time    6.7780
    ORTHCH:  cpu time    0.0581: real time    0.0583
       DOS:  cpu time    0.0005: real time    0.0005
    CHARGE:  cpu time    0.6493: real time    0.6499
    MIXING:  cpu time    0.0250: real time    0.0250
    --------------------------------------------
      LOOP:  cpu time    9.7685: real time    9.7791

 eigenvalue-minimisations  :   383
 total energy-change (2. order) : 0.7110133E+01  (-0.2496189E+01)
 number of electron     153.0000015 magnetization       1.0000000
 augmentation part       92.8249207 magnetization       0.1038919

 Broyden mixing:
  rms(total) = 0.37668E+00    rms(broyden)= 0.37666E+00
  rms(prec ) = 0.46502E+00
  weight for this iteration     100.00

 eigenvalues of (default mixing * dielectric matrix)
  average eigenvalue GAMMA=   0.9235
  1.1868  0.6603

 Free energy of the ion-electron system (eV)
  ---------------------------------------------------
  alpha Z        PSCENC =        41.16232785
  Ewald energy   TEWEN  =     16618.72189737
  -Hartree energ DENC   =    -33521.80200374
  -exchange      EXHF   =         0.00000000
  -V(xc)+E(xc)   XCENC  =       616.08510993
  PAW double counting   =     17080.22288814   -18454.33464712
  entropy T*S    EENTRO =         0.00931319
  eigenvalues    EBANDS =     -1091.61238050
  atomic energy  EATOM  =     18662.21924712
  Solvation  Ediel_sol  =         0.00000000
  ---------------------------------------------------
  free energy    TOTEN  =       -49.32824775 eV

  energy without entropy =      -49.33756094  energy(sigma->0) =      -49.33135214


--------------------------------------------------------------------------------------------------------




--------------------------------------- Iteration      1(   8)  ---------------------------------------


    POTLOK:  cpu time    1.1641: real time    1.1652
    SETDIJ:  cpu time    0.0161: real time    0.0161
    EDDIAG:  cpu time    1.0848: real time    1.0856
  RMM-DIIS:  cpu time    7.5010: real time    7.5070
    ORTHCH:  cpu time    0.0580: real time    0.0580
       DOS:  cpu time    0.0004: real time    0.0004
    CHARGE:  cpu time    0.6520: real time    0.6523
    MIXING:  cpu time    0.0246: real time    0.0246
    --------------------------------------------
      LOOP:  cpu time   10.5011: real time   10.5092

 eigenvalue-minimisations  :   423
 total energy-change (2. order) : 0.2078282E+00  (-0.3924361E+00)
 number of electron     153.0000015 magnetization       1.0000000
 augmentation part       92.0555615 magnetization       0.1092137

 Broyden mixing:
  rms(total) = 0.29145E+00    rms(broyden)= 0.29143E+00
  rms(prec ) = 0.32802E+00
  weight for this iteration     100.00

 eigenvalues of (default mixing * dielectric matrix)
  average eigenvalue GAMMA=   0.9467
  1.4367  0.7017  0.7017

 Free energy of the ion-electron system (eV)
  ---------------------------------------------------
  alpha Z        PSCENC =        41.16232785
  Ewald energy   TEWEN  =     16618.72189737
  -Hartree energ DENC   =    -33570.20051708
  -exchange      EXHF   =         0.00000000
  -V(xc)+E(xc)   XCENC  =       616.48379724
  PAW double counting   =     17449.72920695   -18843.62920719
  entropy T*S    EENTRO =         0.00934930
  eigenvalues    EBANDS =     -1023.61652108
  atomic energy  EATOM  =     18662.21924712
  Solvation  Ediel_sol  =         0.00000000
  ---------------------------------------------------
  free energy    TOTEN  =       -49.12041952 eV

  energy without entropy =      -49.12976883  energy(sigma->0) =      -49.12353596


--------------------------------------------------------------------------------------------------------




--------------------------------------- Iteration      1(   9)  ---------------------------------------


    POTLOK:  cpu time    1.1690: real time    1.1706
    SETDIJ:  cpu time    0.0168: real time    0.0168
    EDDIAG:  cpu time    1.0849: real time    1.0860
  RMM-DIIS:  cpu time    7.0163: real time    7.0218
    ORTHCH:  cpu time    0.0580: real time    0.0580
       DOS:  cpu time    0.0004: real time    0.0004
    CHARGE:  cpu time    0.6509: real time    0.6512
    MIXING:  cpu time    0.0243: real time    0.0247
    --------------------------------------------
      LOOP:  cpu time   10.0207: real time   10.0296

 eigenvalue-minimisations  :   414
 total energy-change (2. order) : 0.4676699E-01  (-0.9436694E-01)
 number of electron     153.0000015 magnetization       1.0000000
 augmentation part       92.2660582 magnetization       0.0921358

 Broyden mixing:
  rms(total) = 0.17844E+00    rms(broyden)= 0.17844E+00
  rms(prec ) = 0.21193E+00
  weight for this iteration     100.00

 eigenvalues of (default mixing * dielectric matrix)
  average eigenvalue GAMMA=   1.0358
  2.0878  0.7758  0.7758  0.5039

 Free energy of the ion-electron system (eV)
  ---------------------------------------------------
  alpha Z        PSCENC =        41.16232785
  Ewald energy   TEWEN  =     16618.72189737
  -Hartree energ DENC   =    -33567.80126936
  -exchange      EXHF   =         0.00000000
  -V(xc)+E(xc)   XCENC  =       615.93182200
  PAW double counting   =     17574.63268771   -18970.40664455
  entropy T*S    EENTRO =         0.00932063
  eigenvalues    EBANDS =     -1023.54304130
  atomic energy  EATOM  =     18662.21924712
  Solvation  Ediel_sol  =         0.00000000
  ---------------------------------------------------
  free energy    TOTEN  =       -49.07365253 eV

  energy without entropy =      -49.08297316  energy(sigma->0) =      -49.07675941


--------------------------------------------------------------------------------------------------------




--------------------------------------- Iteration      1(  10)  ---------------------------------------


    POTLOK:  cpu time    1.1654: real time    1.1698
    SETDIJ:  cpu time    0.0165: real time    0.0165
    EDDIAG:  cpu time    1.0825: real time    1.0832
  RMM-DIIS:  cpu time    7.2826: real time    7.2881
    ORTHCH:  cpu time    0.0578: real time    0.0578
       DOS:  cpu time    0.0004: real time    0.0004
    CHARGE:  cpu time    0.6517: real time    0.6524
    MIXING:  cpu time    0.0253: real time    0.0253
    --------------------------------------------
      LOOP:  cpu time   10.2822: real time   10.2935

 eigenvalue-minimisations  :   415
 total energy-change (2. order) : 0.5539895E-01  (-0.2370413E-01)
 number of electron     153.0000015 magnetization       1.0000000
 augmentation part       92.4457554 magnetization       0.0803434

 Broyden mixing:
  rms(total) = 0.54999E-01    rms(broyden)= 0.54994E-01
  rms(prec ) = 0.72698E-01
  weight for this iteration     100.00

 eigenvalues of (default mixing * dielectric matrix)
  average eigenvalue GAMMA=   1.0356
  2.1285  1.0731  0.7622  0.7622  0.4520

 Free energy of the ion-electron system (eV)
  ---------------------------------------------------
  alpha Z        PSCENC =        41.16232785
  Ewald energy   TEWEN  =     16618.72189737
  -Hartree energ DENC   =    -33565.57160662
  -exchange      EXHF   =         0.00000000
  -V(xc)+E(xc)   XCENC  =       615.55094253
  PAW double counting   =     17672.19574503   -19069.39084510
  entropy T*S    EENTRO =         0.00934736
  eigenvalues    EBANDS =     -1023.91530913
  atomic energy  EATOM  =     18662.21924712
  Solvation  Ediel_sol  =         0.00000000
  ---------------------------------------------------
  free energy    TOTEN  =       -49.01825358 eV

  energy without entropy =      -49.02760094  energy(sigma->0) =      -49.02136937


--------------------------------------------------------------------------------------------------------




--------------------------------------- Iteration      1(  11)  ---------------------------------------


    POTLOK:  cpu time    1.1646: real time    1.1652
    SETDIJ:  cpu time    0.0167: real time    0.0167
    EDDIAG:  cpu time    1.0826: real time    1.0833
  RMM-DIIS:  cpu time    7.2619: real time    7.2674
    ORTHCH:  cpu time    0.0552: real time    0.0554
       DOS:  cpu time    0.0004: real time    0.0004
    CHARGE:  cpu time    0.6495: real time    0.6497
    MIXING:  cpu time    0.0256: real time    0.0256
    --------------------------------------------
      LOOP:  cpu time   10.2564: real time   10.2638

 eigenvalue-minimisations  :   430
 total energy-change (2. order) : 0.9401810E-02  (-0.6361554E-02)
 number of electron     153.0000015 magnetization       1.0000000
 augmentation part       92.3827384 magnetization       0.0844158

 Broyden mixing:
  rms(total) = 0.38694E-01    rms(broyden)= 0.38692E-01
  rms(prec ) = 0.51112E-01
  weight for this iteration     100.00

 eigenvalues of (default mixing * dielectric matrix)
  average eigenvalue GAMMA=   1.0421
  2.1492  1.4907  0.7630  0.7630  0.6339  0.4528

 Free energy of the ion-electron system (eV)
  ---------------------------------------------------
  alpha Z        PSCENC =        41.16232785
  Ewald energy   TEWEN  =     16618.72189737
  -Hartree energ DENC   =    -33572.66885800
  -exchange      EXHF   =         0.00000000
  -V(xc)+E(xc)   XCENC  =       615.67624646
  PAW double counting   =     17717.45607503   -19116.60716173
  entropy T*S    EENTRO =         0.00931348
  eigenvalues    EBANDS =     -1014.97793936
  atomic energy  EATOM  =     18662.21924712
  Solvation  Ediel_sol  =         0.00000000
  ---------------------------------------------------
  free energy    TOTEN  =       -49.00885177 eV

  energy without entropy =      -49.01816526  energy(sigma->0) =      -49.01195627


--------------------------------------------------------------------------------------------------------




--------------------------------------- Iteration      1(  12)  ---------------------------------------


    POTLOK:  cpu time    1.1646: real time    1.1658
    SETDIJ:  cpu time    0.0165: real time    0.0165
    EDDIAG:  cpu time    1.0869: real time    1.0877
  RMM-DIIS:  cpu time    7.1397: real time    7.1447
    ORTHCH:  cpu time    0.0544: real time    0.0544
       DOS:  cpu time    0.0004: real time    0.0004
    CHARGE:  cpu time    0.6514: real time    0.6520
    MIXING:  cpu time    0.0271: real time    0.0271
    --------------------------------------------
      LOOP:  cpu time   10.1411: real time   10.1486

 eigenvalue-minimisations  :   424
 total energy-change (2. order) : 0.2738072E-02  (-0.1913390E-02)
 number of electron     153.0000015 magnetization       1.0000000
 augmentation part       92.3797578 magnetization       0.0841729

 Broyden mixing:
  rms(total) = 0.16748E-01    rms(broyden)= 0.16747E-01
  rms(prec ) = 0.28985E-01
  weight for this iteration     100.00

 eigenvalues of (default mixing * dielectric matrix)
  average eigenvalue GAMMA=   1.0738
  2.3658  1.6804  1.0590  0.7174  0.7174  0.5283  0.4485

 Free energy of the ion-electron system (eV)
  ---------------------------------------------------
  alpha Z        PSCENC =        41.16232785
  Ewald energy   TEWEN  =     16618.72189737
  -Hartree energ DENC   =    -33575.79735138
  -exchange      EXHF   =         0.00000000
  -V(xc)+E(xc)   XCENC  =       615.71668583
  PAW double counting   =     17727.82474956   -19127.36711805
  entropy T*S    EENTRO =         0.00933259
  eigenvalues    EBANDS =     -1011.49588459
  atomic energy  EATOM  =     18662.21924712
  Solvation  Ediel_sol  =         0.00000000
  ---------------------------------------------------
  free energy    TOTEN  =       -49.00611370 eV

  energy without entropy =      -49.01544629  energy(sigma->0) =      -49.00922457


--------------------------------------------------------------------------------------------------------




--------------------------------------- Iteration      1(  13)  ---------------------------------------


    POTLOK:  cpu time    1.1650: real time    1.1688
    SETDIJ:  cpu time    0.0168: real time    0.0168
    EDDIAG:  cpu time    1.0819: real time    1.0833
  RMM-DIIS:  cpu time    7.9207: real time    7.9263
    ORTHCH:  cpu time    0.0541: real time    0.0542
       DOS:  cpu time    0.0004: real time    0.0004
    CHARGE:  cpu time    0.6487: real time    0.6491
    MIXING:  cpu time    0.0291: real time    0.0291
    --------------------------------------------
      LOOP:  cpu time   10.9169: real time   10.9281

 eigenvalue-minimisations  :   485
 total energy-change (2. order) : 0.7866895E-03  (-0.5854138E-03)
 number of electron     153.0000015 magnetization       1.0000000
 augmentation part       92.3867749 magnetization       0.0842942

 Broyden mixing:
  rms(total) = 0.97400E-02    rms(broyden)= 0.97395E-02
  rms(prec ) = 0.19672E-01
  weight for this iteration     100.00

 eigenvalues of (default mixing * dielectric matrix)
  average eigenvalue GAMMA=   1.1104
  2.3965  1.8746  1.3967  0.7761  0.7761  0.7068  0.5175  0.4384

 Free energy of the ion-electron system (eV)
  ---------------------------------------------------
  alpha Z        PSCENC =        41.16232785
  Ewald energy   TEWEN  =     16618.72189737
  -Hartree energ DENC   =    -33579.95634694
  -exchange      EXHF   =         0.00000000
  -V(xc)+E(xc)   XCENC  =       615.73425807
  PAW double counting   =     17734.19042350   -19133.84438937
  entropy T*S    EENTRO =         0.00932378
  eigenvalues    EBANDS =     -1007.24206839
  atomic energy  EATOM  =     18662.21924712
  Solvation  Ediel_sol  =         0.00000000
  ---------------------------------------------------
  free energy    TOTEN  =       -49.00532701 eV

  energy without entropy =      -49.01465079  energy(sigma->0) =      -49.00843494


--------------------------------------------------------------------------------------------------------




--------------------------------------- Iteration      1(  14)  ---------------------------------------


    POTLOK:  cpu time    1.1646: real time    1.1660
    SETDIJ:  cpu time    0.0164: real time    0.0164
    EDDIAG:  cpu time    1.0821: real time    1.0829
  RMM-DIIS:  cpu time    6.9575: real time    6.9627
    ORTHCH:  cpu time    0.0543: real time    0.0543
       DOS:  cpu time    0.0004: real time    0.0004
    CHARGE:  cpu time    0.6505: real time    0.6512
    MIXING:  cpu time    0.0287: real time    0.0287
    --------------------------------------------
      LOOP:  cpu time    9.9546: real time    9.9626

 eigenvalue-minimisations  :   413
 total energy-change (2. order) :-0.1204298E-02  (-0.2925964E-03)
 number of electron     153.0000015 magnetization       1.0000000
 augmentation part       92.3967203 magnetization       0.0841075

 Broyden mixing:
  rms(total) = 0.99535E-02    rms(broyden)= 0.99532E-02
  rms(prec ) = 0.16035E-01
  weight for this iteration     100.00

 eigenvalues of (default mixing * dielectric matrix)
  average eigenvalue GAMMA=   1.1370
  2.3809  2.3809  1.3584  0.9783  0.7697  0.7697  0.6602  0.4937  0.4409

 Free energy of the ion-electron system (eV)
  ---------------------------------------------------
  alpha Z        PSCENC =        41.16232785
  Ewald energy   TEWEN  =     16618.72189737
  -Hartree energ DENC   =    -33584.99828746
  -exchange      EXHF   =         0.00000000
  -V(xc)+E(xc)   XCENC  =       615.76679606
  PAW double counting   =     17726.62132744   -19125.95594140
  entropy T*S    EENTRO =         0.00931994
  eigenvalues    EBANDS =     -1002.55321822
  atomic energy  EATOM  =     18662.21924712
  Solvation  Ediel_sol  =         0.00000000
  ---------------------------------------------------
  free energy    TOTEN  =       -49.00653131 eV

  energy without entropy =      -49.01585125  energy(sigma->0) =      -49.00963796


--------------------------------------------------------------------------------------------------------




--------------------------------------- Iteration      1(  15)  ---------------------------------------


    POTLOK:  cpu time    1.1661: real time    1.1670
    SETDIJ:  cpu time    0.0161: real time    0.0161
    EDDIAG:  cpu time    1.0810: real time    1.0819
  RMM-DIIS:  cpu time    6.8772: real time    6.8825
    ORTHCH:  cpu time    0.0545: real time    0.0545
       DOS:  cpu time    0.0004: real time    0.0004
    CHARGE:  cpu time    0.6514: real time    0.6519
    MIXING:  cpu time    0.0288: real time    0.0288
    --------------------------------------------
      LOOP:  cpu time    9.8756: real time    9.8831

 eigenvalue-minimisations  :   403
 total energy-change (2. order) :-0.1123372E-02  (-0.1409736E-03)
 number of electron     153.0000015 magnetization       1.0000000
 augmentation part       92.3906806 magnetization       0.0843736

 Broyden mixing:
  rms(total) = 0.57493E-02    rms(broyden)= 0.57491E-02
  rms(prec ) = 0.10108E-01
  weight for this iteration     100.00

 eigenvalues of (default mixing * dielectric matrix)
  average eigenvalue GAMMA=   1.1773
  2.6695  2.6695  1.3618  1.3618  0.7649  0.7649  0.7318  0.5389  0.4415  0.4683

 Free energy of the ion-electron system (eV)
  ---------------------------------------------------
  alpha Z        PSCENC =        41.16232785
  Ewald energy   TEWEN  =     16618.72189737
  -Hartree energ DENC   =    -33588.36507562
  -exchange      EXHF   =         0.00000000
  -V(xc)+E(xc)   XCENC  =       615.80293181
  PAW double counting   =     17721.86410398   -19121.11189618
  entropy T*S    EENTRO =         0.00932020
  eigenvalues    EBANDS =      -999.31051120
  atomic energy  EATOM  =     18662.21924712
  Solvation  Ediel_sol  =         0.00000000
  ---------------------------------------------------
  free energy    TOTEN  =       -49.00765468 eV

  energy without entropy =      -49.01697488  energy(sigma->0) =      -49.01076141


--------------------------------------------------------------------------------------------------------




--------------------------------------- Iteration      1(  16)  ---------------------------------------


    POTLOK:  cpu time    1.1645: real time    1.1678
    SETDIJ:  cpu time    0.0165: real time    0.0165
    EDDIAG:  cpu time    1.0826: real time    1.0836
  RMM-DIIS:  cpu time    6.5488: real time    6.5535
    ORTHCH:  cpu time    0.0544: real time    0.0544
       DOS:  cpu time    0.0004: real time    0.0004
    CHARGE:  cpu time    0.6538: real time    0.6543
    MIXING:  cpu time    0.0300: real time    0.0300
    --------------------------------------------
      LOOP:  cpu time    9.5509: real time    9.5605

 eigenvalue-minimisations  :   393
 total energy-change (2. order) :-0.1454842E-02  (-0.7177488E-04)
 number of electron     153.0000015 magnetization       1.0000000
 augmentation part       92.3883003 magnetization       0.0845791

 Broyden mixing:
  rms(total) = 0.41252E-02    rms(broyden)= 0.41250E-02
  rms(prec ) = 0.68690E-02
  weight for this iteration     100.00

 eigenvalues of (default mixing * dielectric matrix)
  average eigenvalue GAMMA=   1.2182
  3.1833  2.5982  1.5405  1.5405  0.7866  0.7866  0.8007  0.7300  0.4396  0.4970
  0.4970

 Free energy of the ion-electron system (eV)
  ---------------------------------------------------
  alpha Z        PSCENC =        41.16232785
  Ewald energy   TEWEN  =     16618.72189737
  -Hartree energ DENC   =    -33591.04813200
  -exchange      EXHF   =         0.00000000
  -V(xc)+E(xc)   XCENC  =       615.82838229
  PAW double counting   =     17717.50523380   -19116.66898652
  entropy T*S    EENTRO =         0.00931674
  eigenvalues    EBANDS =      -996.73839616
  atomic energy  EATOM  =     18662.21924712
  Solvation  Ediel_sol  =         0.00000000
  ---------------------------------------------------
  free energy    TOTEN  =       -49.00910952 eV

  energy without entropy =      -49.01842626  energy(sigma->0) =      -49.01221510


--------------------------------------------------------------------------------------------------------




--------------------------------------- Iteration      1(  17)  ---------------------------------------


    POTLOK:  cpu time    1.1637: real time    1.1647
    SETDIJ:  cpu time    0.0162: real time    0.0162
    EDDIAG:  cpu time    1.0820: real time    1.0827
  RMM-DIIS:  cpu time    6.7967: real time    6.8015
    ORTHCH:  cpu time    0.0547: real time    0.0548
       DOS:  cpu time    0.0004: real time    0.0004
    CHARGE:  cpu time    0.6533: real time    0.6549
    MIXING:  cpu time    0.0307: real time    0.0307
    --------------------------------------------
      LOOP:  cpu time    9.7976: real time    9.8057

 eigenvalue-minimisations  :   396
 total energy-change (2. order) :-0.1787384E-02  (-0.4733576E-04)
 number of electron     153.0000015 magnetization       1.0000000
 augmentation part       92.3886672 magnetization       0.0844540

 Broyden mixing:
  rms(total) = 0.24162E-02    rms(broyden)= 0.24161E-02
  rms(prec ) = 0.40629E-02
  weight for this iteration     100.00

 eigenvalues of (default mixing * dielectric matrix)
  average eigenvalue GAMMA=   1.3321
  4.3278  2.5836  2.1388  1.2960  1.2960  0.7773  0.7773  0.7040  0.6544  0.4401
  0.5088  0.4810

 Free energy of the ion-electron system (eV)
  ---------------------------------------------------
  alpha Z        PSCENC =        41.16232785
  Ewald energy   TEWEN  =     16618.72189737
  -Hartree energ DENC   =    -33593.14294652
  -exchange      EXHF   =         0.00000000
  -V(xc)+E(xc)   XCENC  =       615.83650827
  PAW double counting   =     17715.80992337   -19114.95441932
  entropy T*S    EENTRO =         0.00931670
  eigenvalues    EBANDS =      -994.67275174
  atomic energy  EATOM  =     18662.21924712
  Solvation  Ediel_sol  =         0.00000000
  ---------------------------------------------------
  free energy    TOTEN  =       -49.01089691 eV

  energy without entropy =      -49.02021361  energy(sigma->0) =      -49.01400247


--------------------------------------------------------------------------------------------------------




--------------------------------------- Iteration      1(  18)  ---------------------------------------


    POTLOK:  cpu time    1.1646: real time    1.1653
    SETDIJ:  cpu time    0.0162: real time    0.0162
    EDDIAG:  cpu time    1.0813: real time    1.0822
  RMM-DIIS:  cpu time    6.7820: real time    6.7869
    ORTHCH:  cpu time    0.0545: real time    0.0546
       DOS:  cpu time    0.0004: real time    0.0004
    CHARGE:  cpu time    0.6525: real time    0.6529
    MIXING:  cpu time    0.0320: real time    0.0320
    --------------------------------------------
      LOOP:  cpu time    9.7836: real time    9.7905

 eigenvalue-minimisations  :   410
 total energy-change (2. order) :-0.9248704E-03  (-0.2267527E-04)
 number of electron     153.0000015 magnetization       1.0000000
 augmentation part       92.3870017 magnetization       0.0845961

 Broyden mixing:
  rms(total) = 0.15346E-02    rms(broyden)= 0.15345E-02
  rms(prec ) = 0.26882E-02
  weight for this iteration     100.00

 eigenvalues of (default mixing * dielectric matrix)
  average eigenvalue GAMMA=   1.3683
  5.0816  2.6568  2.2053  1.3639  1.3639  0.8326  0.8326  0.7209  0.7209  0.5927
  0.4403  0.5046  0.4718

 Free energy of the ion-electron system (eV)
  ---------------------------------------------------
  alpha Z        PSCENC =        41.16232785
  Ewald energy   TEWEN  =     16618.72189737
  -Hartree energ DENC   =    -33594.26270526
  -exchange      EXHF   =         0.00000000
  -V(xc)+E(xc)   XCENC  =       615.84084202
  PAW double counting   =     17715.68060048   -19114.85261825
  entropy T*S    EENTRO =         0.00931681
  eigenvalues    EBANDS =      -993.53072991
  atomic energy  EATOM  =     18662.21924712
  Solvation  Ediel_sol  =         0.00000000
  ---------------------------------------------------
  free energy    TOTEN  =       -49.01182178 eV

  energy without entropy =      -49.02113859  energy(sigma->0) =      -49.01492738


--------------------------------------------------------------------------------------------------------




--------------------------------------- Iteration      1(  19)  ---------------------------------------


    POTLOK:  cpu time    1.1652: real time    1.1660
    SETDIJ:  cpu time    0.0163: real time    0.0163
    EDDIAG:  cpu time    1.0803: real time    1.0810
  RMM-DIIS:  cpu time    7.5260: real time    7.5317
    ORTHCH:  cpu time    0.0551: real time    0.0552
       DOS:  cpu time    0.0004: real time    0.0004
    CHARGE:  cpu time    0.6522: real time    0.6527
    MIXING:  cpu time    0.0351: real time    0.0351
    --------------------------------------------
      LOOP:  cpu time   10.5307: real time   10.5384

 eigenvalue-minimisations  :   456
 total energy-change (2. order) :-0.7360352E-03  (-0.9511833E-05)
 number of electron     153.0000015 magnetization       1.0000000
 augmentation part       92.3868488 magnetization       0.0846456

 Broyden mixing:
  rms(total) = 0.10697E-02    rms(broyden)= 0.10696E-02
  rms(prec ) = 0.18998E-02
  weight for this iteration     100.00

 eigenvalues of (default mixing * dielectric matrix)
  average eigenvalue GAMMA=   1.4338
  5.9324  2.6813  2.2001  1.6043  1.6043  1.1042  0.7619  0.7619  0.7950  0.6588
  0.5538  0.4400  0.5044  0.4712

 Free energy of the ion-electron system (eV)
  ---------------------------------------------------
  alpha Z        PSCENC =        41.16232785
  Ewald energy   TEWEN  =     16618.72189737
  -Hartree energ DENC   =    -33594.68845025
  -exchange      EXHF   =         0.00000000
  -V(xc)+E(xc)   XCENC  =       615.84110345
  PAW double counting   =     17715.64359981   -19114.82157054
  entropy T*S    EENTRO =         0.00931700
  eigenvalues    EBANDS =      -993.10002961
  atomic energy  EATOM  =     18662.21924712
  Solvation  Ediel_sol  =         0.00000000
  ---------------------------------------------------
  free energy    TOTEN  =       -49.01255781 eV

  energy without entropy =      -49.02187482  energy(sigma->0) =      -49.01566348


--------------------------------------------------------------------------------------------------------




--------------------------------------- Iteration      1(  20)  ---------------------------------------


    POTLOK:  cpu time    1.1653: real time    1.1689
    SETDIJ:  cpu time    0.0168: real time    0.0168
    EDDIAG:  cpu time    1.0807: real time    1.0820
  RMM-DIIS:  cpu time    6.9276: real time    6.9341
    ORTHCH:  cpu time    0.0545: real time    0.0545
       DOS:  cpu time    0.0004: real time    0.0004
    CHARGE:  cpu time    0.6541: real time    0.6548
    MIXING:  cpu time    0.0347: real time    0.0347
    --------------------------------------------
      LOOP:  cpu time    9.9342: real time    9.9463

 eigenvalue-minimisations  :   405
 total energy-change (2. order) :-0.5560831E-03  (-0.4233252E-05)
 number of electron     153.0000015 magnetization       1.0000000
 augmentation part       92.3880063 magnetization       0.0846544

 Broyden mixing:
  rms(total) = 0.74639E-03    rms(broyden)= 0.74636E-03
  rms(prec ) = 0.12693E-02
  weight for this iteration     100.00

 eigenvalues of (default mixing * dielectric matrix)
  average eigenvalue GAMMA=   1.4637
  6.3828  2.7627  2.3151  1.9888  1.3406  1.3406  0.8786  0.8786  0.7358  0.7358
  0.6348  0.4401  0.5379  0.5112  0.4727

 Free energy of the ion-electron system (eV)
  ---------------------------------------------------
  alpha Z        PSCENC =        41.16232785
  Ewald energy   TEWEN  =     16618.72189737
  -Hartree energ DENC   =    -33594.78341960
  -exchange      EXHF   =         0.00000000
  -V(xc)+E(xc)   XCENC  =       615.83893501
  PAW double counting   =     17715.84981364   -19115.02467168
  entropy T*S    EENTRO =         0.00931738
  eigenvalues    EBANDS =      -993.00656099
  atomic energy  EATOM  =     18662.21924712
  Solvation  Ediel_sol  =         0.00000000
  ---------------------------------------------------
  free energy    TOTEN  =       -49.01311390 eV

  energy without entropy =      -49.02243128  energy(sigma->0) =      -49.01621969


--------------------------------------------------------------------------------------------------------




--------------------------------------- Iteration      1(  21)  ---------------------------------------


    POTLOK:  cpu time    1.1640: real time    1.1648
    SETDIJ:  cpu time    0.0168: real time    0.0168
    EDDIAG:  cpu time    1.0812: real time    1.0820
  RMM-DIIS:  cpu time    6.8681: real time    6.8739
    ORTHCH:  cpu time    0.0549: real time    0.0549
       DOS:  cpu time    0.0004: real time    0.0004
    CHARGE:  cpu time    0.6460: real time    0.6583
    MIXING:  cpu time    0.0385: real time    0.0385
    --------------------------------------------
      LOOP:  cpu time    9.8698: real time    9.8897

 eigenvalue-minimisations  :   406
 total energy-change (2. order) :-0.4165323E-03  (-0.3981041E-05)
 number of electron     153.0000015 magnetization       1.0000000
 augmentation part       92.3892016 magnetization       0.0845983

 Broyden mixing:
  rms(total) = 0.83364E-03    rms(broyden)= 0.83362E-03
  rms(prec ) = 0.11450E-02
  weight for this iteration     100.00

 eigenvalues of (default mixing * dielectric matrix)
  average eigenvalue GAMMA=   1.5054
  6.6461  3.2378  2.4930  2.0854  1.4848  1.4848  0.9290  0.9290  0.7534  0.7534
  0.6931  0.6468  0.4401  0.5295  0.5068  0.4728

 Free energy of the ion-electron system (eV)
  ---------------------------------------------------
  alpha Z        PSCENC =        41.16232785
  Ewald energy   TEWEN  =     16618.72189737
  -Hartree energ DENC   =    -33594.79949785
  -exchange      EXHF   =         0.00000000
  -V(xc)+E(xc)   XCENC  =       615.83616787
  PAW double counting   =     17716.10505139   -19115.27411898
  entropy T*S    EENTRO =         0.00931772
  eigenvalues    EBANDS =      -992.99392292
  atomic energy  EATOM  =     18662.21924712
  Solvation  Ediel_sol  =         0.00000000
  ---------------------------------------------------
  free energy    TOTEN  =       -49.01353043 eV

  energy without entropy =      -49.02284815  energy(sigma->0) =      -49.01663634


--------------------------------------------------------------------------------------------------------




--------------------------------------- Iteration      1(  22)  ---------------------------------------


    POTLOK:  cpu time    1.1645: real time    1.1661
    SETDIJ:  cpu time    0.0169: real time    0.0169
    EDDIAG:  cpu time    1.0834: real time    1.0851
  RMM-DIIS:  cpu time    6.7410: real time    6.7456
    ORTHCH:  cpu time    0.0544: real time    0.0544
       DOS:  cpu time    0.0004: real time    0.0004
    CHARGE:  cpu time    0.6554: real time    0.6556
    MIXING:  cpu time    0.0380: real time    0.0380
    --------------------------------------------
      LOOP:  cpu time    9.7541: real time    9.7621

 eigenvalue-minimisations  :   407
 total energy-change (2. order) :-0.2224902E-03  (-0.1811357E-05)
 number of electron     153.0000015 magnetization       1.0000000
 augmentation part       92.3880716 magnetization       0.0846067

 Broyden mixing:
  rms(total) = 0.42515E-03    rms(broyden)= 0.42509E-03
  rms(prec ) = 0.64078E-03
  weight for this iteration     100.00

 eigenvalues of (default mixing * dielectric matrix)
  average eigenvalue GAMMA=   1.5364
  7.0129  3.8886  2.4238  2.1641  1.6388  1.2765  1.2765  0.8840  0.8840  0.7523
  0.7523  0.6539  0.4400  0.5736  0.4733  0.5205  0.5033

 Free energy of the ion-electron system (eV)
  ---------------------------------------------------
  alpha Z        PSCENC =        41.16232785
  Ewald energy   TEWEN  =     16618.72189737
  -Hartree energ DENC   =    -33594.93113134
  -exchange      EXHF   =         0.00000000
  -V(xc)+E(xc)   XCENC  =       615.83676836
  PAW double counting   =     17716.37520769   -19115.55794205
  entropy T*S    EENTRO =         0.00931744
  eigenvalues    EBANDS =      -992.84944536
  atomic energy  EATOM  =     18662.21924712
  Solvation  Ediel_sol  =         0.00000000
  ---------------------------------------------------
  free energy    TOTEN  =       -49.01375292 eV

  energy without entropy =      -49.02307036  energy(sigma->0) =      -49.01685873


--------------------------------------------------------------------------------------------------------




--------------------------------------- Iteration      1(  23)  ---------------------------------------


    POTLOK:  cpu time    1.1637: real time    1.1646
    SETDIJ:  cpu time    0.0198: real time    0.0197
    EDDIAG:  cpu time    1.0836: real time    1.0849
  RMM-DIIS:  cpu time    6.8301: real time    6.8348
    ORTHCH:  cpu time    0.0543: real time    0.0544
       DOS:  cpu time    0.0004: real time    0.0004
    CHARGE:  cpu time    0.6512: real time    0.6513
    MIXING:  cpu time    0.0406: real time    0.0406
    --------------------------------------------
      LOOP:  cpu time    9.8436: real time    9.8507

 eigenvalue-minimisations  :   397
 total energy-change (2. order) :-0.1269298E-03  (-0.8549636E-06)
 number of electron     153.0000015 magnetization       1.0000000
 augmentation part       92.3875814 magnetization       0.0846162

 Broyden mixing:
  rms(total) = 0.26486E-03    rms(broyden)= 0.26486E-03
  rms(prec ) = 0.40089E-03
  weight for this iteration     100.00

 eigenvalues of (default mixing * dielectric matrix)
  average eigenvalue GAMMA=   1.5557
  7.3633  4.2738  2.4493  2.1941  1.7940  1.3381  1.3381  0.9338  0.9338  0.7613
  0.7613  0.6912  0.6810  0.4400  0.4729  0.5524  0.5123  0.5123

 Free energy of the ion-electron system (eV)
  ---------------------------------------------------
  alpha Z        PSCENC =        41.16232785
  Ewald energy   TEWEN  =     16618.72189737
  -Hartree energ DENC   =    -33595.00168783
  -exchange      EXHF   =         0.00000000
  -V(xc)+E(xc)   XCENC  =       615.83720213
  PAW double counting   =     17716.36820060   -19115.55414070
  entropy T*S    EENTRO =         0.00931761
  eigenvalues    EBANDS =      -992.77624400
  atomic energy  EATOM  =     18662.21924712
  Solvation  Ediel_sol  =         0.00000000
  ---------------------------------------------------
  free energy    TOTEN  =       -49.01387985 eV

  energy without entropy =      -49.02319746  energy(sigma->0) =      -49.01698572


--------------------------------------------------------------------------------------------------------




--------------------------------------- Iteration      1(  24)  ---------------------------------------


    POTLOK:  cpu time    1.1670: real time    1.1707
    SETDIJ:  cpu time    0.0165: real time    0.0165
    EDDIAG:  cpu time    1.0819: real time    1.0825
  RMM-DIIS:  cpu time    6.8526: real time    6.8568
    ORTHCH:  cpu time    0.0556: real time    0.0558
       DOS:  cpu time    0.0004: real time    0.0004
    CHARGE:  cpu time    0.6535: real time    0.6536
    MIXING:  cpu time    0.0420: real time    0.0420
    --------------------------------------------
      LOOP:  cpu time    9.8695: real time    9.8784

 eigenvalue-minimisations  :   401
 total energy-change (2. order) :-0.1043049E-03  (-0.7318026E-06)
 number of electron     153.0000015 magnetization       1.0000000
 augmentation part       92.3877795 magnetization       0.0846387

 Broyden mixing:
  rms(total) = 0.16713E-03    rms(broyden)= 0.16711E-03
  rms(prec ) = 0.25785E-03
  weight for this iteration     100.00

 eigenvalues of (default mixing * dielectric matrix)
  average eigenvalue GAMMA=   1.5785
  7.7021  4.5546  2.4101  2.4101  1.8318  1.3863  1.3863  1.0115  0.9640  0.9640
  0.7634  0.7634  0.7184  0.6310  0.4400  0.4727  0.5508  0.5090  0.5226

 Free energy of the ion-electron system (eV)
  ---------------------------------------------------
  alpha Z        PSCENC =        41.16232785
  Ewald energy   TEWEN  =     16618.72189737
  -Hartree energ DENC   =    -33594.99677694
  -exchange      EXHF   =         0.00000000
  -V(xc)+E(xc)   XCENC  =       615.83698044
  PAW double counting   =     17716.26766910   -19115.44868627
  entropy T*S    EENTRO =         0.00931756
  eigenvalues    EBANDS =      -992.78596037
  atomic energy  EATOM  =     18662.21924712
  Solvation  Ediel_sol  =         0.00000000
  ---------------------------------------------------
  free energy    TOTEN  =       -49.01398415 eV

  energy without entropy =      -49.02330171  energy(sigma->0) =      -49.01709001


--------------------------------------------------------------------------------------------------------




--------------------------------------- Iteration      1(  25)  ---------------------------------------


    POTLOK:  cpu time    1.1645: real time    1.1657
    SETDIJ:  cpu time    0.0164: real time    0.0164
    EDDIAG:  cpu time    1.0836: real time    1.0842
  RMM-DIIS:  cpu time    6.7149: real time    6.7190
    ORTHCH:  cpu time    0.0543: real time    0.0543
       DOS:  cpu time    0.0004: real time    0.0004
    CHARGE:  cpu time    0.6532: real time    0.6538
    MIXING:  cpu time    0.0446: real time    0.0446
    --------------------------------------------
      LOOP:  cpu time    9.7318: real time    9.7384

 eigenvalue-minimisations  :   393
 total energy-change (2. order) :-0.6498994E-04  (-0.5343968E-06)
 number of electron     153.0000015 magnetization       1.0000000
 augmentation part       92.3882505 magnetization       0.0846245

 Broyden mixing:
  rms(total) = 0.14905E-03    rms(broyden)= 0.14904E-03
  rms(prec ) = 0.20452E-03
  weight for this iteration     100.00

 eigenvalues of (default mixing * dielectric matrix)
  average eigenvalue GAMMA=   1.6280
  7.9395  5.0729  2.6243  2.6243  1.8418  1.8418  1.2922  1.2922  0.9684  0.9684
  0.7759  0.7759  0.7155  0.7155  0.6202  0.4400  0.4724  0.5517  0.5134  0.5134

 Free energy of the ion-electron system (eV)
  ---------------------------------------------------
  alpha Z        PSCENC =        41.16232785
  Ewald energy   TEWEN  =     16618.72189737
  -Hartree energ DENC   =    -33594.97634149
  -exchange      EXHF   =         0.00000000
  -V(xc)+E(xc)   XCENC  =       615.83651450
  PAW double counting   =     17716.16758908   -19115.34229141
  entropy T*S    EENTRO =         0.00931760
  eigenvalues    EBANDS =      -992.81230976
  atomic energy  EATOM  =     18662.21924712
  Solvation  Ediel_sol  =         0.00000000
  ---------------------------------------------------
  free energy    TOTEN  =       -49.01404914 eV

  energy without entropy =      -49.02336675  energy(sigma->0) =      -49.01715501


--------------------------------------------------------------------------------------------------------




--------------------------------------- Iteration      1(  26)  ---------------------------------------


    POTLOK:  cpu time    1.1652: real time    1.1657
    SETDIJ:  cpu time    0.0168: real time    0.0168
    EDDIAG:  cpu time    1.0824: real time    1.0833
  RMM-DIIS:  cpu time    6.3876: real time    6.3915
    ORTHCH:  cpu time    0.0545: real time    0.0545
       DOS:  cpu time    0.0004: real time    0.0004
    CHARGE:  cpu time    0.6513: real time    0.6514
    MIXING:  cpu time    0.0475: real time    0.0475
    --------------------------------------------
      LOOP:  cpu time    9.4056: real time    9.4110

 eigenvalue-minimisations  :   385
 total energy-change (2. order) :-0.3676481E-04  (-0.3468610E-06)
 number of electron     153.0000015 magnetization       1.0000000
 augmentation part       92.3881263 magnetization       0.0846240

 Broyden mixing:
  rms(total) = 0.57920E-04    rms(broyden)= 0.57911E-04
  rms(prec ) = 0.91490E-04
  weight for this iteration     100.00

 eigenvalues of (default mixing * dielectric matrix)
  average eigenvalue GAMMA=   1.6435
  8.1450  5.3628  3.0883  2.5093  2.0401  1.7810  1.3398  1.3398  0.9854  0.9854
  0.8288  0.8288  0.7500  0.7500  0.6458  0.6458  0.4400  0.4726  0.5490  0.5124
  0.5124

 Free energy of the ion-electron system (eV)
  ---------------------------------------------------
  alpha Z        PSCENC =        41.16232785
  Ewald energy   TEWEN  =     16618.72189737
  -Hartree energ DENC   =    -33594.99209167
  -exchange      EXHF   =         0.00000000
  -V(xc)+E(xc)   XCENC  =       615.83671021
  PAW double counting   =     17716.13983108   -19115.31551616
  entropy T*S    EENTRO =         0.00931755
  eigenvalues    EBANDS =      -992.79580925
  atomic energy  EATOM  =     18662.21924712
  Solvation  Ediel_sol  =         0.00000000
  ---------------------------------------------------
  free energy    TOTEN  =       -49.01408591 eV

  energy without entropy =      -49.02340346  energy(sigma->0) =      -49.01719176


--------------------------------------------------------------------------------------------------------




--------------------------------------- Iteration      1(  27)  ---------------------------------------


    POTLOK:  cpu time    1.1630: real time    1.1664
    SETDIJ:  cpu time    0.0165: real time    0.0165
    EDDIAG:  cpu time    1.0815: real time    1.0822
  RMM-DIIS:  cpu time    4.9855: real time    4.9887
    ORTHCH:  cpu time    0.0545: real time    0.0545
       DOS:  cpu time    0.0005: real time    0.0005
    CHARGE:  cpu time    0.6496: real time    0.6497
    MIXING:  cpu time    0.0510: real time    0.0510
    --------------------------------------------
      LOOP:  cpu time    8.0021: real time    8.0094

 eigenvalue-minimisations  :   286
 total energy-change (2. order) :-0.1481395E-04  (-0.1452468E-06)
 number of electron     153.0000015 magnetization       1.0000000
 augmentation part       92.3879091 magnetization       0.0846234

 Broyden mixing:
  rms(total) = 0.80635E-04    rms(broyden)= 0.80630E-04
  rms(prec ) = 0.10086E-03
  weight for this iteration     100.00

 eigenvalues of (default mixing * dielectric matrix)
  average eigenvalue GAMMA=   1.6260
  8.1991  5.5646  3.2454  2.4984  2.1330  1.5505  1.5505  1.1442  1.1442  1.0387
  1.0387  0.7721  0.7721  0.7523  0.6657  0.4400  0.6009  0.6009  0.4728  0.5079
  0.5221  0.5576

 Free energy of the ion-electron system (eV)
  ---------------------------------------------------
  alpha Z        PSCENC =        41.16232785
  Ewald energy   TEWEN  =     16618.72189737
  -Hartree energ DENC   =    -33594.99794212
  -exchange      EXHF   =         0.00000000
  -V(xc)+E(xc)   XCENC  =       615.83684040
  PAW double counting   =     17716.14067422   -19115.31869684
  entropy T*S    EENTRO =         0.00931759
  eigenvalues    EBANDS =      -992.78776631
  atomic energy  EATOM  =     18662.21924712
  Solvation  Ediel_sol  =         0.00000000
  ---------------------------------------------------
  free energy    TOTEN  =       -49.01410072 eV

  energy without entropy =      -49.02341831  energy(sigma->0) =      -49.01720658


--------------------------------------------------------------------------------------------------------




--------------------------------------- Iteration      1(  28)  ---------------------------------------


    POTLOK:  cpu time    1.1655: real time    1.1692
    SETDIJ:  cpu time    0.0163: real time    0.0163
    EDDIAG:  cpu time    1.0793: real time    1.0801
  RMM-DIIS:  cpu time    4.6591: real time    4.6618
    ORTHCH:  cpu time    0.0545: real time    0.0545
       DOS:  cpu time    0.0004: real time    0.0004
    CHARGE:  cpu time    0.6483: real time    0.6488
[...]
     66      -4.9030      1.00000
     67      -4.8951      1.00000
     68      -4.8604      1.00000
     69      -4.8466      1.00000
     70      -4.8231      1.00000
     71      -4.8027      1.00000
     72      -4.7619      1.00000
     73      -4.7186      1.00000
     74      -4.5247      1.00000
     75      -4.1876      1.00000
     76      -4.1590      1.00000
     77      -3.4456      1.00000
     78      -2.9938     -0.00000
     79      -2.8466     -0.00000
     80      -2.4878     -0.00000
     81      -2.3478     -0.00000
     82      -2.0108     -0.00000
     83      -1.8709     -0.00000
     84      -1.6323     -0.00000
     85      -1.3244     -0.00000
     86      -1.0264     -0.00000
     87      -0.9288     -0.00000
     88      -0.6447     -0.00000
     89      -0.3818      0.00000
     90      -0.3251      0.00000
     91      -0.1497      0.00000
     92       0.2207      0.00000

 spin component 2

 k-point     1 :       0.0000    0.0000    0.0000
  band No.  band energies     occupation 
      1     -28.7672      1.00000
      2     -13.8448      1.00000
      3     -11.4529      1.00000
      4     -11.3292      1.00000
      5     -11.1426      1.00000
      6     -10.1857      1.00000
      7      -8.6225      1.00000
      8      -8.2312      1.00000
      9      -7.7011      1.00000
     10      -7.5991      1.00000
     11      -7.4942      1.00000
     12      -7.4134      1.00000
     13      -7.2830      1.00000
     14      -7.1448      1.00000
     15      -7.0804      1.00000
     16      -6.9314      1.00000
     17      -6.8674      1.00000
     18      -6.7982      1.00000
     19      -6.7765      1.00000
     20      -6.6971      1.00000
     21      -6.6515      1.00000
     22      -6.6085      1.00000
     23      -6.5074      1.00000
     24      -6.4853      1.00000
     25      -6.4173      1.00000
     26      -6.3700      1.00000
     27      -6.3153      1.00000
     28      -6.2737      1.00000
     29      -6.2035      1.00000
     30      -6.1674      1.00000
     31      -6.1237      1.00000
     32      -6.0899      1.00000
     33      -6.0211      1.00000
     34      -6.0019      1.00000
     35      -5.8909      1.00000
     36      -5.7909      1.00000
     37      -5.6987      1.00000
     38      -5.6686      1.00000
     39      -5.6393      1.00000
     40      -5.6288      1.00000
     41      -5.5782      1.00000
     42      -5.5087      1.00000
     43      -5.4912      1.00000
     44      -5.4336      1.00000
     45      -5.4230      1.00000
     46      -5.3961      1.00000
     47      -5.3624      1.00000
     48      -5.3501      1.00000
     49      -5.3211      1.00000
     50      -5.3018      1.00000
     51      -5.2734      1.00000
     52      -5.2547      1.00000
     53      -5.2183      1.00000
     54      -5.1935      1.00000
     55      -5.1576      1.00000
     56      -5.1371      1.00000
     57      -5.1321      1.00000
     58      -5.1200      1.00000
     59      -5.0575      1.00000
     60      -5.0465      1.00000
     61      -5.0105      1.00000
     62      -4.9771      1.00000
     63      -4.9672      1.00000
     64      -4.9554      1.00000
     65      -4.9102      1.00000
     66      -4.8779      1.00000
     67      -4.8730      1.00000
     68      -4.8235      1.00000
     69      -4.8050      1.00000
     70      -4.7903      1.00000
     71      -4.7704      1.00000
     72      -4.7357      1.00000
     73      -4.6895      1.00000
     74      -4.4802      1.00000
     75      -4.1536      1.03485
     76      -4.0961      0.96515
     77      -3.2293     -0.00000
     78      -2.9453     -0.00000
     79      -2.7945     -0.00000
     80      -2.4246     -0.00000
     81      -2.2614     -0.00000
     82      -1.9844     -0.00000
     83      -1.7933     -0.00000
     84      -1.5685     -0.00000
     85      -1.2023      0.00000
     86      -0.9094      0.00000
     87      -0.8330      0.00000
     88      -0.5624      0.00000
     89      -0.3016      0.00000
     90      -0.2747      0.00000
     91      -0.0632      0.00000
     92       0.2507      0.00000


--------------------------------------------------------------------------------------------------------


 soft charge-density along one line, spin component           1
         0         1         2         3         4         5         6         7         8         9
 total charge-density along one line
 
 soft charge-density along one line, spin component           2
         0         1         2         3         4         5         6         7         8         9
 total charge-density along one line
 
 pseudopotential strength for first ion, spin component:           1
-10.512   0.005  -0.010  -0.001  -0.008   1.016  -0.004   0.010
  0.005 -10.492  -0.007   0.004   0.005  -0.004   1.001   0.005
 -0.010  -0.007 -10.479   0.005  -0.005   0.010   0.005   0.990
 -0.001   0.004   0.005 -10.491   0.003   0.001  -0.005  -0.004
 -0.008   0.005  -0.005   0.003 -10.498   0.006  -0.004   0.005
  1.016  -0.004   0.010   0.001   0.006   6.294   0.002  -0.008
 -0.004   1.001   0.005  -0.005  -0.004   0.002   6.301  -0.003
  0.010   0.005   0.990  -0.004   0.005  -0.008  -0.003   6.310
  0.001  -0.005  -0.004   0.998  -0.002  -0.000   0.005   0.002
  0.006  -0.004   0.005  -0.002   1.006  -0.004   0.002  -0.005
 -0.006   0.001  -0.004  -0.001  -0.003   0.004   0.000  -0.001
 -0.011   0.002  -0.008  -0.002  -0.005   0.008   0.000  -0.002
 -0.012  -0.001   0.004  -0.000   0.009   0.009   0.000  -0.003
 -0.000  -0.007  -0.001  -0.011  -0.000   0.000   0.005   0.000
 -0.006  -0.000   0.008  -0.002  -0.012   0.003   0.000  -0.006
 -0.013  -0.001   0.005  -0.000   0.010   0.009   0.001  -0.004
 -0.000  -0.007  -0.002  -0.011  -0.000   0.001   0.004   0.001
 -0.006  -0.000   0.008  -0.002  -0.012   0.002   0.001  -0.006
 pseudopotential strength for first ion, spin component:           2
-10.476   0.004  -0.005  -0.010   0.004   0.988  -0.003   0.004
  0.004 -10.481  -0.008   0.003   0.003  -0.003   0.991   0.006
 -0.005  -0.008 -10.470   0.004  -0.003   0.004   0.006   0.982
 -0.010   0.003   0.004 -10.477   0.000   0.008  -0.003  -0.003
  0.004   0.003  -0.003   0.000 -10.485  -0.003  -0.002   0.003
  0.988  -0.003   0.004   0.008  -0.003   6.312   0.002  -0.003
 -0.003   0.991   0.006  -0.003  -0.002   0.002   6.306  -0.004
  0.004   0.006   0.982  -0.003   0.003  -0.003  -0.004   6.313
  0.008  -0.003  -0.003   0.987  -0.001  -0.005   0.003   0.002
 -0.003  -0.002   0.003  -0.001   0.994   0.002   0.001  -0.002
 -0.002   0.002  -0.002  -0.001  -0.002   0.000   0.000  -0.002
 -0.004   0.003  -0.003  -0.003  -0.003   0.001   0.001  -0.003
 -0.013  -0.000   0.005   0.001   0.008   0.012  -0.001  -0.005
  0.001  -0.008  -0.001  -0.013   0.000  -0.000   0.006  -0.001
 -0.009   0.001   0.008  -0.000  -0.013   0.007  -0.000  -0.008
 -0.015  -0.001   0.006   0.001   0.009   0.014  -0.001  -0.006
  0.001  -0.009  -0.001  -0.014   0.000  -0.001   0.007  -0.002
 -0.011   0.001   0.009   0.000  -0.015   0.008  -0.001  -0.009
 total augmentation occupancy for first ion, spin component:           1
  1.935   0.004  -0.006  -0.001  -0.004  -0.012  -0.002   0.006   0.001   0.002  -0.013   0.013   0.037   0.002   0.028  -0.020
  0.004   1.929  -0.004   0.005  -0.001  -0.002  -0.019   0.005  -0.001   0.001  -0.004  -0.001   0.004   0.035  -0.002  -0.001
 -0.006  -0.004   1.947   0.003  -0.004   0.006   0.005  -0.027  -0.004   0.004  -0.006   0.010  -0.009  -0.003  -0.019   0.006
 -0.001   0.005   0.003   1.937  -0.005   0.001  -0.001  -0.004  -0.018  -0.001  -0.003   0.003   0.007   0.068  -0.005  -0.000
 -0.004  -0.001  -0.004  -0.005   1.939   0.002   0.001   0.004  -0.001  -0.015  -0.007   0.006  -0.011   0.001   0.038   0.011
 -0.012  -0.002   0.006   0.001   0.002   0.014  -0.000   0.002   0.000   0.001  -0.025  -0.000   0.024  -0.000   0.007  -0.001
 -0.002  -0.019   0.005  -0.001   0.001  -0.000   0.008   0.000   0.001  -0.001   0.010  -0.001   0.000   0.011   0.001  -0.000
  0.006   0.005  -0.027  -0.004   0.004   0.002   0.000   0.007  -0.000   0.001  -0.037   0.005  -0.006  -0.002  -0.008   0.001
  0.001  -0.001  -0.004  -0.018  -0.001   0.000   0.001  -0.000   0.010  -0.002  -0.015   0.002  -0.001   0.022  -0.005  -0.000
  0.002   0.001   0.004  -0.001  -0.015   0.001  -0.001   0.001  -0.002   0.013  -0.009  -0.000  -0.019  -0.005   0.024   0.001
 -0.013  -0.004  -0.006  -0.003  -0.007  -0.025   0.010  -0.037  -0.015  -0.009   1.657  -0.119   0.107  -0.013   0.206  -0.015
  0.013  -0.001   0.010   0.003   0.006  -0.000  -0.001   0.005   0.002  -0.000  -0.119   0.014  -0.016   0.002  -0.029   0.002
  0.037   0.004  -0.009   0.007  -0.011   0.024   0.000  -0.006  -0.001  -0.019   0.107  -0.016   0.182   0.004  -0.037  -0.012
  0.002   0.035  -0.003   0.068   0.001  -0.000   0.011  -0.002   0.022  -0.005  -0.013   0.002   0.004   0.089  -0.015  -0.001
  0.028  -0.002  -0.019  -0.005   0.038   0.007   0.001  -0.008  -0.005   0.024   0.206  -0.029  -0.037  -0.015   0.147   0.001
 -0.020  -0.001   0.006  -0.000   0.011  -0.001  -0.000   0.001  -0.000   0.001  -0.015   0.002  -0.012  -0.001   0.001   0.001
  0.000  -0.012  -0.001  -0.022   0.000  -0.000  -0.001   0.000  -0.001   0.000   0.001  -0.000  -0.001  -0.006   0.001   0.000
 -0.012   0.000   0.010  -0.001  -0.020  -0.000  -0.000   0.001   0.000  -0.001  -0.027   0.003   0.001   0.001  -0.011   0.000
 total augmentation occupancy for first ion, spin component:           2
  0.015  -0.001   0.001  -0.005   0.007  -0.002  -0.000  -0.001   0.001  -0.002   0.031   0.006  -0.009   0.007  -0.018  -0.001
 -0.001   0.000  -0.001   0.002  -0.001  -0.000   0.001   0.000   0.000   0.000  -0.002  -0.001   0.002  -0.002   0.002   0.000
  0.001  -0.001   0.000  -0.001   0.000  -0.001   0.000   0.002  -0.000  -0.001   0.004   0.000   0.000   0.003  -0.000   0.000
 -0.005   0.002  -0.001   0.004  -0.002   0.001   0.000   0.000   0.002   0.000  -0.011  -0.002   0.002  -0.006   0.007   0.000
  0.007  -0.001   0.000  -0.002   0.002  -0.002   0.000  -0.001   0.000   0.002   0.015   0.003  -0.001   0.003  -0.011  -0.000
 -0.002  -0.000  -0.001   0.001  -0.002   0.001  -0.000   0.000  -0.000   0.000  -0.008  -0.001   0.001  -0.002   0.005   0.000
 -0.000   0.001   0.000   0.000   0.000  -0.000  -0.000   0.000  -0.000  -0.000   0.000   0.000   0.000   0.000  -0.001  -0.000
 -0.001   0.000   0.002   0.000  -0.001   0.000   0.000  -0.000  -0.000   0.000  -0.002  -0.000   0.000  -0.000   0.001   0.000
  0.001   0.000  -0.000   0.002   0.000  -0.000  -0.000  -0.000  -0.000  -0.000   0.002   0.000  -0.001   0.001  -0.001  -0.000
 -0.002   0.000  -0.001   0.000   0.002   0.000  -0.000   0.000  -0.000  -0.000  -0.003  -0.000   0.001  -0.001   0.002   0.000
  0.031  -0.002   0.004  -0.011   0.015  -0.008   0.000  -0.002   0.002  -0.003   0.073   0.004  -0.013   0.018  -0.041  -0.000
  0.006  -0.001   0.000  -0.002   0.003  -0.001   0.000  -0.000   0.000  -0.000   0.004   0.001  -0.001   0.001  -0.002  -0.000
 -0.009   0.002   0.000   0.002  -0.001   0.001   0.000   0.000  -0.001   0.001  -0.013  -0.001   0.003  -0.003   0.004   0.000
  0.007  -0.002   0.003  -0.006   0.003  -0.002   0.000  -0.000   0.001  -0.001   0.018   0.001  -0.003   0.004  -0.007  -0.000
 -0.018   0.002  -0.000   0.007  -0.011   0.005  -0.001   0.001  -0.001   0.002  -0.041  -0.002   0.004  -0.007   0.017   0.000
 -0.001   0.000   0.000   0.000  -0.000   0.000  -0.000   0.000  -0.000   0.000  -0.000  -0.000   0.000  -0.000   0.000   0.000
  0.000  -0.000   0.000  -0.001   0.000   0.000  -0.000  -0.000   0.000   0.000  -0.000   0.000   0.000   0.000   0.000  -0.000
 -0.001   0.000   0.000   0.001  -0.001   0.000   0.000   0.000  -0.000   0.000  -0.000  -0.000   0.000  -0.000   0.000   0.000


------------------------ aborting loop because EDIFF is reached ----------------------------------------


    CHARGE:  cpu time    0.6572: real time    0.6578
    FORLOC:  cpu time    0.0653: real time    0.0653
    FORNL :  cpu time    1.5324: real time    1.5330
    STRESS:  cpu time    6.4412: real time    6.4443
    FORCOR:  cpu time    1.1692: real time    1.1698
    FORHAR:  cpu time    0.1901: real time    0.1902
    MIXING:  cpu time    0.1134: real time    0.1135
    OFIELD:  cpu time    0.0000: real time    0.0000

  FORCE on cell =-STRESS in cart. coord.  units (eV):
  Direction    XX          YY          ZZ          XY          YZ          ZX
  --------------------------------------------------------------------------------------
  Alpha Z    41.16233    41.16233    41.16233
  Ewald   10457.92905  7905.86734 -1745.09052  -924.52166   331.26545   285.94053
  Hartree 15536.69333 13363.02229  4695.28544  -829.14938   296.95373   250.90530
  E(xc)    -876.49996  -878.05309  -879.91088    -0.11799     0.03322     0.09781
  Local  -27387.74651-22702.00318 -4389.91567  1753.46118  -628.06839  -535.02514
  n-local  -328.37952  -320.70700  -325.97159    -0.96222    -0.19711     0.53456
  augment  1222.35183  1226.60924  1232.80074     0.28572    -0.19825    -0.57353
  Kinetic  1336.66832  1364.28287  1372.51955     0.59177    -0.13908    -1.59055
  Fock        0.00000     0.00000     0.00000     0.00000     0.00000     0.00000
  -------------------------------------------------------------------------------------
  Total       2.17886     0.18080     0.87941    -0.41257    -0.35043     0.28897
  in kB       1.03435     0.08583     0.41747    -0.19585    -0.16636     0.13718
  external pressure =        0.51 kB  Pullay stress =        0.00 kB


 VOLUME and BASIS-vectors are now :
 -----------------------------------------------------------------------------
  energy-cutoff  :      600.00
  volume of cell :     3375.00
      direct lattice vectors                 reciprocal lattice vectors
    15.000000000  0.000000000  0.000000000     0.066666667  0.000000000  0.000000000
     0.000000000 15.000000000  0.000000000     0.000000000  0.066666667  0.000000000
     0.000000000  0.000000000 15.000000000     0.000000000  0.000000000  0.066666667

  length of vectors
    15.000000000 15.000000000 15.000000000     0.066666667  0.066666667  0.066666667


 FORCES acting on ions
    electron-ion (+dipol)            ewald-force                    non-local-force                 convergence-correction
 -----------------------------------------------------------------------------------------------
   0.114E+04 0.675E+03 -.999E+01   -.113E+04 -.672E+03 0.103E+02   -.525E+01 -.270E+01 -.257E-01   0.115E-04 0.172E-04 0.168E-05
   0.435E+03 -.387E+03 0.935E+03   -.434E+03 0.384E+03 -.935E+03   -.131E+01 0.299E+01 -.199E+00   0.646E-05 -.106E-04 -.203E-04
   0.312E+03 0.129E+04 -.218E+03   -.310E+03 -.128E+04 0.216E+03   -.175E+01 -.888E+01 0.271E+01   0.183E-04 0.269E-05 -.836E-05
   -.872E+03 -.168E+03 0.926E+03   0.869E+03 0.167E+03 -.922E+03   0.302E+01 0.720E+00 -.432E+01   -.239E-05 -.431E-05 -.134E-04
   -.821E+03 0.103E+04 0.208E+03   0.816E+03 -.102E+04 -.206E+03   0.470E+01 -.641E+01 -.236E+01   0.472E-05 -.229E-05 -.223E-05
   -.959E+02 0.512E+03 -.947E+03   0.961E+02 -.509E+03 0.947E+03   -.346E-01 -.325E+01 -.151E+00   -.368E-05 0.241E-05 0.216E-04
   0.178E+03 0.638E+03 0.124E+04   -.178E+03 -.634E+03 -.123E+04   -.184E+00 -.414E+01 -.575E+01   0.134E-04 0.167E-04 0.752E-05
   0.125E+04 -.360E+03 0.163E+03   -.125E+04 0.357E+03 -.160E+03   -.894E+01 0.302E+01 -.310E+01   -.171E-04 -.277E-05 0.402E-05
   0.604E+03 -.194E+03 -.122E+04   -.601E+03 0.194E+03 0.121E+04   -.331E+01 -.174E+00 0.657E+01   0.140E-04 0.108E-06 0.661E-05
   0.431E+03 -.124E+04 -.169E+03   -.428E+03 0.124E+04 0.167E+03   -.257E+01 0.772E+01 0.164E+01   -.144E-05 0.131E-04 0.872E-05
   -.476E+03 -.104E+04 0.675E+03   0.472E+03 0.103E+04 -.668E+03   0.356E+01 0.628E+01 -.652E+01   -.393E-05 -.201E-05 0.275E-05
   -.877E+03 0.728E+02 -.526E+03   0.875E+03 -.730E+02 0.522E+03   0.138E+01 0.225E+00 0.440E+01   0.626E-04 -.439E-05 0.298E-05
   -.567E+03 -.793E+03 -.843E+03   0.564E+03 0.788E+03 0.840E+03   0.261E+01 0.457E+01 0.279E+01   -.921E-05 -.876E-05 0.160E-04
   -.136E+03 -.293E+02 -.115E+03   0.115E+03 0.296E+02 0.116E+03   0.201E+02 -.461E+00 -.399E+00   0.231E-04 0.178E-05 0.516E-05
   -.456E+03 -.230E+01 -.904E+02   0.518E+03 0.111E+01 0.915E+02   -.610E+02 0.131E+01 -.116E+01   -.921E-05 0.259E-05 0.208E-05
 -----------------------------------------------------------------------------------------------
   0.489E+02 -.828E+00 0.586E+01   0.341E-12 0.365E-12 0.185E-12   -.489E+02 0.827E+00 -.587E+01   0.107E-03 0.213E-04 0.348E-04
 
 
 POSITION                                       TOTAL-FORCE (eV/Angst)
 -----------------------------------------------------------------------------------
      4.37529      6.27823      8.25518        -0.180677      0.138754      0.270475
      5.65443      8.21686      7.37238        -0.020509      0.618015      0.000035
      5.93368      4.38858      8.43875        -0.047116     -0.231234      0.211254
      8.02567      7.58738      7.25045        -0.112679      0.181588     -0.305065
      8.24130      5.15903      7.96104         0.011227      0.185511     -0.072557
      6.72957      6.57581      9.16134         0.167873     -0.424476      0.003116
      6.22925      6.01396      6.77234         0.329874     -0.264059     -0.336131
      3.39006      8.55883      8.20366        -0.161337      0.135250     -0.192896
      5.04079      8.18103      9.76932         0.144222      0.001724      0.230451
      5.27087     10.30800      8.57855         0.170662     -0.282543     -0.140085
      7.35598     10.06360      7.16180        -0.196285     -0.314123      0.279724
      9.23571      7.12684      9.20868        -0.295364      0.047022      0.025404
      7.32012      8.86860      9.25361        -0.029772      0.315554     -0.176992
     10.99700      7.35493      9.56927        -1.540842     -0.228456      0.229800
     12.13660      7.33641      9.58885         1.760722      0.121473     -0.026535
 -----------------------------------------------------------------------------------
    total drift:                                0.000600     -0.000780     -0.001961


--------------------------------------------------------------------------------------------------------



  FREE ENERGIE OF THE ION-ELECTRON SYSTEM (eV)
  ---------------------------------------------------
  free  energy   TOTEN  =       -49.01411300 eV

  energy  without entropy=      -49.02343063  energy(sigma->0) =      -49.01721888
 


--------------------------------------------------------------------------------------------------------


    POTLOK:  cpu time    1.1824: real time    1.1832


--------------------------------------------------------------------------------------------------------


     LOOP+:  cpu time  352.8882: real time  353.1985
    4ORBIT:  cpu time    0.0000: real time    0.0000

 total amount of memory used by VASP MPI-rank0   158680. kBytes
=======================================================================

   base      :      30000. kBytes
   nonl-proj :      12601. kBytes
   fftplans  :      27994. kBytes
   grid      :      74150. kBytes
   one-center:         93. kBytes
   wavefun   :      13842. kBytes
 
  
  
 General timing and accounting informations for this job:
 ========================================================
  
                  Total CPU time used (sec):      356.915
                            User time (sec):      344.508
                          System time (sec):       12.407
                         Elapsed time (sec):      357.265
  
                   Maximum memory used (kb):      283300.
                   Average memory used (kb):           0.
  
                          Minor page faults:       290038
                          Major page faults:            0
                 Voluntary context switches:          723
