<?xml version="1.0" encoding="ISO-8859-1"?>
<modeling>
 <generator>
  <i name="program" type="string">vasp </i>
  <i name="version" type="string">5.4.4.18Apr17-6-g9f103f2a35  </i>
  <i name="subversion" type="string">(build May 08 2019 13:49:07) complex            parallel </i>
  <i name="platform" type="string">LinuxIFC </i>
  <i name="date" type="string">2019 11 13 </i>
  <i name="time" type="string">11:45:11 </i>
 </generator>
 <incar>
  <i type="string" name="SYSTEM"> CuCO</i>
  <i type="int" name="ISTART">     0</i>
  <i type="string" name="PREC">accurate</i>
  <i type="string" name="ALGO"> Fast</i>
  <i type="int" name="ISPIN">     2</i>
  <i type="int" name="INIWAV">     1</i>
  <i type="int" name="NELM">   300</i>
  <i type="int" name="NELMIN">     3</i>
  <i type="int" name="IBRION">    -1</i>
  <i name="EDIFF">      0.00000010</i>
  <i name="EDIFFG">     -0.00100000</i>
  <i type="int" name="NSW">     0</i>
  <i type="int" name="ISYM">     0</i>
  <i name="ENCUT">    600.00000000</i>
  <i name="NUPDOWN">      1.00000000</i>
  <i type="logical" name="LREAL"> F  </i>
  <i type="int" name="ISMEAR">     1</i>
  <i name="SIGMA">      0.10000000</i>
  <i name="KSPACING">      0.50000000</i>
  <i type="logical" name="KGAMMA"> F  </i>
  <i type="logical" name="LWAVE"> F  </i>
  <i type="logical" name="LCHARG"> F  </i>
  <v type="int" name="KPOINT_BSE">    -1     0     0     0</v>
  <i type="int" name="NELM">   300</i>
  <i type="string" name="GGA"> PE</i>
 </incar>
 <structure name="primitive_cell" >
  <crystal>
   <varray name="basis" >
    <v>      15.00000000       0.00000000       0.00000000 </v>
    <v>       0.00000000      15.00000000       0.00000000 </v>
    <v>       0.00000000       0.00000000      15.00000000 </v>
   </varray>
   <i name="volume">   3375.00000000 </i>
   <varray name="rec_basis" >
    <v>       0.06666667       0.00000000       0.00000000 </v>
    <v>       0.00000000       0.06666667       0.00000000 </v>
    <v>       0.00000000       0.00000000       0.06666667 </v>
   </varray>
  </crystal>
  <varray name="positions" >
   <v>       0.29168600       0.41854867      -0.44965467 </v>
   <v>       0.41528333       0.40093067       0.45148933 </v>
   <v>       0.39557867       0.29257200      -0.43741667 </v>
   <v>       0.37696200      -0.45220933       0.49149200 </v>
   <v>       0.22600400      -0.42941133      -0.45308933 </v>
   <v>       0.33605267      -0.45459800      -0.34871200 </v>
   <v>       0.44863800       0.43838733      -0.38924400 </v>
   <v>      -0.46495533      -0.49417467       0.48336333 </v>
   <v>      -0.45058000       0.34393533      -0.46926400 </v>
   <v>       0.48800800      -0.40876000      -0.38309267 </v>
   <v>       0.35139133      -0.31280000      -0.42809667 </v>
   <v>       0.49039867      -0.32909333       0.47745333 </v>
   <v>      -0.38428600       0.47512267      -0.38608800 </v>
   <v>      -0.26686667       0.49032867      -0.36204867 </v>
   <v>      -0.19089333       0.48909400      -0.36074333 </v>
  </varray>
 </structure>
 <varray name="primitive_index" >
  <v type="int" >        1 </v>
  <v type="int" >        7 </v>
  <v type="int" >        3 </v>
  <v type="int" >        2 </v>
  <v type="int" >        8 </v>
  <v type="int" >        9 </v>
  <v type="int" >        6 </v>
  <v type="int" >        4 </v>
  <v type="int" >        5 </v>
  <v type="int" >       13 </v>
  <v type="int" >       10 </v>
  <v type="int" >       11 </v>
  <v type="int" >       12 </v>
  <v type="int" >       14 </v>
  <v type="int" >       15 </v>
 </varray>
 <kpoints>
  <generation param="Monkhorst-Pack">
   <v type="int" name="divisions">       1        1        1 </v>
   <v name="usershift">      0.00000000       0.00000000       0.00000000 </v>
   <v name="genvec1">      1.00000000       0.00000000       0.00000000 </v>
   <v name="genvec2">      0.00000000       1.00000000       0.00000000 </v>
   <v name="genvec3">      0.00000000       0.00000000       1.00000000 </v>
   <v name="shift">      0.00000000       0.00000000       0.00000000 </v>
  </generation>
  <varray name="kpointlist" >
   <v>       0.00000000       0.00000000       0.00000000 </v>
  </varray>
  <varray name="weights" >
   <v>       1.00000000 </v>
  </varray>
 </kpoints>
 <parameters>
  <separator name="general" >
   <i type="string" name="SYSTEM">CuCO</i>
   <i type="logical" name="LCOMPAT"> F  </i>
  </separator>
  <separator name="electronic" >
   <i type="string" name="PREC">accura</i>
   <i name="ENMAX">    600.00000000</i>
   <i name="ENAUG">    644.87300000</i>
   <i name="EDIFF">      0.00000010</i>
   <i type="int" name="IALGO">    68</i>
   <i type="int" name="IWAVPR">    10</i>
   <i type="int" name="NBANDS">    92</i>
   <i name="NELECT">    153.00000000</i>
   <i type="int" name="TURBO">     0</i>
   <i type="int" name="IRESTART">     0</i>
   <i type="int" name="NREBOOT">     0</i>
   <i type="int" name="NMIN">     0</i>
   <i name="EREF">      0.00000000</i>
   <separator name="electronic smearing" >
    <i type="int" name="ISMEAR">     1</i>
    <i name="SIGMA">      0.10000000</i>
    <i name="KSPACING">      0.50000000</i>
    <i type="logical" name="KGAMMA"> F  </i>
   </separator>
   <separator name="electronic projectors" >
    <i type="logical" name="LREAL"> F  </i>
    <v name="ROPT">      0.00000000      0.00000000      0.00000000</v>
    <i type="int" name="LMAXPAW">  -100</i>
    <i type="int" name="LMAXMIX">     2</i>
    <i type="logical" name="NLSPLINE"> F  </i>
   </separator>
   <separator name="electronic startup" >
    <i type="int" name="ISTART">     0</i>
    <i type="int" name="ICHARG">     2</i>
    <i type="int" name="INIWAV">     1</i>
   </separator>
   <separator name="electronic spin" >
    <i type="int" name="ISPIN">     2</i>
    <i type="logical" name="LNONCOLLINEAR"> F  </i>
    <v name="MAGMOM">      0.06666667      0.06666667      0.06666667      0.06666667      0.06666667      0.06666667      0.06666667      0.06666667      0.06666667      0.06666667      0.06666667      0.06666667      0.06666667      0.06666667      0.06666667</v>
    <i name="NUPDOWN">      1.00000000</i>
    <i type="logical" name="LSORBIT"> F  </i>
    <v name="SAXIS">      0.00000000      0.00000000      1.00000000</v>
    <i type="logical" name="LSPIRAL"> F  </i>
    <v name="QSPIRAL">      0.00000000      0.00000000      0.00000000</v>
    <i type="logical" name="LZEROZ"> F  </i>
   </separator>
   <separator name="electronic exchange-correlation" >
    <i type="logical" name="LASPH"> F  </i>
    <i type="logical" name="LMETAGGA"> F  </i>
   </separator>
   <separator name="electronic convergence" >
    <i type="int" name="NELM">   300</i>
    <i type="int" name="NELMDL">    -5</i>
    <i type="int" name="NELMIN">     3</i>
    <i name="ENINI">    600.00000000</i>
    <separator name="electronic convergence detail" >
     <i type="logical" name="LDIAG"> T  </i>
     <i type="logical" name="LSUBROT"> F  </i>
     <i name="WEIMIN">      0.00000000</i>
     <i name="EBREAK">      0.00000000</i>
     <i name="DEPER">      0.30000000</i>
     <i type="int" name="NRMM">     4</i>
     <i name="TIME">      0.40000000</i>
    </separator>
   </separator>
   <separator name="electronic mixer" >
    <i name="AMIX">      0.40000000</i>
    <i name="BMIX">      1.00000000</i>
    <i name="AMIN">      0.10000000</i>
    <i name="AMIX_MAG">      1.60000000</i>
    <i name="BMIX_MAG">      1.00000000</i>
    <separator name="electronic mixer details" >
     <i type="int" name="IMIX">     4</i>
     <i type="logical" name="MIXFIRST"> F  </i>
     <i type="int" name="MAXMIX">   -45</i>
     <i name="WC">    100.00000000</i>
     <i type="int" name="INIMIX">     1</i>
     <i type="int" name="MIXPRE">     1</i>
     <i type="int" name="MREMOVE">     5</i>
    </separator>
   </separator>
   <separator name="electronic dipolcorrection" >
    <i type="logical" name="LDIPOL"> F  </i>
    <i type="logical" name="LMONO"> F  </i>
    <i type="int" name="IDIPOL">     0</i>
    <i name="EPSILON">      1.00000000</i>
    <v name="DIPOL">   -100.00000000   -100.00000000   -100.00000000</v>
    <i name="EFIELD">      0.00000000</i>
   </separator>
  </separator>
  <separator name="grids" >
   <i type="int" name="NGX">   120</i>
   <i type="int" name="NGY">   120</i>
   <i type="int" name="NGZ">   120</i>
   <i type="int" name="NGXF">   240</i>
   <i type="int" name="NGYF">   240</i>
   <i type="int" name="NGZF">   240</i>
   <i type="logical" name="ADDGRID"> F  </i>
  </separator>
  <separator name="ionic" >
   <i type="int" name="NSW">     0</i>
   <i type="int" name="IBRION">    -1</i>
   <i type="int" name="MDALGO">     0</i>
   <i type="int" name="ISIF">     2</i>
   <i name="PSTRESS">      0.00000000</i>
   <i name="EDIFFG">     -0.00100000</i>
   <i type="int" name="NFREE">     0</i>
   <i name="POTIM">      0.50000000</i>
   <i name="SMASS">     -3.00000000</i>
   <i name="SCALEE">      1.00000000</i>
  </separator>
  <separator name="ionic md" >
   <i name="TEBEG">      0.00010000</i>
   <i name="TEEND">      0.00010000</i>
   <i type="int" name="NBLOCK">     1</i>
   <i type="int" name="KBLOCK">     1</i>
   <i type="int" name="NPACO">   256</i>
   <i name="APACO">     16.00000000</i>
  </separator>
  <separator name="symmetry" >
   <i type="int" name="ISYM">     0</i>
   <i name="SYMPREC">      0.00001000</i>
  </separator>
  <separator name="dos" >
   <i type="int" name="LORBIT">     0</i>
   <v name="RWIGS">     -1.00000000     -1.00000000     -1.00000000</v>
   <i type="int" name="NEDOS">   301</i>
   <i name="EMIN">     10.00000000</i>
   <i name="EMAX">    -10.00000000</i>
   <i name="EFERMI">      0.00000000</i>
  </separator>
  <separator name="writing" >
   <i type="int" name="NWRITE">     2</i>
   <i type="logical" name="LWAVE"> F  </i>
   <i type="logical" name="LDOWNSAMPLE"> F  </i>
   <i type="logical" name="LCHARG"> F  </i>
   <i type="logical" name="LPARD"> F  </i>
   <i type="logical" name="LVTOT"> F  </i>
   <i type="logical" name="LVHAR"> F  </i>
   <i type="logical" name="LELF"> F  </i>
   <i type="logical" name="LOPTICS"> F  </i>
   <v name="STM">      0.00000000      0.00000000      0.00000000      0.00000000      0.00000000      0.00000000      0.00000000</v>
  </separator>
  <separator name="performance" >
   <i type="int" name="NPAR">     4</i>
   <i type="int" name="NSIM">     4</i>
   <i type="int" name="NBLK">    -1</i>
   <i type="logical" name="LPLANE"> T  </i>
   <i type="logical" name="LSCALAPACK"> T  </i>
   <i type="logical" name="LSCAAWARE"> F  </i>
   <i type="logical" name="LSCALU"> F  </i>
   <i type="logical" name="LASYNC"> F  </i>
   <i type="logical" name="LORBITALREAL"> F  </i>
  </separator>
  <separator name="miscellaneous" >
   <i type="int" name="IDIOT">     3</i>
   <i type="int" name="ISPECIAL">     0</i>
   <i type="logical" name="LMUSIC"> F  </i>
   <v name="POMASS">     63.54600000     12.01100000     16.00000000</v>
   <v name="DARWINR">      0.00000000      0.00000000      0.00000000</v>
   <v name="DARWINV">      1.00000000      1.00000000      1.00000000</v>
   <i type="logical" name="LCORR"> T  </i>
  </separator>
  <i type="logical" name="GGA_COMPAT"> T  </i>
  <i type="logical" name="LBERRY"> F  </i>
  <i type="int" name="ICORELEVEL">     0</i>
  <i type="logical" name="LDAU"> F  </i>
  <i type="int" name="I_CONSTRAINED_M">     0</i>
  <separator name="electronic exchange-correlation" >
   <i type="string" name="GGA">PE</i>
   <i type="int" name="VOSKOWN">     0</i>
   <i type="logical" name="LHFCALC"> F  </i>
   <i type="string" name="PRECFOCK"></i>
   <i type="logical" name="LSYMGRAD"> F  </i>
   <i type="logical" name="LHFONE"> F  </i>
   <i type="logical" name="LRHFCALC"> F  </i>
   <i type="logical" name="LTHOMAS"> F  </i>
   <i type="logical" name="LMODELHF"> F  </i>
   <i name="ENCUT4O">     -1.00000000</i>
   <i type="int" name="EXXOEP">     0</i>
   <i type="int" name="FOURORBIT">     0</i>
   <i name="AEXX">      0.00000000</i>
   <i name="HFALPHA">      0.00000000</i>
   <i name="MCALPHA">      0.00000000</i>
   <i name="ALDAX">      1.00000000</i>
   <i name="AGGAX">      1.00000000</i>
   <i name="ALDAC">      1.00000000</i>
   <i name="AGGAC">      1.00000000</i>
   <i type="int" name="NKREDX">     1</i>
   <i type="int" name="NKREDY">     1</i>
   <i type="int" name="NKREDZ">     1</i>
   <i type="logical" name="SHIFTRED"> F  </i>
   <i type="logical" name="ODDONLY"> F  </i>
   <i type="logical" name="EVENONLY"> F  </i>
   <i type="int" name="LMAXFOCK">     0</i>
   <i type="int" name="NMAXFOCKAE">     0</i>
   <i type="logical" name="LFOCKAEDFT"> F  </i>
   <i name="HFSCREEN">      0.00000000</i>
   <i name="HFSCREENC">      0.00000000</i>
   <i type="int" name="NBANDSGWLOW">     0</i>
  </separator>
  <separator name="vdW DFT" >
   <i type="logical" name="LUSE_VDW"> F  </i>
   <i name="Zab_VDW">     -0.84910000</i>
   <i name="PARAM1">      0.12340000</i>
   <i name="PARAM2">      1.00000000</i>
   <i name="PARAM3">      0.00000000</i>
  </separator>
  <separator name="model GW" >
   <i type="int" name="MODEL_GW">     0</i>
   <i name="MODEL_EPS0">    135.00000000</i>
   <i name="MODEL_ALPHA">      1.00000000</i>
  </separator>
  <separator name="linear response parameters" >
   <i type="logical" name="LEPSILON"> F  </i>
   <i type="logical" name="LRPA"> F  </i>
   <i type="logical" name="LNABLA"> F  </i>
   <i type="logical" name="LVEL"> F  </i>
   <i type="int" name="KINTER">     0</i>
   <i name="CSHIFT">      0.10000000</i>
   <i name="OMEGAMAX">     -1.00000000</i>
   <i name="DEG_THRESHOLD">      0.00200000</i>
   <i name="RTIME">     -0.10000000</i>
   <i name="WPLASMAI">      0.00000000</i>
   <v name="DFIELD">      0.00000000      0.00000000      0.00000000</v>
   <v name="WPLASMA">      0.00000000      0.00000000      0.00000000      0.00000000      0.00000000      0.00000000      0.00000000      0.00000000      0.00000000</v>
  </separator>
  <separator name="orbital magnetization" >
   <i type="logical" name="NUCIND"> F  </i>
   <v name="MAGPOS">      0.00000000      0.00000000      0.00000000</v>
   <i type="logical" name="LNICSALL"> T  </i>
   <i type="logical" name="ORBITALMAG"> F  </i>
   <i type="logical" name="LMAGBLOCH"> F  </i>
   <i type="logical" name="LCHIMAG"> F  </i>
   <i type="logical" name="LGAUGE"> T  </i>
   <i type="int" name="MAGATOM">     0</i>
   <v name="MAGDIPOL">      0.00000000      0.00000000      0.00000000</v>
   <v name="AVECCONST">      0.00000000      0.00000000      0.00000000</v>
  </separator>
  <separator name="response functions" >
   <i type="logical" name="LADDER"> F  </i>
   <i type="logical" name="LRPAFORCE"> F  </i>
   <i type="logical" name="LFXC"> F  </i>
   <i type="logical" name="LHARTREE"> T  </i>
   <i type="int" name="IBSE">     0</i>
   <v type="int" name="KPOINT">    -1     0     0     0</v>
   <i type="logical" name="LTCTE"> F  </i>
   <i type="logical" name="LTETE"> F  </i>
   <i type="logical" name="LTRIPLET"> F  </i>
   <i type="logical" name="LFXCEPS"> F  </i>
   <i type="logical" name="LFXHEG"> F  </i>
   <i type="int" name="NATURALO">     2</i>
   <i type="logical" name="L2ORDER"> F  </i>
   <i type="logical" name="LMP2LT"> F  </i>
   <i type="logical" name="LUSEW"> F  </i>
   <i name="ENCUTGW">     -2.00000000</i>
   <i name="ENCUTGWSOFT">     -2.00000000</i>
   <i name="ENCUTLF">     -1.00000000</i>
   <i type="int" name="LMAXMP2">    -1</i>
   <i name="SCISSOR">      0.00000000</i>
   <i type="int" name="NOMEGA">     0</i>
   <i type="int" name="NOMEGAR">     0</i>
   <i type="int" name="NBANDSGW">    -1</i>
   <i type="int" name="NBANDSO">    -1</i>
   <i type="int" name="NBANDSV">    -1</i>
   <i type="int" name="NELM">   300</i>
   <i type="int" name="NELMHF">     1</i>
   <i type="int" name="DIM">     3</i>
   <i type="int" name="ANTIRES">     0</i>
   <i name="OMEGAMAX">    -30.00000000</i>
   <i name="OMEGAMIN">    -30.00000000</i>
   <i name="OMEGATL">   -200.00000000</i>
   <i type="int" name="OMEGAGRID">   140</i>
   <i name="CSHIFT">     -0.10000000</i>
   <i type="logical" name="SELFENERGY"> F  </i>
   <i type="logical" name="LSPECTRAL"> F  </i>
   <i type="logical" name="LSPECTRALGW"> F  </i>
   <i type="logical" name="LSINGLES"> F  </i>
   <i type="logical" name="LFERMIGW"> F  </i>
   <i type="logical" name="ODDONLYGW"> F  </i>
   <i type="logical" name="EVENONLYGW"> F  </i>
   <i type="int" name="NKREDLFX">     1</i>
   <i type="int" name="NKREDLFY">     1</i>
   <i type="int" name="NKREDLFZ">     1</i>
   <i type="int" name="MAXMEM">  2800</i>
   <i type="int" name="TELESCOPE">     0</i>
   <i type="int" name="TAUPAR">     1</i>
   <i type="int" name="OMEGAPAR">    -1</i>
   <i name="LAMBDA">      1.00000000</i>
  </separator>
  <separator name="External order field" >
   <i name="OFIELD_KAPPA">      0.00000000</i>
   <v name="OFIELD_K">      0.00000000      0.00000000      0.00000000</v>
   <i name="OFIELD_Q6_NEAR">      0.00000000</i>
   <i name="OFIELD_Q6_FAR">      0.00000000</i>
   <i name="OFIELD_A">      0.00000000</i>
  </separator>
 </parameters>
 <atominfo>
  <atoms>      15 </atoms>
  <types>       3 </types>
  <array name="atoms" >
   <dimension dim="1">ion</dimension>
   <field type="string">element</field>
   <field type="int">atomtype</field>
   <set>
    <rc><c>Cu</c><c>   1</c></rc>
    <rc><c>Cu</c><c>   1</c></rc>
    <rc><c>Cu</c><c>   1</c></rc>
    <rc><c>Cu</c><c>   1</c></rc>
    <rc><c>Cu</c><c>   1</c></rc>
    <rc><c>Cu</c><c>   1</c></rc>
    <rc><c>Cu</c><c>   1</c></rc>
    <rc><c>Cu</c><c>   1</c></rc>
    <rc><c>Cu</c><c>   1</c></rc>
    <rc><c>Cu</c><c>   1</c></rc>
    <rc><c>Cu</c><c>   1</c></rc>
    <rc><c>Cu</c><c>   1</c></rc>
    <rc><c>Cu</c><c>   1</c></rc>
    <rc><c>C </c><c>   2</c></rc>
    <rc><c>O </c><c>   3</c></rc>
   </set>
  </array>
  <array name="atomtypes" >
   <dimension dim="1">type</dimension>
   <field type="int">atomspertype</field>
   <field type="string">element</field>
   <field>mass</field>
   <field>valence</field>
   <field type="string">pseudopotential</field>
   <set>
    <rc><c>  13</c><c>Cu</c><c>     63.54600000</c><c>     11.00000000</c><c>  PAW_PBE Cu 22Jun2005                  </c></rc>
    <rc><c>   1</c><c>C </c><c>     12.01100000</c><c>      4.00000000</c><c>  PAW_PBE C 08Apr2002                   </c></rc>
    <rc><c>   1</c><c>O </c><c>     16.00000000</c><c>      6.00000000</c><c>  PAW_PBE O 08Apr2002                   </c></rc>
   </set>
  </array>
 </atominfo>
 <structure name="initialpos" >
  <crystal>
   <varray name="basis" >
    <v>      15.00000000       0.00000000       0.00000000 </v>
    <v>       0.00000000      15.00000000       0.00000000 </v>
    <v>       0.00000000       0.00000000      15.00000000 </v>
   </varray>
   <i name="volume">   3375.00000000 </i>
   <varray name="rec_basis" >
    <v>       0.06666667       0.00000000       0.00000000 </v>
    <v>       0.00000000       0.06666667       0.00000000 </v>
    <v>       0.00000000       0.00000000       0.06666667 </v>
   </varray>
  </crystal>
  <varray name="positions" >
   <v>       0.29168600       0.41854867       0.55034533 </v>
   <v>       0.37696200       0.54779067       0.49149200 </v>
   <v>       0.39557867       0.29257200       0.56258333 </v>
   <v>       0.53504467       0.50582533       0.48336333 </v>
   <v>       0.54942000       0.34393533       0.53073600 </v>
   <v>       0.44863800       0.43838733       0.61075600 </v>
   <v>       0.41528333       0.40093067       0.45148933 </v>
   <v>       0.22600400       0.57058867       0.54691067 </v>
   <v>       0.33605267       0.54540200       0.65128800 </v>
   <v>       0.35139133       0.68720000       0.57190333 </v>
   <v>       0.49039867       0.67090667       0.47745333 </v>
   <v>       0.61571400       0.47512267       0.61391200 </v>
   <v>       0.48800800       0.59124000       0.61690733 </v>
   <v>       0.73313333       0.49032867       0.63795133 </v>
   <v>       0.80910667       0.48909400       0.63925667 </v>
  </varray>
 </structure>
 <calculation>
  <scstep>
   <time name="dav">    7.78    7.78</time>
   <time name="total">    8.97    8.98</time>
   <energy>
    <i name="alphaZ">     41.16232785 </i>
    <i name="ewald">  16618.72189737 </i>
    <i name="hartreedc"> -33634.89161581 </i>
    <i name="XCdc">    623.84459514 </i>
    <i name="pawpsdc">  16421.75059358 </i>
    <i name="pawaedc"> -17800.06104309 </i>
    <i name="eentropy">      0.02122377 </i>
    <i name="bandstr">    189.39532845 </i>
    <i name="atom">  18662.21924712 </i>
    <i name="e_fr_energy">   1122.16255437 </i>
    <i name="e_wo_entrp">   1122.14133059 </i>
    <i name="e_0_energy">   1122.15547977 </i>
   </energy>
  </scstep>
  <scstep>
   <time name="dav">    7.66    7.66</time>
   <time name="total">    7.66    7.66</time>
   <energy>
    <i name="e_fr_energy">     89.46233901 </i>
    <i name="e_wo_entrp">     89.45647112 </i>
    <i name="e_0_energy">     89.46038305 </i>
   </energy>
  </scstep>
  <scstep>
   <time name="dav">   11.93   11.94</time>
   <time name="total">   11.93   11.94</time>
   <energy>
    <i name="e_fr_energy">    -31.77460631 </i>
    <i name="e_wo_entrp">    -31.79235951 </i>
    <i name="e_0_energy">    -31.78052404 </i>
   </energy>
  </scstep>
  <scstep>
   <time name="dav">   10.63   10.64</time>
   <time name="total">   10.63   10.64</time>
   <energy>
    <i name="e_fr_energy">    -55.78831284 </i>
    <i name="e_wo_entrp">    -55.79825390 </i>
    <i name="e_0_energy">    -55.79162653 </i>
   </energy>
  </scstep>
  <scstep>
   <time name="dav">   12.16   12.17</time>
   <time name="total">   12.89   12.90</time>
   <energy>
    <i name="e_fr_energy">    -57.60496465 </i>
    <i name="e_wo_entrp">    -57.61962992 </i>
    <i name="e_0_energy">    -57.60985307 </i>
   </energy>
  </scstep>
  <scstep>
   <time name="diag">    1.09    1.09</time>
   <time name="diis">    6.87    6.88</time>
   <time name="orth">    0.06    0.06</time>
   <time name="total">    9.86    9.87</time>
   <energy>
    <i name="e_fr_energy">    -56.43838087 </i>
    <i name="e_wo_entrp">    -56.44770701 </i>
    <i name="e_0_energy">    -56.44148959 </i>
   </energy>
  </scstep>
  <scstep>
   <time name="diag">    1.08    1.08</time>
   <time name="diis">    6.77    6.78</time>
   <time name="orth">    0.06    0.06</time>
   <time name="total">    9.77    9.78</time>
   <energy>
    <i name="e_fr_energy">    -49.32824775 </i>
    <i name="e_wo_entrp">    -49.33756094 </i>
    <i name="e_0_energy">    -49.33135214 </i>
   </energy>
  </scstep>
  <scstep>
   <time name="diag">    1.08    1.09</time>
   <time name="diis">    7.50    7.51</time>
   <time name="orth">    0.06    0.06</time>
   <time name="total">   10.50   10.51</time>
   <energy>
    <i name="e_fr_energy">    -49.12041952 </i>
    <i name="e_wo_entrp">    -49.12976883 </i>
    <i name="e_0_energy">    -49.12353596 </i>
   </energy>
  </scstep>
  <scstep>
   <time name="diag">    1.08    1.09</time>
   <time name="diis">    7.02    7.02</time>
   <time name="orth">    0.06    0.06</time>
   <time name="total">   10.02   10.03</time>
   <energy>
    <i name="e_fr_energy">    -49.07365253 </i>
    <i name="e_wo_entrp">    -49.08297316 </i>
    <i name="e_0_energy">    -49.07675941 </i>
   </energy>
  </scstep>
  <scstep>
   <time name="diag">    1.08    1.08</time>
   <time name="diis">    7.28    7.29</time>
   <time name="orth">    0.06    0.06</time>
   <time name="total">   10.28   10.29</time>
   <energy>
    <i name="e_fr_energy">    -49.01825358 </i>
    <i name="e_wo_entrp">    -49.02760094 </i>
    <i name="e_0_energy">    -49.02136937 </i>
   </energy>
  </scstep>
  <scstep>
   <time name="diag">    1.08    1.08</time>
   <time name="diis">    7.26    7.27</time>
   <time name="orth">    0.06    0.06</time>
   <time name="total">   10.26   10.26</time>
   <energy>
    <i name="e_fr_energy">    -49.00885177 </i>
    <i name="e_wo_entrp">    -49.01816526 </i>
    <i name="e_0_energy">    -49.01195627 </i>
   </energy>
  </scstep>
  <scstep>
   <time name="diag">    1.09    1.09</time>
   <time name="diis">    7.14    7.14</time>
   <time name="orth">    0.05    0.05</time>
   <time name="total">   10.14   10.15</time>
   <energy>
    <i name="e_fr_energy">    -49.00611370 </i>
    <i name="e_wo_entrp">    -49.01544629 </i>
    <i name="e_0_energy">    -49.00922457 </i>
   </energy>
  </scstep>
  <scstep>
   <time name="diag">    1.08    1.08</time>
   <time name="diis">    7.92    7.93</time>
   <time name="orth">    0.05    0.05</time>
   <time name="total">   10.92   10.93</time>
   <energy>
    <i name="e_fr_energy">    -49.00532701 </i>
    <i name="e_wo_entrp">    -49.01465079 </i>
    <i name="e_0_energy">    -49.00843494 </i>
   </energy>
  </scstep>
  <scstep>
   <time name="diag">    1.08    1.08</time>
   <time name="diis">    6.96    6.96</time>
   <time name="orth">    0.05    0.05</time>
   <time name="total">    9.95    9.96</time>
   <energy>
    <i name="e_fr_energy">    -49.00653131 </i>
    <i name="e_wo_entrp">    -49.01585125 </i>
    <i name="e_0_energy">    -49.00963796 </i>
   </energy>
  </scstep>
  <scstep>
   <time name="diag">    1.08    1.08</time>
   <time name="diis">    6.88    6.88</time>
   <time name="orth">    0.05    0.05</time>
   <time name="total">    9.88    9.88</time>
   <energy>
    <i name="e_fr_energy">    -49.00765468 </i>
    <i name="e_wo_entrp">    -49.01697488 </i>
    <i name="e_0_energy">    -49.01076141 </i>
   </energy>
  </scstep>
  <scstep>
   <time name="diag">    1.08    1.08</time>
   <time name="diis">    6.55    6.55</time>
   <time name="orth">    0.05    0.05</time>
   <time name="total">    9.55    9.56</time>
   <energy>
    <i name="e_fr_energy">    -49.00910952 </i>
    <i name="e_wo_entrp">    -49.01842626 </i>
    <i name="e_0_energy">    -49.01221510 </i>
   </energy>
  </scstep>
  <scstep>
   <time name="diag">    1.08    1.08</time>
   <time name="diis">    6.80    6.80</time>
   <time name="orth">    0.05    0.05</time>
   <time name="total">    9.80    9.81</time>
   <energy>
    <i name="e_fr_energy">    -49.01089691 </i>
    <i name="e_wo_entrp">    -49.02021361 </i>
    <i name="e_0_energy">    -49.01400247 </i>
   </energy>
  </scstep>
  <scstep>
   <time name="diag">    1.08    1.08</time>
   <time name="diis">    6.78    6.79</time>
   <time name="orth">    0.05    0.05</time>
   <time name="total">    9.78    9.79</time>
   <energy>
    <i name="e_fr_energy">    -49.01182178 </i>
    <i name="e_wo_entrp">    -49.02113859 </i>
    <i name="e_0_energy">    -49.01492738 </i>
   </energy>
  </scstep>
  <scstep>
   <time name="diag">    1.08    1.08</time>
   <time name="diis">    7.53    7.53</time>
   <time name="orth">    0.06    0.06</time>
   <time name="total">   10.53   10.54</time>
   <energy>
    <i name="e_fr_energy">    -49.01255781 </i>
    <i name="e_wo_entrp">    -49.02187482 </i>
    <i name="e_0_energy">    -49.01566348 </i>
   </energy>
  </scstep>
  <scstep>
   <time name="diag">    1.08    1.08</time>
   <time name="diis">    6.93    6.93</time>
   <time name="orth">    0.05    0.05</time>
   <time name="total">    9.93    9.95</time>
   <energy>
    <i name="e_fr_energy">    -49.01311390 </i>
    <i name="e_wo_entrp">    -49.02243128 </i>
    <i name="e_0_energy">    -49.01621969 </i>
   </energy>
  </scstep>
  <scstep>
   <time name="diag">    1.08    1.08</time>
   <time name="diis">    6.87    6.87</time>
   <time name="orth">    0.05    0.05</time>
   <time name="total">    9.87    9.89</time>
   <energy>
    <i name="e_fr_energy">    -49.01353043 </i>
    <i name="e_wo_entrp">    -49.02284815 </i>
    <i name="e_0_energy">    -49.01663634 </i>
   </energy>
  </scstep>
  <scstep>
   <time name="diag">    1.08    1.09</time>
   <time name="diis">    6.74    6.75</time>
   <time name="orth">    0.05    0.05</time>
   <time name="total">    9.75    9.76</time>
   <energy>
    <i name="e_fr_energy">    -49.01375292 </i>
    <i name="e_wo_entrp">    -49.02307036 </i>
    <i name="e_0_energy">    -49.01685873 </i>
   </energy>
  </scstep>
  <scstep>
   <time name="diag">    1.08    1.08</time>
   <time name="diis">    6.83    6.83</time>
   <time name="orth">    0.05    0.05</time>
   <time name="total">    9.84    9.85</time>
   <energy>
    <i name="e_fr_energy">    -49.01387985 </i>
    <i name="e_wo_entrp">    -49.02319746 </i>
    <i name="e_0_energy">    -49.01698572 </i>
   </energy>
  </scstep>
  <scstep>
   <time name="diag">    1.08    1.08</time>
   <time name="diis">    6.85    6.86</time>
   <time name="orth">    0.06    0.06</time>
   <time name="total">    9.87    9.88</time>
   <energy>
    <i name="e_fr_energy">    -49.01398415 </i>
    <i name="e_wo_entrp">    -49.02330171 </i>
    <i name="e_0_energy">    -49.01709001 </i>
   </energy>
  </scstep>
  <scstep>
   <time name="diag">    1.08    1.08</time>
   <time name="diis">    6.71    6.72</time>
   <time name="orth">    0.05    0.05</time>
   <time name="total">    9.73    9.74</time>
   <energy>
    <i name="e_fr_energy">    -49.01404914 </i>
    <i name="e_wo_entrp">    -49.02336675 </i>
    <i name="e_0_energy">    -49.01715501 </i>
   </energy>
  </scstep>
  <scstep>
   <time name="diag">    1.08    1.08</time>
   <time name="diis">    6.39    6.39</time>
   <time name="orth">    0.05    0.05</time>
   <time name="total">    9.41    9.41</time>
   <energy>
    <i name="e_fr_energy">    -49.01408591 </i>
    <i name="e_wo_entrp">    -49.02340346 </i>
    <i name="e_0_energy">    -49.01719176 </i>
   </energy>
  </scstep>
  <scstep>
   <time name="diag">    1.08    1.08</time>
   <time name="diis">    4.99    4.99</time>
   <time name="orth">    0.05    0.05</time>
   <time name="total">    8.00    8.01</time>
   <energy>
    <i name="e_fr_energy">    -49.01410072 </i>
    <i name="e_wo_entrp">    -49.02341831 </i>
    <i name="e_0_energy">    -49.01720658 </i>
   </energy>
  </scstep>
  <scstep>
   <time name="diag">    1.08    1.08</time>
   <time name="diis">    4.66    4.66</time>
   <time name="orth">    0.05    0.05</time>
   <time name="total">    7.68    7.69</time>
   <energy>
    <i name="e_fr_energy">    -49.01410456 </i>
    <i name="e_wo_entrp">    -49.02342217 </i>
    <i name="e_0_energy">    -49.01721043 </i>
   </energy>
  </scstep>
  <scstep>
   <time name="diag">    1.08    1.08</time>
   <time name="diis">    4.31    4.31</time>
   <time name="orth">    0.05    0.05</time>
   <time name="total">    7.34    7.34</time>
   <energy>
    <i name="e_fr_energy">    -49.01410824 </i>
    <i name="e_wo_entrp">    -49.02342586 </i>
    <i name="e_0_energy">    -49.01721411 </i>
   </energy>
  </scstep>
  <scstep>
   <time name="diag">    1.08    1.08</time>
   <time name="diis">    4.50    4.50</time>
   <time name="orth">    0.05    0.05</time>
   <time name="total">    7.53    7.54</time>
   <energy>
    <i name="e_fr_energy">    -49.01411003 </i>
    <i name="e_wo_entrp">    -49.02342766 </i>
    <i name="e_0_energy">    -49.01721591 </i>
   </energy>
  </scstep>
  <scstep>
   <time name="diag">    1.09    1.09</time>
   <time name="diis">    4.51    4.52</time>
   <time name="orth">    0.05    0.05</time>
   <time name="total">    7.58    7.58</time>
   <energy>
    <i name="e_fr_energy">    -49.01411098 </i>
    <i name="e_wo_entrp">    -49.02342862 </i>
    <i name="e_0_energy">    -49.01721686 </i>
   </energy>
  </scstep>
  <scstep>
   <time name="diag">    1.09    1.10</time>
   <time name="diis">    4.47    4.48</time>
   <time name="orth">    0.05    0.05</time>
   <time name="total">    7.54    7.55</time>
   <energy>
    <i name="e_fr_energy">    -49.01411156 </i>
    <i name="e_wo_entrp">    -49.02342919 </i>
    <i name="e_0_energy">    -49.01721744 </i>
   </energy>
  </scstep>
  <scstep>
   <time name="diag">    1.09    1.09</time>
   <time name="diis">    4.41    4.41</time>
   <time name="orth">    0.05    0.05</time>
   <time name="total">    7.48    7.49</time>
   <energy>
    <i name="e_fr_energy">    -49.01411206 </i>
    <i name="e_wo_entrp">    -49.02342969 </i>
    <i name="e_0_energy">    -49.01721794 </i>
   </energy>
  </scstep>
  <scstep>
   <time name="diag">    1.09    1.09</time>
   <time name="diis">    4.19    4.19</time>
   <time name="orth">    0.05    0.05</time>
   <time name="total">    7.27    7.28</time>
   <energy>
    <i name="e_fr_energy">    -49.01411248 </i>
    <i name="e_wo_entrp">    -49.02343011 </i>
    <i name="e_0_energy">    -49.01721836 </i>
   </energy>
  </scstep>
  <scstep>
   <time name="diag">    1.09    1.09</time>
   <time name="diis">    3.84    3.85</time>
   <time name="orth">    0.06    0.06</time>
   <time name="total">    7.00    7.00</time>
   <energy>
    <i name="e_fr_energy">    -49.01411273 </i>
    <i name="e_wo_entrp">    -49.02343036 </i>
    <i name="e_0_energy">    -49.01721861 </i>
   </energy>
  </scstep>
  <scstep>
   <time name="diag">    1.09    1.09</time>
   <time name="diis">    3.53    3.53</time>
   <time name="orth">    0.05    0.05</time>
   <time name="total">    6.62    6.63</time>
   <energy>
    <i name="e_fr_energy">    -49.01411292 </i>
    <i name="e_wo_entrp">    -49.02343054 </i>
    <i name="e_0_energy">    -49.01721879 </i>
   </energy>
  </scstep>
  <scstep>
   <time name="diag">    1.09    1.09</time>
   <time name="diis">    3.42    3.42</time>
   <time name="orth">    0.05    0.05</time>
   <time name="total">    5.75    5.75</time>
   <energy>
    <i name="alphaZ">     41.16232785 </i>
    <i name="ewald">  16618.72189737 </i>
    <i name="hartreedc"> -33595.00046236 </i>
    <i name="XCdc">    615.83668653 </i>
    <i name="pawpsdc">  17716.14717278 </i>
    <i name="pawaedc"> -19115.32500273 </i>
    <i name="eentropy">      0.00931763 </i>
    <i name="bandstr">   -992.78529718 </i>
    <i name="atom">  18662.21924712 </i>
    <i name="e_fr_energy">    -49.01411300 </i>
    <i name="e_wo_entrp">    -49.02343063 </i>
    <i name="e_0_energy">    -49.01721888 </i>
   </energy>
  </scstep>
  <structure>
   <crystal>
    <varray name="basis" >
     <v>      15.00000000       0.00000000       0.00000000 </v>
     <v>       0.00000000      15.00000000       0.00000000 </v>
     <v>       0.00000000       0.00000000      15.00000000 </v>
    </varray>
    <i name="volume">   3375.00000000 </i>
    <varray name="rec_basis" >
     <v>       0.06666667       0.00000000       0.00000000 </v>
     <v>       0.00000000       0.06666667       0.00000000 </v>
     <v>       0.00000000       0.00000000       0.06666667 </v>
    </varray>
   </crystal>
   <varray name="positions" >
    <v>       0.29168600       0.41854867       0.55034533 </v>
    <v>       0.37696200       0.54779067       0.49149200 </v>
    <v>       0.39557867       0.29257200       0.56258333 </v>
    <v>       0.53504467       0.50582533       0.48336333 </v>
    <v>       0.54942000       0.34393533       0.53073600 </v>
    <v>       0.44863800       0.43838733       0.61075600 </v>
    <v>       0.41528333       0.40093067       0.45148933 </v>
    <v>       0.22600400       0.57058867       0.54691067 </v>
    <v>       0.33605267       0.54540200       0.65128800 </v>
    <v>       0.35139133       0.68720000       0.57190333 </v>
    <v>       0.49039867       0.67090667       0.47745333 </v>
    <v>       0.61571400       0.47512267       0.61391200 </v>
    <v>       0.48800800       0.59124000       0.61690733 </v>
    <v>       0.73313333       0.49032867       0.63795133 </v>
    <v>       0.80910667       0.48909400       0.63925667 </v>
   </varray>
  </structure>
  <varray name="forces" >
   <v>      -0.18067729       0.13875439       0.27047534 </v>
   <v>      -0.02050931       0.61801515       0.00003495 </v>
   <v>      -0.04711648      -0.23123424       0.21125420 </v>
   <v>      -0.11267859       0.18158799      -0.30506472 </v>
   <v>       0.01122709       0.18551108      -0.07255653 </v>
   <v>       0.16787333      -0.42447605       0.00311619 </v>
   <v>       0.32987404      -0.26405865      -0.33613083 </v>
   <v>      -0.16133673       0.13525005      -0.19289605 </v>
   <v>       0.14422207       0.00172430       0.23045091 </v>
   <v>       0.17066214      -0.28254284      -0.14008515 </v>
   <v>      -0.19628490      -0.31412339       0.27972431 </v>
   <v>      -0.29536425       0.04702208       0.02540394 </v>
   <v>      -0.02977171       0.31555392      -0.17699186 </v>
   <v>      -1.54084158      -0.22845636       0.22980048 </v>
   <v>       1.76072218       0.12147257      -0.02653518 </v>
  </varray>
  <varray name="stress" >
   <v>       1.03434521      -0.19585317       0.13717824 </v>
   <v>      -0.19585317       0.08583077      -0.16635616 </v>
   <v>       0.13717824      -0.16635617       0.41747225 </v>
  </varray>
  <energy>
   <i name="e_fr_energy">    -49.01411300 </i>
   <i name="e_wo_entrp">    -49.01721888 </i>
   <i name="e_0_energy">      0.00931763 </i>
  </energy>
  <time name="totalsc">  352.89  353.20</time>
  <eigenvalues>
   <array>
    <dimension dim="1">band</dimension>
    <dimension dim="2">kpoint</dimension>
    <dimension dim="3">spin</dimension>
    <field>eigene</field>
    <field>occ</field>
    <set>
     <set comment="spin 1">
      <set comment="kpoint 1">
       <r>  -28.7828    1.0000 </r>
       <r>  -13.8751    1.0000 </r>
       <r>  -11.4702    1.0000 </r>
       <r>  -11.3626    1.0000 </r>
       <r>  -11.1790    1.0000 </r>
       <r>  -10.2269    1.0000 </r>
       <r>   -8.6457    1.0000 </r>
       <r>   -8.2812    1.0000 </r>
       <r>   -7.7419    1.0000 </r>
       <r>   -7.6193    1.0000 </r>
       <r>   -7.5228    1.0000 </r>
       <r>   -7.4535    1.0000 </r>
       <r>   -7.3200    1.0000 </r>
       <r>   -7.1790    1.0000 </r>
       <r>   -7.1093    1.0000 </r>
       <r>   -6.9704    1.0000 </r>
       <r>   -6.9079    1.0000 </r>
       <r>   -6.8199    1.0000 </r>
       <r>   -6.8092    1.0000 </r>
       <r>   -6.7182    1.0000 </r>
       <r>   -6.6758    1.0000 </r>
       <r>   -6.6355    1.0000 </r>
       <r>   -6.5250    1.0000 </r>
       <r>   -6.5122    1.0000 </r>
       <r>   -6.4485    1.0000 </r>
       <r>   -6.3973    1.0000 </r>
       <r>   -6.3397    1.0000 </r>
       <r>   -6.3009    1.0000 </r>
       <r>   -6.2241    1.0000 </r>
       <r>   -6.1954    1.0000 </r>
       <r>   -6.1525    1.0000 </r>
       <r>   -6.1165    1.0000 </r>
       <r>   -6.0495    1.0000 </r>
       <r>   -6.0192    1.0000 </r>
       <r>   -5.9157    1.0000 </r>
       <r>   -5.8153    1.0000 </r>
       <r>   -5.7287    1.0000 </r>
       <r>   -5.6922    1.0000 </r>
       <r>   -5.6628    1.0000 </r>
       <r>   -5.6538    1.0000 </r>
       <r>   -5.6035    1.0000 </r>
       <r>   -5.5370    1.0000 </r>
       <r>   -5.5209    1.0000 </r>
       <r>   -5.4588    1.0000 </r>
       <r>   -5.4525    1.0000 </r>
       <r>   -5.4194    1.0000 </r>
       <r>   -5.3874    1.0000 </r>
       <r>   -5.3731    1.0000 </r>
       <r>   -5.3482    1.0000 </r>
       <r>   -5.3265    1.0000 </r>
       <r>   -5.3051    1.0000 </r>
       <r>   -5.2787    1.0000 </r>
       <r>   -5.2418    1.0000 </r>
       <r>   -5.2202    1.0000 </r>
       <r>   -5.1849    1.0000 </r>
       <r>   -5.1585    1.0000 </r>
       <r>   -5.1552    1.0000 </r>
       <r>   -5.1395    1.0000 </r>
       <r>   -5.0893    1.0000 </r>
       <r>   -5.0687    1.0000 </r>
       <r>   -5.0390    1.0000 </r>
       <r>   -4.9950    1.0000 </r>
       <r>   -4.9914    1.0000 </r>
       <r>   -4.9844    1.0000 </r>
       <r>   -4.9321    1.0000 </r>
       <r>   -4.9030    1.0000 </r>
       <r>   -4.8951    1.0000 </r>
       <r>   -4.8604    1.0000 </r>
       <r>   -4.8466    1.0000 </r>
       <r>   -4.8231    1.0000 </r>
       <r>   -4.8027    1.0000 </r>
       <r>   -4.7619    1.0000 </r>
       <r>   -4.7186    1.0000 </r>
       <r>   -4.5247    1.0000 </r>
       <r>   -4.1876    1.0000 </r>
       <r>   -4.1590    1.0000 </r>
       <r>   -3.4456    1.0000 </r>
       <r>   -2.9938   -0.0000 </r>
       <r>   -2.8466   -0.0000 </r>
       <r>   -2.4878   -0.0000 </r>
       <r>   -2.3478   -0.0000 </r>
       <r>   -2.0108   -0.0000 </r>
       <r>   -1.8709   -0.0000 </r>
       <r>   -1.6323   -0.0000 </r>
       <r>   -1.3244   -0.0000 </r>
       <r>   -1.0264   -0.0000 </r>
       <r>   -0.9288   -0.0000 </r>
       <r>   -0.6447   -0.0000 </r>
       <r>   -0.3818    0.0000 </r>
       <r>   -0.3251    0.0000 </r>
       <r>   -0.1497    0.0000 </r>
       <r>    0.2207    0.0000 </r>
      </set>
     </set>
     <set comment="spin 2">
      <set comment="kpoint 1">
       <r>  -28.7672    1.0000 </r>
       <r>  -13.8448    1.0000 </r>
       <r>  -11.4529    1.0000 </r>
       <r>  -11.3292    1.0000 </r>
       <r>  -11.1426    1.0000 </r>
       <r>  -10.1857    1.0000 </r>
       <r>   -8.6225    1.0000 </r>
       <r>   -8.2312    1.0000 </r>
       <r>   -7.7011    1.0000 </r>
       <r>   -7.5991    1.0000 </r>
       <r>   -7.4942    1.0000 </r>
       <r>   -7.4134    1.0000 </r>
       <r>   -7.2830    1.0000 </r>
       <r>   -7.1448    1.0000 </r>
       <r>   -7.0804    1.0000 </r>
       <r>   -6.9314    1.0000 </r>
       <r>   -6.8674    1.0000 </r>
       <r>   -6.7982    1.0000 </r>
       <r>   -6.7765    1.0000 </r>
       <r>   -6.6971    1.0000 </r>
       <r>   -6.6515    1.0000 </r>
       <r>   -6.6085    1.0000 </r>
       <r>   -6.5074    1.0000 </r>
       <r>   -6.4853    1.0000 </r>
       <r>   -6.4173    1.0000 </r>
       <r>   -6.3700    1.0000 </r>
       <r>   -6.3153    1.0000 </r>
       <r>   -6.2737    1.0000 </r>
       <r>   -6.2035    1.0000 </r>
       <r>   -6.1674    1.0000 </r>
       <r>   -6.1237    1.0000 </r>
       <r>   -6.0899    1.0000 </r>
       <r>   -6.0211    1.0000 </r>
       <r>   -6.0019    1.0000 </r>
       <r>   -5.8909    1.0000 </r>
       <r>   -5.7909    1.0000 </r>
       <r>   -5.6987    1.0000 </r>
       <r>   -5.6686    1.0000 </r>
       <r>   -5.6393    1.0000 </r>
       <r>   -5.6288    1.0000 </r>
       <r>   -5.5782    1.0000 </r>
       <r>   -5.5087    1.0000 </r>
       <r>   -5.4912    1.0000 </r>
       <r>   -5.4336    1.0000 </r>
       <r>   -5.4230    1.0000 </r>
       <r>   -5.3961    1.0000 </r>
       <r>   -5.3624    1.0000 </r>
       <r>   -5.3501    1.0000 </r>
       <r>   -5.3211    1.0000 </r>
       <r>   -5.3018    1.0000 </r>
       <r>   -5.2734    1.0000 </r>
       <r>   -5.2547    1.0000 </r>
       <r>   -5.2183    1.0000 </r>
       <r>   -5.1935    1.0000 </r>
       <r>   -5.1576    1.0000 </r>
       <r>   -5.1371    1.0000 </r>
       <r>   -5.1321    1.0000 </r>
       <r>   -5.1200    1.0000 </r>
       <r>   -5.0575    1.0000 </r>
       <r>   -5.0465    1.0000 </r>
       <r>   -5.0105    1.0000 </r>
       <r>   -4.9771    1.0000 </r>
       <r>   -4.9672    1.0000 </r>
       <r>   -4.9554    1.0000 </r>
       <r>   -4.9102    1.0000 </r>
       <r>   -4.8779    1.0000 </r>
       <r>   -4.8730    1.0000 </r>
       <r>   -4.8235    1.0000 </r>
       <r>   -4.8050    1.0000 </r>
       <r>   -4.7903    1.0000 </r>
       <r>   -4.7704    1.0000 </r>
       <r>   -4.7357    1.0000 </r>
       <r>   -4.6895    1.0000 </r>
       <r>   -4.4802    1.0000 </r>
       <r>   -4.1536    1.0349 </r>
       <r>   -4.0961    0.9651 </r>
       <r>   -3.2293   -0.0000 </r>
       <r>   -2.9453   -0.0000 </r>
       <r>   -2.7945   -0.0000 </r>
       <r>   -2.4246   -0.0000 </r>
       <r>   -2.2614   -0.0000 </r>
       <r>   -1.9844   -0.0000 </r>
       <r>   -1.7933   -0.0000 </r>
       <r>   -1.5685   -0.0000 </r>
       <r>   -1.2023    0.0000 </r>
       <r>   -0.9094    0.0000 </r>
       <r>   -0.8330    0.0000 </r>
       <r>   -0.5624    0.0000 </r>
       <r>   -0.3016    0.0000 </r>
       <r>   -0.2747    0.0000 </r>
       <r>   -0.0632    0.0000 </r>
       <r>    0.2507    0.0000 </r>
      </set>
     </set>
    </set>
   </array>
  </eigenvalues>
  <separator name="orbital magnetization" >
   <v name="MAGDIPOLOUT">      0.00000000      0.00000000      0.00000000</v>
  </separator>
  <dos>
   <i name="efermi">     -4.02460612 </i>
   <total>
    <array>
     <dimension dim="1">gridpoints</dimension>
     <dimension dim="2">spin</dimension>
     <field>energy</field>
     <field>total</field>
     <field>integrated</field>
     <set>
      <set comment="spin 1">
       <r>   -30.2344     0.0000     0.0000 </r>
       <r>   -30.1280     0.0000     0.0000 </r>
       <r>   -30.0215     0.0000     0.0000 </r>
       <r>   -29.9151     0.0000     0.0000 </r>
       <r>   -29.8086     0.0000     0.0000 </r>
       <r>   -29.7021     0.0000     0.0000 </r>
       <r>   -29.5957    -0.0000    -0.0000 </r>
       <r>   -29.4892    -0.0000    -0.0000 </r>
       <r>   -29.3828    -0.0000    -0.0000 </r>
       <r>   -29.2763    -0.0000    -0.0000 </r>
       <r>   -29.1699    -0.0000    -0.0000 </r>
       <r>   -29.0634    -0.0050    -0.0005 </r>
       <r>   -28.9570    -0.3098    -0.0335 </r>
       <r>   -28.8505     1.2212     0.0965 </r>
       <r>   -28.7440    14.1603     1.6039 </r>
       <r>   -28.6376     4.2791     2.0595 </r>
       <r>   -28.5311    -0.5385     2.0022 </r>
       <r>   -28.4247    -0.0202     2.0000 </r>
       <r>   -28.3182    -0.0000     2.0000 </r>
       <r>   -28.2118    -0.0000     2.0000 </r>
       <r>   -28.1053    -0.0000     2.0000 </r>
       <r>   -27.9989     0.0000     2.0000 </r>
       <r>   -27.8924     0.0000     2.0000 </r>
       <r>   -27.7859     0.0000     2.0000 </r>
       <r>   -27.6795     0.0000     2.0000 </r>
       <r>   -27.5730     0.0000     2.0000 </r>
       <r>   -27.4666     0.0000     2.0000 </r>
       <r>   -27.3601     0.0000     2.0000 </r>
       <r>   -27.2537     0.0000     2.0000 </r>
       <r>   -27.1472     0.0000     2.0000 </r>
       <r>   -27.0408     0.0000     2.0000 </r>
       <r>   -26.9343     0.0000     2.0000 </r>
       <r>   -26.8278     0.0000     2.0000 </r>
       <r>   -26.7214     0.0000     2.0000 </r>
       <r>   -26.6149     0.0000     2.0000 </r>
       <r>   -26.5085     0.0000     2.0000 </r>
       <r>   -26.4020     0.0000     2.0000 </r>
       <r>   -26.2956     0.0000     2.0000 </r>
       <r>   -26.1891     0.0000     2.0000 </r>
       <r>   -26.0826     0.0000     2.0000 </r>
       <r>   -25.9762     0.0000     2.0000 </r>
       <r>   -25.8697     0.0000     2.0000 </r>
       <r>   -25.7633     0.0000     2.0000 </r>
       <r>   -25.6568     0.0000     2.0000 </r>
       <r>   -25.5504     0.0000     2.0000 </r>
       <r>   -25.4439     0.0000     2.0000 </r>
       <r>   -25.3375     0.0000     2.0000 </r>
       <r>   -25.2310     0.0000     2.0000 </r>
       <r>   -25.1245     0.0000     2.0000 </r>
       <r>   -25.0181     0.0000     2.0000 </r>
       <r>   -24.9116     0.0000     2.0000 </r>
       <r>   -24.8052     0.0000     2.0000 </r>
       <r>   -24.6987     0.0000     2.0000 </r>
       <r>   -24.5923     0.0000     2.0000 </r>
       <r>   -24.4858     0.0000     2.0000 </r>
       <r>   -24.3794     0.0000     2.0000 </r>
       <r>   -24.2729     0.0000     2.0000 </r>
       <r>   -24.1664     0.0000     2.0000 </r>
       <r>   -24.0600     0.0000     2.0000 </r>
       <r>   -23.9535     0.0000     2.0000 </r>
       <r>   -23.8471     0.0000     2.0000 </r>
       <r>   -23.7406     0.0000     2.0000 </r>
       <r>   -23.6342     0.0000     2.0000 </r>
       <r>   -23.5277     0.0000     2.0000 </r>
       <r>   -23.4213     0.0000     2.0000 </r>
       <r>   -23.3148     0.0000     2.0000 </r>
       <r>   -23.2083     0.0000     2.0000 </r>
       <r>   -23.1019     0.0000     2.0000 </r>
       <r>   -22.9954     0.0000     2.0000 </r>
       <r>   -22.8890     0.0000     2.0000 </r>
       <r>   -22.7825     0.0000     2.0000 </r>
       <r>   -22.6761     0.0000     2.0000 </r>
       <r>   -22.5696     0.0000     2.0000 </r>
       <r>   -22.4631     0.0000     2.0000 </r>
       <r>   -22.3567     0.0000     2.0000 </r>
       <r>   -22.2502     0.0000     2.0000 </r>
       <r>   -22.1438     0.0000     2.0000 </r>
       <r>   -22.0373     0.0000     2.0000 </r>
       <r>   -21.9309     0.0000     2.0000 </r>
       <r>   -21.8244     0.0000     2.0000 </r>
       <r>   -21.7180     0.0000     2.0000 </r>
       <r>   -21.6115     0.0000     2.0000 </r>
       <r>   -21.5050     0.0000     2.0000 </r>
       <r>   -21.3986     0.0000     2.0000 </r>
       <r>   -21.2921     0.0000     2.0000 </r>
       <r>   -21.1857     0.0000     2.0000 </r>
       <r>   -21.0792     0.0000     2.0000 </r>
       <r>   -20.9728     0.0000     2.0000 </r>
       <r>   -20.8663     0.0000     2.0000 </r>
       <r>   -20.7599     0.0000     2.0000 </r>
       <r>   -20.6534     0.0000     2.0000 </r>
       <r>   -20.5469     0.0000     2.0000 </r>
       <r>   -20.4405     0.0000     2.0000 </r>
       <r>   -20.3340     0.0000     2.0000 </r>
       <r>   -20.2276     0.0000     2.0000 </r>
       <r>   -20.1211     0.0000     2.0000 </r>
       <r>   -20.0147     0.0000     2.0000 </r>
       <r>   -19.9082     0.0000     2.0000 </r>
       <r>   -19.8018     0.0000     2.0000 </r>
       <r>   -19.6953     0.0000     2.0000 </r>
       <r>   -19.5888     0.0000     2.0000 </r>
       <r>   -19.4824     0.0000     2.0000 </r>
       <r>   -19.3759     0.0000     2.0000 </r>
       <r>   -19.2695     0.0000     2.0000 </r>
       <r>   -19.1630     0.0000     2.0000 </r>
       <r>   -19.0566     0.0000     2.0000 </r>
       <r>   -18.9501     0.0000     2.0000 </r>
       <r>   -18.8436     0.0000     2.0000 </r>
       <r>   -18.7372     0.0000     2.0000 </r>
       <r>   -18.6307     0.0000     2.0000 </r>
       <r>   -18.5243     0.0000     2.0000 </r>
       <r>   -18.4178     0.0000     2.0000 </r>
       <r>   -18.3114     0.0000     2.0000 </r>
       <r>   -18.2049     0.0000     2.0000 </r>
       <r>   -18.0985     0.0000     2.0000 </r>
       <r>   -17.9920     0.0000     2.0000 </r>
       <r>   -17.8855     0.0000     2.0000 </r>
       <r>   -17.7791     0.0000     2.0000 </r>
       <r>   -17.6726     0.0000     2.0000 </r>
       <r>   -17.5662     0.0000     2.0000 </r>
       <r>   -17.4597     0.0000     2.0000 </r>
       <r>   -17.3533     0.0000     2.0000 </r>
       <r>   -17.2468     0.0000     2.0000 </r>
       <r>   -17.1404     0.0000     2.0000 </r>
       <r>   -17.0339     0.0000     2.0000 </r>
       <r>   -16.9274     0.0000     2.0000 </r>
       <r>   -16.8210     0.0000     2.0000 </r>
       <r>   -16.7145     0.0000     2.0000 </r>
       <r>   -16.6081     0.0000     2.0000 </r>
       <r>   -16.5016     0.0000     2.0000 </r>
       <r>   -16.3952     0.0000     2.0000 </r>
       <r>   -16.2887     0.0000     2.0000 </r>
       <r>   -16.1823     0.0000     2.0000 </r>
       <r>   -16.0758     0.0000     2.0000 </r>
       <r>   -15.9693     0.0000     2.0000 </r>
       <r>   -15.8629     0.0000     2.0000 </r>
       <r>   -15.7564     0.0000     2.0000 </r>
       <r>   -15.6500     0.0000     2.0000 </r>
       <r>   -15.5435     0.0000     2.0000 </r>
       <r>   -15.4371     0.0000     2.0000 </r>
       <r>   -15.3306     0.0000     2.0000 </r>
       <r>   -15.2241     0.0000     2.0000 </r>
       <r>   -15.1177     0.0000     2.0000 </r>
       <r>   -15.0112     0.0000     2.0000 </r>
       <r>   -14.9048     0.0000     2.0000 </r>
       <r>   -14.7983     0.0000     2.0000 </r>
       <r>   -14.6919    -0.0000     2.0000 </r>
       <r>   -14.5854    -0.0000     2.0000 </r>
       <r>   -14.4790    -0.0000     2.0000 </r>
       <r>   -14.3725    -0.0000     2.0000 </r>
       <r>   -14.2660    -0.0000     2.0000 </r>
       <r>   -14.1596    -0.0041     1.9996 </r>
       <r>   -14.0531    -0.2813     1.9696 </r>
       <r>   -13.9467     0.9361     2.0693 </r>
       <r>   -13.8402    13.9280     3.5520 </r>
       <r>   -13.7338     4.7962     4.0626 </r>
       <r>   -13.6273    -0.5637     4.0026 </r>
       <r>   -13.5209    -0.0240     4.0000 </r>
       <r>   -13.4144    -0.0001     4.0000 </r>
       <r>   -13.3079    -0.0000     4.0000 </r>
       <r>   -13.2015    -0.0000     4.0000 </r>
       <r>   -13.0950     0.0000     4.0000 </r>
       <r>   -12.9886     0.0000     4.0000 </r>
       <r>   -12.8821     0.0000     4.0000 </r>
       <r>   -12.7757     0.0000     4.0000 </r>
       <r>   -12.6692     0.0000     4.0000 </r>
       <r>   -12.5628     0.0000     4.0000 </r>
       <r>   -12.4563     0.0000     4.0000 </r>
       <r>   -12.3498    -0.0000     4.0000 </r>
       <r>   -12.2434    -0.0000     4.0000 </r>
       <r>   -12.1369    -0.0000     4.0000 </r>
       <r>   -12.0305    -0.0000     4.0000 </r>
       <r>   -11.9240    -0.0000     4.0000 </r>
       <r>   -11.8176    -0.0001     4.0000 </r>
       <r>   -11.7111    -0.0323     3.9966 </r>
       <r>   -11.6046    -0.6293     3.9296 </r>
       <r>   -11.4982     5.1600     4.4789 </r>
       <r>   -11.3917    18.8989     6.4908 </r>
       <r>   -11.2853    13.5208     7.9301 </r>
       <r>   -11.1788    10.3327     9.0301 </r>
       <r>   -11.0724     9.6912    10.0618 </r>
       <r>   -10.9659    -0.4845    10.0102 </r>
       <r>   -10.8595    -0.0955    10.0001 </r>
       <r>   -10.7530    -0.0006    10.0000 </r>
       <r>   -10.6465    -0.0000    10.0000 </r>
       <r>   -10.5401    -0.0008     9.9999 </r>
       <r>   -10.4336    -0.1192     9.9872 </r>
       <r>   -10.3272    -0.3579     9.9491 </r>
       <r>   -10.2207    10.8476    11.1039 </r>
       <r>   -10.1143     9.0515    12.0675 </r>
       <r>   -10.0078    -0.5567    12.0082 </r>
       <r>    -9.9014    -0.0770    12.0000 </r>
       <r>    -9.7949    -0.0004    12.0000 </r>
       <r>    -9.6884    -0.0000    12.0000 </r>
       <r>    -9.5820    -0.0000    12.0000 </r>
       <r>    -9.4755    -0.0000    12.0000 </r>
       <r>    -9.3691    -0.0000    12.0000 </r>
       <r>    -9.2626    -0.0000    12.0000 </r>
       <r>    -9.1562    -0.0000    12.0000 </r>
       <r>    -9.0497    -0.0000    12.0000 </r>
       <r>    -8.9433    -0.0020    11.9998 </r>
       <r>    -8.8368    -0.1958    11.9789 </r>
       <r>    -8.7303     0.1775    11.9978 </r>
       <r>    -8.6239    12.7857    13.3589 </r>
       <r>    -8.5174     6.6398    14.0658 </r>
       <r>    -8.4110    -1.2281    13.9350 </r>
       <r>    -8.3045     6.4022    14.6166 </r>
       <r>    -8.1981    12.9498    15.9952 </r>
       <r>    -8.0916     0.2526    16.0221 </r>
       <r>    -7.9851    -0.2343    15.9971 </r>
       <r>    -7.8787    -0.6048    15.9327 </r>
       <r>    -7.7722     4.9220    16.4567 </r>
       <r>    -7.6658    16.2487    18.1865 </r>
       <r>    -7.5593    19.1725    20.2275 </r>
       <r>    -7.4529    25.1143    22.9011 </r>
       <r>    -7.3464    16.1544    24.6208 </r>
       <r>    -7.2400    13.6358    26.0724 </r>
       <r>    -7.1335    20.6166    28.2671 </r>
       <r>    -7.0270    17.6334    30.1443 </r>
       <r>    -6.9206    21.3036    32.4122 </r>
       <r>    -6.8141    33.3473    35.9622 </r>
       <r>    -6.7077    36.2697    39.8234 </r>
       <r>    -6.6012    34.8927    43.5379 </r>
       <r>    -6.4948    33.0963    47.0612 </r>
       <r>    -6.3883    40.0656    51.3264 </r>
       <r>    -6.2819    37.4023    55.3081 </r>
       <r>    -6.1754    42.6554    59.8490 </r>
       <r>    -6.0689    45.7822    64.7228 </r>
       <r>    -5.9625    32.0348    68.1331 </r>
       <r>    -5.8560    18.6827    70.1220 </r>
       <r>    -5.7496    23.6745    72.6423 </r>
       <r>    -5.6431    54.7669    78.4725 </r>
       <r>    -5.5367    48.8473    83.6726 </r>
       <r>    -5.4302    60.3911    90.1016 </r>
       <r>    -5.3238    83.9542    99.0390 </r>
       <r>    -5.2173    76.7696   107.2116 </r>
       <r>    -5.1108    80.7217   115.8049 </r>
       <r>    -5.0044    74.4520   123.7308 </r>
       <r>    -4.8979    81.1103   132.3654 </r>
       <r>    -4.7915    83.2176   141.2244 </r>
       <r>    -4.6850    41.9143   145.6865 </r>
       <r>    -4.5786     5.9528   146.3202 </r>
       <r>    -4.4721    13.6248   147.7706 </r>
       <r>    -4.3656     2.1902   148.0038 </r>
       <r>    -4.2592     0.1530   148.0201 </r>
       <r>    -4.1527    24.7881   150.6589 </r>
       <r>    -4.0463    13.8203   152.1302 </r>
       <r>    -3.9398    -1.1217   152.0107 </r>
       <r>    -3.8334    -0.1005   152.0000 </r>
       <r>    -3.7269    -0.0052   151.9995 </r>
       <r>    -3.6205    -0.3049   151.9670 </r>
       <r>    -3.5140     1.1706   152.0916 </r>
       <r>    -3.4075    14.1243   153.5953 </r>
       <r>    -3.3011     4.3646   154.0599 </r>
       <r>    -3.1946    -0.6881   153.9866 </r>
       <r>    -3.0882    -0.2494   153.9601 </r>
       <r>    -2.9817    11.0445   155.1359 </r>
       <r>    -2.8753    13.8161   156.6067 </r>
       <r>    -2.7688    12.8482   157.9744 </r>
       <r>    -2.6624     0.1691   157.9924 </r>
       <r>    -2.5559     0.8419   158.0821 </r>
       <r>    -2.4494    13.7519   159.5460 </r>
       <r>    -2.3430    14.9905   161.1418 </r>
       <r>    -2.2365     8.6459   162.0623 </r>
       <r>    -2.1301    -1.1809   161.9365 </r>
       <r>    -2.0236     7.4789   162.7327 </r>
       <r>    -1.9172    15.0679   164.3368 </r>
       <r>    -1.8107    14.0075   165.8280 </r>
       <r>    -1.7043     2.6205   166.1069 </r>
       <r>    -1.5978    13.5257   167.5468 </r>
       <r>    -1.4913     4.4737   168.0231 </r>
       <r>    -1.3849     1.2673   168.1580 </r>
       <r>    -1.2784    14.4089   169.6919 </r>
       <r>    -1.1720     2.8085   169.9909 </r>
       <r>    -1.0655     3.1503   170.3263 </r>
       <r>    -0.9591    19.5965   172.4124 </r>
       <r>    -0.8526    14.7312   173.9806 </r>
       <r>    -0.7461    -0.0604   173.9742 </r>
       <r>    -0.6397    10.4101   175.0824 </r>
       <r>    -0.5332     8.6223   176.0003 </r>
       <r>    -0.4268     2.5542   176.2722 </r>
       <r>    -0.3203    24.6626   178.8977 </r>
       <r>    -0.2139    12.5095   180.2294 </r>
       <r>    -0.1074    13.4267   181.6588 </r>
       <r>    -0.0010     3.6657   182.0490 </r>
       <r>     0.1055    -1.0923   181.9327 </r>
       <r>     0.2120     8.6445   182.8530 </r>
       <r>     0.3184    11.1994   184.0452 </r>
       <r>     0.4249    -0.2939   184.0139 </r>
       <r>     0.5313    -0.1299   184.0001 </r>
       <r>     0.6378    -0.0010   184.0000 </r>
       <r>     0.7442    -0.0000   184.0000 </r>
       <r>     0.8507    -0.0000   184.0000 </r>
       <r>     0.9571     0.0000   184.0000 </r>
       <r>     1.0636     0.0000   184.0000 </r>
       <r>     1.1701     0.0000   184.0000 </r>
       <r>     1.2765     0.0000   184.0000 </r>
       <r>     1.3830     0.0000   184.0000 </r>
       <r>     1.4894     0.0000   184.0000 </r>
       <r>     1.5959     0.0000   184.0000 </r>
       <r>     1.7023     0.0000   184.0000 </r>
      </set>
      <set comment="spin 2">
       <r>   -30.2344     0.0000     0.0000 </r>
       <r>   -30.1280     0.0000     0.0000 </r>
       <r>   -30.0215     0.0000     0.0000 </r>
       <r>   -29.9151     0.0000     0.0000 </r>
       <r>   -29.8086     0.0000     0.0000 </r>
       <r>   -29.7021     0.0000     0.0000 </r>
       <r>   -29.5957    -0.0000    -0.0000 </r>
       <r>   -29.4892    -0.0000    -0.0000 </r>
       <r>   -29.3828    -0.0000    -0.0000 </r>
       <r>   -29.2763    -0.0000    -0.0000 </r>
       <r>   -29.1699    -0.0000    -0.0000 </r>
       <r>   -29.0634    -0.0022    -0.0002 </r>
       <r>   -28.9570    -0.2037    -0.0219 </r>
       <r>   -28.8505     0.2411     0.0038 </r>
       <r>   -28.7440    12.9258     1.3798 </r>
       <r>   -28.6376     6.4790     2.0695 </r>
       <r>   -28.5311    -0.6133     2.0042 </r>
       <r>   -28.4247    -0.0396     2.0000 </r>
       <r>   -28.3182    -0.0001     2.0000 </r>
       <r>   -28.2118    -0.0000     2.0000 </r>
       <r>   -28.1053    -0.0000     2.0000 </r>
       <r>   -27.9989     0.0000     2.0000 </r>
       <r>   -27.8924     0.0000     2.0000 </r>
       <r>   -27.7859     0.0000     2.0000 </r>
       <r>   -27.6795     0.0000     2.0000 </r>
       <r>   -27.5730     0.0000     2.0000 </r>
       <r>   -27.4666     0.0000     2.0000 </r>
       <r>   -27.3601     0.0000     2.0000 </r>
       <r>   -27.2537     0.0000     2.0000 </r>
       <r>   -27.1472     0.0000     2.0000 </r>
       <r>   -27.0408     0.0000     2.0000 </r>
       <r>   -26.9343     0.0000     2.0000 </r>
       <r>   -26.8278     0.0000     2.0000 </r>
       <r>   -26.7214     0.0000     2.0000 </r>
       <r>   -26.6149     0.0000     2.0000 </r>
       <r>   -26.5085     0.0000     2.0000 </r>
       <r>   -26.4020     0.0000     2.0000 </r>
       <r>   -26.2956     0.0000     2.0000 </r>
       <r>   -26.1891     0.0000     2.0000 </r>
       <r>   -26.0826     0.0000     2.0000 </r>
       <r>   -25.9762     0.0000     2.0000 </r>
       <r>   -25.8697     0.0000     2.0000 </r>
       <r>   -25.7633     0.0000     2.0000 </r>
       <r>   -25.6568     0.0000     2.0000 </r>
       <r>   -25.5504     0.0000     2.0000 </r>
       <r>   -25.4439     0.0000     2.0000 </r>
       <r>   -25.3375     0.0000     2.0000 </r>
       <r>   -25.2310     0.0000     2.0000 </r>
       <r>   -25.1245     0.0000     2.0000 </r>
       <r>   -25.0181     0.0000     2.0000 </r>
       <r>   -24.9116     0.0000     2.0000 </r>
       <r>   -24.8052     0.0000     2.0000 </r>
       <r>   -24.6987     0.0000     2.0000 </r>
       <r>   -24.5923     0.0000     2.0000 </r>
       <r>   -24.4858     0.0000     2.0000 </r>
       <r>   -24.3794     0.0000     2.0000 </r>
       <r>   -24.2729     0.0000     2.0000 </r>
       <r>   -24.1664     0.0000     2.0000 </r>
       <r>   -24.0600     0.0000     2.0000 </r>
       <r>   -23.9535     0.0000     2.0000 </r>
       <r>   -23.8471     0.0000     2.0000 </r>
       <r>   -23.7406     0.0000     2.0000 </r>
       <r>   -23.6342     0.0000     2.0000 </r>
       <r>   -23.5277     0.0000     2.0000 </r>
       <r>   -23.4213     0.0000     2.0000 </r>
       <r>   -23.3148     0.0000     2.0000 </r>
       <r>   -23.2083     0.0000     2.0000 </r>
       <r>   -23.1019     0.0000     2.0000 </r>
       <r>   -22.9954     0.0000     2.0000 </r>
       <r>   -22.8890     0.0000     2.0000 </r>
       <r>   -22.7825     0.0000     2.0000 </r>
       <r>   -22.6761     0.0000     2.0000 </r>
       <r>   -22.5696     0.0000     2.0000 </r>
       <r>   -22.4631     0.0000     2.0000 </r>
       <r>   -22.3567     0.0000     2.0000 </r>
       <r>   -22.2502     0.0000     2.0000 </r>
       <r>   -22.1438     0.0000     2.0000 </r>
       <r>   -22.0373     0.0000     2.0000 </r>
       <r>   -21.9309     0.0000     2.0000 </r>
       <r>   -21.8244     0.0000     2.0000 </r>
       <r>   -21.7180     0.0000     2.0000 </r>
       <r>   -21.6115     0.0000     2.0000 </r>
       <r>   -21.5050     0.0000     2.0000 </r>
       <r>   -21.3986     0.0000     2.0000 </r>
       <r>   -21.2921     0.0000     2.0000 </r>
       <r>   -21.1857     0.0000     2.0000 </r>
       <r>   -21.0792     0.0000     2.0000 </r>
       <r>   -20.9728     0.0000     2.0000 </r>
       <r>   -20.8663     0.0000     2.0000 </r>
       <r>   -20.7599     0.0000     2.0000 </r>
       <r>   -20.6534     0.0000     2.0000 </r>
       <r>   -20.5469     0.0000     2.0000 </r>
       <r>   -20.4405     0.0000     2.0000 </r>
       <r>   -20.3340     0.0000     2.0000 </r>
       <r>   -20.2276     0.0000     2.0000 </r>
       <r>   -20.1211     0.0000     2.0000 </r>
       <r>   -20.0147     0.0000     2.0000 </r>
       <r>   -19.9082     0.0000     2.0000 </r>
       <r>   -19.8018     0.0000     2.0000 </r>
       <r>   -19.6953     0.0000     2.0000 </r>
       <r>   -19.5888     0.0000     2.0000 </r>
       <r>   -19.4824     0.0000     2.0000 </r>
       <r>   -19.3759     0.0000     2.0000 </r>
       <r>   -19.2695     0.0000     2.0000 </r>
       <r>   -19.1630     0.0000     2.0000 </r>
       <r>   -19.0566     0.0000     2.0000 </r>
       <r>   -18.9501     0.0000     2.0000 </r>
       <r>   -18.8436     0.0000     2.0000 </r>
       <r>   -18.7372     0.0000     2.0000 </r>
       <r>   -18.6307     0.0000     2.0000 </r>
       <r>   -18.5243     0.0000     2.0000 </r>
       <r>   -18.4178     0.0000     2.0000 </r>
       <r>   -18.3114     0.0000     2.0000 </r>
       <r>   -18.2049     0.0000     2.0000 </r>
       <r>   -18.0985     0.0000     2.0000 </r>
       <r>   -17.9920     0.0000     2.0000 </r>
       <r>   -17.8855     0.0000     2.0000 </r>
       <r>   -17.7791     0.0000     2.0000 </r>
       <r>   -17.6726     0.0000     2.0000 </r>
       <r>   -17.5662     0.0000     2.0000 </r>
       <r>   -17.4597     0.0000     2.0000 </r>
       <r>   -17.3533     0.0000     2.0000 </r>
       <r>   -17.2468     0.0000     2.0000 </r>
       <r>   -17.1404     0.0000     2.0000 </r>
       <r>   -17.0339     0.0000     2.0000 </r>
       <r>   -16.9274     0.0000     2.0000 </r>
       <r>   -16.8210     0.0000     2.0000 </r>
       <r>   -16.7145     0.0000     2.0000 </r>
       <r>   -16.6081     0.0000     2.0000 </r>
       <r>   -16.5016     0.0000     2.0000 </r>
       <r>   -16.3952     0.0000     2.0000 </r>
       <r>   -16.2887     0.0000     2.0000 </r>
       <r>   -16.1823     0.0000     2.0000 </r>
       <r>   -16.0758     0.0000     2.0000 </r>
       <r>   -15.9693     0.0000     2.0000 </r>
       <r>   -15.8629     0.0000     2.0000 </r>
       <r>   -15.7564     0.0000     2.0000 </r>
       <r>   -15.6500     0.0000     2.0000 </r>
       <r>   -15.5435     0.0000     2.0000 </r>
       <r>   -15.4371     0.0000     2.0000 </r>
       <r>   -15.3306     0.0000     2.0000 </r>
       <r>   -15.2241     0.0000     2.0000 </r>
       <r>   -15.1177     0.0000     2.0000 </r>
       <r>   -15.0112     0.0000     2.0000 </r>
       <r>   -14.9048     0.0000     2.0000 </r>
       <r>   -14.7983     0.0000     2.0000 </r>
       <r>   -14.6919    -0.0000     2.0000 </r>
       <r>   -14.5854    -0.0000     2.0000 </r>
       <r>   -14.4790    -0.0000     2.0000 </r>
       <r>   -14.3725    -0.0000     2.0000 </r>
       <r>   -14.2660    -0.0000     2.0000 </r>
       <r>   -14.1596    -0.0007     1.9999 </r>
       <r>   -14.0531    -0.1129     1.9879 </r>
       <r>   -13.9467    -0.3933     1.9460 </r>
       <r>   -13.8402    10.6247     3.0771 </r>
       <r>   -13.7338     9.2913     4.0662 </r>
       <r>   -13.6273    -0.5399     4.0087 </r>
       <r>   -13.5209    -0.0816     4.0000 </r>
       <r>   -13.4144    -0.0004     4.0000 </r>
       <r>   -13.3079    -0.0000     4.0000 </r>
       <r>   -13.2015    -0.0000     4.0000 </r>
       <r>   -13.0950     0.0000     4.0000 </r>
       <r>   -12.9886     0.0000     4.0000 </r>
       <r>   -12.8821     0.0000     4.0000 </r>
       <r>   -12.7757     0.0000     4.0000 </r>
       <r>   -12.6692     0.0000     4.0000 </r>
       <r>   -12.5628     0.0000     4.0000 </r>
       <r>   -12.4563     0.0000     4.0000 </r>
       <r>   -12.3498    -0.0000     4.0000 </r>
       <r>   -12.2434    -0.0000     4.0000 </r>
       <r>   -12.1369    -0.0000     4.0000 </r>
       <r>   -12.0305    -0.0000     4.0000 </r>
       <r>   -11.9240    -0.0000     4.0000 </r>
       <r>   -11.8176    -0.0000     4.0000 </r>
       <r>   -11.7111    -0.0150     3.9984 </r>
       <r>   -11.6046    -0.4964     3.9456 </r>
       <r>   -11.4982     3.1036     4.2760 </r>
       <r>   -11.3917    16.0615     5.9858 </r>
       <r>   -11.2853    15.6069     7.6472 </r>
       <r>   -11.1788     7.8662     8.4846 </r>
       <r>   -11.0724    13.5105     9.9229 </r>
       <r>   -10.9659     1.0200    10.0315 </r>
       <r>   -10.8595    -0.2915    10.0005 </r>
       <r>   -10.7530    -0.0044    10.0000 </r>
       <r>   -10.6465    -0.0000    10.0000 </r>
       <r>   -10.5401    -0.0001    10.0000 </r>
       <r>   -10.4336    -0.0238     9.9975 </r>
       <r>   -10.3272    -0.5627     9.9376 </r>
       <r>   -10.2207     4.7728    10.4457 </r>
       <r>   -10.1143    13.9393    11.9296 </r>
       <r>   -10.0078     0.9481    12.0305 </r>
       <r>    -9.9014    -0.2825    12.0004 </r>
       <r>    -9.7949    -0.0041    12.0000 </r>
       <r>    -9.6884    -0.0000    12.0000 </r>
       <r>    -9.5820    -0.0000    12.0000 </r>
       <r>    -9.4755    -0.0000    12.0000 </r>
       <r>    -9.3691    -0.0000    12.0000 </r>
       <r>    -9.2626    -0.0000    12.0000 </r>
       <r>    -9.1562    -0.0000    12.0000 </r>
       <r>    -9.0497    -0.0000    12.0000 </r>
       <r>    -8.9433    -0.0005    11.9999 </r>
       <r>    -8.8368    -0.0917    11.9902 </r>
       <r>    -8.7303    -0.4985    11.9371 </r>
       <r>    -8.6239     9.7705    12.9772 </r>
       <r>    -8.5174    10.1607    14.0589 </r>
       <r>    -8.4110    -0.7245    13.9818 </r>
       <r>    -8.3045     0.7174    14.0582 </r>
       <r>    -8.1981    13.8076    15.5281 </r>
       <r>    -8.0916     5.0330    16.0638 </r>
       <r>    -7.9851    -0.5780    16.0023 </r>
       <r>    -7.8787    -0.3160    15.9687 </r>
       <r>    -7.7722     0.6484    16.0377 </r>
       <r>    -7.6658    14.9158    17.6256 </r>
       <r>    -7.5593    19.8368    19.7373 </r>
       <r>    -7.4529    21.7094    22.0484 </r>
       <r>    -7.3464    19.0000    24.0711 </r>
       <r>    -7.2400    14.4494    25.6093 </r>
       <r>    -7.1335    17.3534    27.4567 </r>
       <r>    -7.0270    21.5714    29.7531 </r>
       <r>    -6.9206    14.7309    31.3212 </r>
       <r>    -6.8141    33.2617    34.8622 </r>
       <r>    -6.7077    38.2606    38.9352 </r>
       <r>    -6.6012    36.5147    42.8224 </r>
       <r>    -6.4948    30.8894    46.1108 </r>
       <r>    -6.3883    38.8352    50.2450 </r>
       <r>    -6.2819    38.9151    54.3878 </r>
       <r>    -6.1754    39.6015    58.6036 </r>
       <r>    -6.0689    47.1358    63.6215 </r>
       <r>    -5.9625    37.4138    67.6044 </r>
       <r>    -5.8560    19.5720    69.6879 </r>
       <r>    -5.7496    19.7567    71.7911 </r>
       <r>    -5.6431    48.4110    76.9448 </r>
       <r>    -5.5367    51.5885    82.4367 </r>
       <r>    -5.4302    54.0227    88.1877 </r>
       <r>    -5.3238    81.4079    96.8541 </r>
       <r>    -5.2173    79.2055   105.2860 </r>
       <r>    -5.1108    81.1723   113.9272 </r>
       <r>    -5.0044    74.2237   121.8288 </r>
       <r>    -4.8979    78.5473   130.1906 </r>
       <r>    -4.7915    79.8896   138.6953 </r>
       <r>    -4.6850    59.7987   145.0612 </r>
       <r>    -4.5786     9.8440   146.1092 </r>
       <r>    -4.4721     9.7512   147.1473 </r>
       <r>    -4.3656     8.5481   148.0573 </r>
       <r>    -4.2592    -1.4363   147.9044 </r>
       <r>    -4.1527    12.2360   149.2070 </r>
       <r>    -4.0463    24.3681   151.8011 </r>
       <r>    -3.9398     2.4276   152.0595 </r>
       <r>    -3.8334    -0.5465   152.0013 </r>
       <r>    -3.7269    -0.0126   152.0000 </r>
       <r>    -3.6205    -0.0000   152.0000 </r>
       <r>    -3.5140    -0.0040   151.9996 </r>
       <r>    -3.4075    -0.2799   151.9698 </r>
       <r>    -3.3011     0.9228   152.0680 </r>
       <r>    -3.1946    13.8929   153.5470 </r>
       <r>    -3.0882     4.2658   154.0011 </r>
       <r>    -2.9817     3.7954   154.4052 </r>
       <r>    -2.8753    14.3807   155.9361 </r>
       <r>    -2.7688    14.2358   157.4516 </r>
       <r>    -2.6624     5.7615   158.0649 </r>
       <r>    -2.5559    -1.2229   157.9347 </r>
       <r>    -2.4494     5.9768   158.5710 </r>
       <r>    -2.3430    13.4275   160.0004 </r>
       <r>    -2.2365    13.4121   161.4282 </r>
       <r>    -2.1301     5.4640   162.0099 </r>
       <r>    -2.0236     3.5564   162.3885 </r>
       <r>    -1.9172    13.5327   163.8291 </r>
       <r>    -1.8107     8.5715   164.7416 </r>
       <r>    -1.7043    11.3857   165.9537 </r>
       <r>    -1.5978     5.5626   166.5459 </r>
       <r>    -1.4913    13.3294   167.9649 </r>
       <r>    -1.3849     0.3225   167.9992 </r>
       <r>    -1.2784     0.3989   168.0416 </r>
       <r>    -1.1720    13.5810   169.4874 </r>
       <r>    -1.0655     4.9197   170.0112 </r>
       <r>    -0.9591     1.7343   170.1958 </r>
       <r>    -0.8526    21.4980   172.4844 </r>
       <r>    -0.7461    14.5012   174.0281 </r>
       <r>    -0.6397     0.2533   174.0551 </r>
       <r>    -0.5332    13.2416   175.4647 </r>
       <r>    -0.4268     4.4863   175.9423 </r>
       <r>    -0.3203     9.9461   177.0011 </r>
       <r>    -0.2139    26.3634   179.8077 </r>
       <r>    -0.1074     5.4266   180.3854 </r>
       <r>    -0.0010    13.8378   181.8585 </r>
       <r>     0.1055     1.1297   181.9787 </r>
       <r>     0.2120     3.9266   182.3968 </r>
       <r>     0.3184    14.1538   183.9035 </r>
       <r>     0.4249     1.2212   184.0335 </r>
       <r>     0.5313    -0.3098   184.0005 </r>
       <r>     0.6378    -0.0050   184.0000 </r>
       <r>     0.7442    -0.0000   184.0000 </r>
       <r>     0.8507    -0.0000   184.0000 </r>
       <r>     0.9571    -0.0000   184.0000 </r>
       <r>     1.0636     0.0000   184.0000 </r>
       <r>     1.1701     0.0000   184.0000 </r>
       <r>     1.2765     0.0000   184.0000 </r>
       <r>     1.3830     0.0000   184.0000 </r>
       <r>     1.4894     0.0000   184.0000 </r>
       <r>     1.5959     0.0000   184.0000 </r>
       <r>     1.7023     0.0000   184.0000 </r>
      </set>
     </set>
    </array>
   </total>
  </dos>
 </calculation>
 <structure name="finalpos" >
  <crystal>
   <varray name="basis" >
    <v>      15.00000000       0.00000000       0.00000000 </v>
    <v>       0.00000000      15.00000000       0.00000000 </v>
    <v>       0.00000000       0.00000000      15.00000000 </v>
   </varray>
   <i name="volume">   3375.00000000 </i>
   <varray name="rec_basis" >
    <v>       0.06666667       0.00000000       0.00000000 </v>
    <v>       0.00000000       0.06666667       0.00000000 </v>
    <v>       0.00000000       0.00000000       0.06666667 </v>
   </varray>
  </crystal>
  <varray name="positions" >
   <v>       0.29168600       0.41854867       0.55034533 </v>
   <v>       0.37696200       0.54779067       0.49149200 </v>
   <v>       0.39557867       0.29257200       0.56258333 </v>
   <v>       0.53504467       0.50582533       0.48336333 </v>
   <v>       0.54942000       0.34393533       0.53073600 </v>
   <v>       0.44863800       0.43838733       0.61075600 </v>
   <v>       0.41528333       0.40093067       0.45148933 </v>
   <v>       0.22600400       0.57058867       0.54691067 </v>
   <v>       0.33605267       0.54540200       0.65128800 </v>
   <v>       0.35139133       0.68720000       0.57190333 </v>
   <v>       0.49039867       0.67090667       0.47745333 </v>
   <v>       0.61571400       0.47512267       0.61391200 </v>
   <v>       0.48800800       0.59124000       0.61690733 </v>
   <v>       0.73313333       0.49032867       0.63795133 </v>
   <v>       0.80910667       0.48909400       0.63925667 </v>
  </varray>
 </structure>
</modeling>
