 vasp.5.4.4.18Apr17-6-g9f103f2a35 (build May 08 2019 13:49:07) complex          
  
 executed on             LinuxIFC date 2019.11.13  13:55:14
 running on   24 total cores
 distrk:  each k-point on   24 cores,    1 groups
 distr:  one band on NCORES_PER_BAND=   6 cores,    4 groups


--------------------------------------------------------------------------------------------------------


 INCAR:
 POTCAR:    PAW_PBE Cu 22Jun2005                  
 POTCAR:    PAW_PBE C 08Apr2002                   
 POTCAR:    PAW_PBE O 08Apr2002                   
 POTCAR:    PAW_PBE Cu 22Jun2005                  
   VRHFIN =Cu: d10 p1                                                           
   LEXCH  = PE                                                                  
   EATOM  =  1390.9808 eV,  102.2342 Ry                                         
                                                                                
   TITEL  = PAW_PBE Cu 22Jun2005                                                
   LULTRA =        F    use ultrasoft PP ?                                      
   IUNSCR =        1    unscreen: 0-lin 1-nonlin 2-no                           
   RPACOR =    2.000    partial core radius                                     
   POMASS =   63.546; ZVAL   =   11.000    mass and valenz                      
   RCORE  =    2.300    outmost cutoff radius                                   
   RWIGS  =    2.200; RWIGS  =    1.164    wigner-seitz radius (au A)           
   ENMAX  =  295.446; ENMIN  =  221.585 eV                                      
   ICORE  =        3    local potential                                         
   LCOR   =        T    correct aug charges                                     
   LPAW   =        T    paw PP                                                  
   EAUG   =  586.980                                                            
   DEXC   =    0.000                                                            
   RMAX   =    2.344    core radius for proj-oper                               
   RAUG   =    1.300    factor for augmentation sphere                          
   RDEP   =    2.302    radius for radial grids                                 
   RDEPT  =    1.771    core radius for aug-charge                              
                                                                                
   Atomic configuration                                                         
    9 entries                                                                   
     n  l   j            E        occ.                                          
     1  0  0.50     -8850.2468   2.0000                                         
     2  0  0.50     -1062.3498   2.0000                                         
     2  1  1.50      -916.8226   6.0000                                         
     3  0  0.50      -114.6929   2.0000                                         
     3  1  1.50       -72.1325   6.0000                                         
     3  2  2.50        -5.0394  10.0000                                         
     4  0  0.50        -4.6097   1.0000                                         
     4  1  0.50        -4.0817   0.0000                                         
     4  3  2.50        -1.3606   0.0000                                         
   Description                                                                  
     l       E           TYP  RCUT    TYP  RCUT                                 
     2     -5.0393973     23  2.200                                             
     2     10.8846608     23  2.200                                             
     0     -4.6097109     23  2.200                                             
     0      8.2520465     23  2.200                                             
     1     -2.7211652     23  2.200                                             
     1     21.7055443     23  2.200                                             
     3      2.7211652     23  2.300                                             
  local pseudopotential read in
  partial core-charges read in
  partial kinetic energy density read in
  atomic valenz-charges read in
  non local Contribution for L=           2  read in
    real space projection operators read in
  non local Contribution for L=           2  read in
    real space projection operators read in
  non local Contribution for L=           0  read in
    real space projection operators read in
  non local Contribution for L=           0  read in
    real space projection operators read in
  non local Contribution for L=           1  read in
    real space projection operators read in
  non local Contribution for L=           1  read in
    real space projection operators read in
    PAW grid and wavefunctions read in
 
   number of l-projection  operators is LMAX  =           6
   number of lm-projection operators is LMMAX =          18
 
 POTCAR:    PAW_PBE C 08Apr2002                   
   VRHFIN =C: s2p2                                                              
   LEXCH  = PE                                                                  
   EATOM  =   147.1560 eV,   10.8157 Ry                                         
                                                                                
   TITEL  = PAW_PBE C 08Apr2002                                                 
   LULTRA =        F    use ultrasoft PP ?                                      
   IUNSCR =        1    unscreen: 0-lin 1-nonlin 2-no                           
   RPACOR =    1.200    partial core radius                                     
   POMASS =   12.011; ZVAL   =    4.000    mass and valenz                      
   RCORE  =    1.500    outmost cutoff radius                                   
   RWIGS  =    1.630; RWIGS  =    0.863    wigner-seitz radius (au A)           
   ENMAX  =  400.000; ENMIN  =  300.000 eV                                      
   ICORE  =        2    local potential                                         
   LCOR   =        T    correct aug charges                                     
   LPAW   =        T    paw PP                                                  
   EAUG   =  644.873                                                            
   DEXC   =    0.000                                                            
   RMAX   =    1.529    core radius for proj-oper                               
   RAUG   =    1.300    factor for augmentation sphere                          
   RDEP   =    1.501    radius for radial grids                                 
   RDEPT  =    1.300    core radius for aug-charge                              
                                                                                
   Atomic configuration                                                         
    4 entries                                                                   
     n  l   j            E        occ.                                          
     1  0  0.50      -273.3789   2.0000                                         
     2  0  0.50       -13.7508   2.0000                                         
     2  1  0.50        -5.2854   2.0000                                         
     3  2  1.50        -5.4423   0.0000                                         
   Description                                                                  
     l       E           TYP  RCUT    TYP  RCUT                                 
     0    -13.7508458     23  1.200                                             
     0     -8.2022199     23  1.200                                             
     1     -5.2854383     23  1.500                                             
     1     34.0145650     23  1.500                                             
     2     -5.4423304      7  1.500                                             
  local pseudopotential read in
  partial core-charges read in
  partial kinetic energy density read in
  atomic valenz-charges read in
  non local Contribution for L=           0  read in
    real space projection operators read in
  non local Contribution for L=           0  read in
    real space projection operators read in
  non local Contribution for L=           1  read in
    real space projection operators read in
  non local Contribution for L=           1  read in
    real space projection operators read in
    PAW grid and wavefunctions read in
 
   number of l-projection  operators is LMAX  =           4
   number of lm-projection operators is LMMAX =           8
 
 POTCAR:    PAW_PBE O 08Apr2002                   
   VRHFIN =O: s2p4                                                              
   LEXCH  = PE                                                                  
   EATOM  =   432.3788 eV,   31.7789 Ry                                         
                                                                                
   TITEL  = PAW_PBE O 08Apr2002                                                 
   LULTRA =        F    use ultrasoft PP ?                                      
   IUNSCR =        1    unscreen: 0-lin 1-nonlin 2-no                           
   RPACOR =    1.200    partial core radius                                     
   POMASS =   16.000; ZVAL   =    6.000    mass and valenz                      
   RCORE  =    1.520    outmost cutoff radius                                   
   RWIGS  =    1.550; RWIGS  =    0.820    wigner-seitz radius (au A)           
   ENMAX  =  400.000; ENMIN  =  300.000 eV                                      
   ICORE  =        2    local potential                                         
   LCOR   =        T    correct aug charges                                     
   LPAW   =        T    paw PP                                                  
   EAUG   =  605.392                                                            
   DEXC   =    0.000                                                            
   RMAX   =    1.553    core radius for proj-oper                               
   RAUG   =    1.300    factor for augmentation sphere                          
   RDEP   =    1.550    radius for radial grids                                 
   RDEPT  =    1.329    core radius for aug-charge                              
                                                                                
   Atomic configuration                                                         
    4 entries                                                                   
     n  l   j            E        occ.                                          
     1  0  0.50      -514.6923   2.0000                                         
     2  0  0.50       -23.9615   2.0000                                         
     2  1  0.50        -9.0305   4.0000                                         
     3  2  1.50        -9.5241   0.0000                                         
   Description                                                                  
     l       E           TYP  RCUT    TYP  RCUT                                 
     0    -23.9615318     23  1.200                                             
     0     -9.5240782     23  1.200                                             
     1     -9.0304911     23  1.520                                             
     1      8.1634956     23  1.520                                             
     2     -9.5240782      7  1.500                                             
  local pseudopotential read in
  partial core-charges read in
  partial kinetic energy density read in
  kinetic energy density of atom read in
  atomic valenz-charges read in
  non local Contribution for L=           0  read in
    real space projection operators read in
  non local Contribution for L=           0  read in
    real space projection operators read in
  non local Contribution for L=           1  read in
    real space projection operators read in
  non local Contribution for L=           1  read in
    real space projection operators read in
    PAW grid and wavefunctions read in
 
   number of l-projection  operators is LMAX  =           4
   number of lm-projection operators is LMMAX =           8
 
  PAW_PBE Cu 22Jun2005                  :
 energy of atom  1       EATOM=-1390.9808
 kinetic energy error for atom=    0.0033 (will be added to EATOM!!)
  PAW_PBE C 08Apr2002                   :
 energy of atom  2       EATOM= -147.1560
 kinetic energy error for atom=    0.0057 (will be added to EATOM!!)
  PAW_PBE O 08Apr2002                   :
 energy of atom  3       EATOM= -432.3788
 kinetic energy error for atom=    0.0168 (will be added to EATOM!!)
 
 
 POSCAR: Cu13 C1 O1                              
  positions in cartesian coordinates
  No initial velocities read in
 exchange correlation table for  LEXCH =        8
   RHO(1)=    0.500       N(1)  =     2000
   RHO(2)=  100.500       N(2)  =     4000
 


--------------------------------------------------------------------------------------------------------


 ion  position               nearest neighbor table
   1  0.290  0.415  0.558-   6 2.43   3 2.44   8 2.53   9 2.56   7 2.60   2 2.62
   2  0.378  0.550  0.490-  10 2.32  11 2.41   4 2.44   8 2.51   7 2.54  13 2.56   1 2.62   9 2.62
                             6 2.66
   3  0.398  0.293  0.558-   7 2.26   6 2.42   1 2.44   5 2.46
   4  0.532  0.500  0.480-  12 2.37   7 2.37   5 2.41   2 2.44   6 2.56  13 2.61  11 2.65
   5  0.550  0.351  0.536-   6 2.38   4 2.41   7 2.43   3 2.46  12 2.60
   6  0.442  0.438  0.611-  13 2.33   5 2.38   3 2.42   1 2.43   9 2.44   4 2.56   7 2.58   2 2.66

   7  0.421  0.392  0.447-   3 2.26   4 2.37   5 2.43   2 2.54   6 2.58   1 2.60
   8  0.224  0.570  0.553-   9 2.26   2 2.51   1 2.53  10 2.58
   9  0.330  0.547  0.658-   8 2.26  13 2.39   6 2.44  10 2.49   1 2.56   2 2.62
  10  0.353  0.683  0.565-   2 2.32  11 2.43   9 2.49  13 2.51   8 2.58
  11  0.483  0.670  0.470-   2 2.41  10 2.43  13 2.57   4 2.65
  12  0.635  0.488  0.599-  14 1.89   4 2.37   5 2.60
  13  0.480  0.588  0.621-   6 2.33   9 2.39  10 2.51   2 2.56  11 2.57   4 2.61
  14  0.744  0.499  0.661-  15 1.16  12 1.89
  15  0.821  0.495  0.671-  14 1.16
 

IMPORTANT INFORMATION: All symmetrisations will be switched off!
NOSYMM: (Re-)initialisation of all symmetry stuff for point group C_1.

 
 

Automatic generation of k-mesh.
 generate k-points for:    1    1    1
Space group operators:
 irot       det(A)        alpha          n_x          n_y          n_z        tau_x        tau_y        tau_z
    1     1.000000     0.000000     1.000000     0.000000     0.000000     0.000000     0.000000     0.000000
 
 Subroutine IBZKPT returns following result:
 ===========================================
 
 Found      1 irreducible k-points:
 
 Following reciprocal coordinates:
            Coordinates               Weight
  0.000000  0.000000  0.000000      1.000000
 
 Following cartesian coordinates:
            Coordinates               Weight
  0.000000  0.000000  0.000000      1.000000
 


--------------------------------------------------------------------------------------------------------




 Dimension of arrays:
   k-points           NKPTS =      1   k-points in BZ     NKDIM =      1   number of bands    NBANDS=     92
   number of dos      NEDOS =    301   number of ions     NIONS =     15
   non local maximal  LDIM  =      6   non local SUM 2l+1 LMDIM =     18
   total plane-waves  NPLWV = ******
   max r-space proj   IRMAX =      1   max aug-charges    IRDMAX=  15028
   dimension x,y,z NGX =   120 NGY =  120 NGZ =  120
   dimension x,y,z NGXF=   240 NGYF=  240 NGZF=  240
   support grid    NGXF=   240 NGYF=  240 NGZF=  240
   ions per type =              13   1   1
   NGX,Y,Z   is equivalent  to a cutoff of  13.30, 13.30, 13.30 a.u.
   NGXF,Y,Z  is equivalent  to a cutoff of  26.60, 26.60, 26.60 a.u.

 SYSTEM =  CuCO                                    
 POSCAR =  Cu13 C1 O1                              

 Startparameter for this run:
   NWRITE =      2    write-flag & timer
   PREC   = accura    normal or accurate (medium, high low for compatibility)
   ISTART =      0    job   : 0-new  1-cont  2-samecut
   ICHARG =      2    charge: 1-file 2-atom 10-const
   ISPIN  =      2    spin polarized calculation?
   LNONCOLLINEAR =      F non collinear calculations
   LSORBIT =      F    spin-orbit coupling
   INIWAV =      1    electr: 0-lowe 1-rand  2-diag
   LASPH  =      F    aspherical Exc in radial PAW
   METAGGA=      F    non-selfconsistent MetaGGA calc.

 Electronic Relaxation 1
   ENCUT  =  600.0 eV  44.10 Ry    6.64 a.u.  29.96 29.96 29.96*2*pi/ulx,y,z
   ENINI  =  600.0     initial cutoff
   ENAUG  =  644.9 eV  augmentation charge cutoff
   NELM   =    300;   NELMIN=  3; NELMDL= -5     # of ELM steps 
   EDIFF  = 0.1E-06   stopping-criterion for ELM
   LREAL  =      F    real-space projection
   NLSPLINE    = F    spline interpolate recip. space projectors
   LCOMPAT=      F    compatible to vasp.4.4
   GGA_COMPAT  = T    GGA compatible to vasp.4.4-vasp.4.6
   LMAXPAW     = -100 max onsite density
   LMAXMIX     =    2 max onsite mixed and CHGCAR
   VOSKOWN=      0    Vosko Wilk Nusair interpolation
   ROPT   =    0.00000   0.00000   0.00000
 Ionic relaxation
   EDIFFG = -.1E-02   stopping-criterion for IOM
   NSW    =      0    number of steps for IOM
   NBLOCK =      1;   KBLOCK =      1    inner block; outer block 
   IBRION =     -1    ionic relax: 0-MD 1-quasi-New 2-CG
   NFREE  =      0    steps in history (QN), initial steepest desc. (CG)
   ISIF   =      2    stress and relaxation
   IWAVPR =     10    prediction:  0-non 1-charg 2-wave 3-comb
   ISYM   =      0    0-nonsym 1-usesym 2-fastsym
   LCORR  =      T    Harris-Foulkes like correction to forces

   POTIM  = 0.5000    time-step for ionic-motion
   TEIN   =    0.0    initial temperature
   TEBEG  =    0.0;   TEEND  =   0.0 temperature during run
   SMASS  =  -3.00    Nose mass-parameter (am)
   estimated Nose-frequenzy (Omega)   =  0.10E-29 period in steps =****** mass=  -0.514E-26a.u.
   SCALEE = 1.0000    scale energy and forces
   NPACO  =    256;   APACO  = 16.0  distance and # of slots for P.C.
   PSTRESS=    0.0 pullay stress

  Mass of Ions in am
   POMASS =  63.55 12.01 16.00
  Ionic Valenz
   ZVAL   =  11.00  4.00  6.00
  Atomic Wigner-Seitz radii
   RWIGS  =  -1.00 -1.00 -1.00
  virtual crystal weights 
   VCA    =   1.00  1.00  1.00
   NELECT =     153.0000    total number of electrons
   NUPDOWN=       1.0000    fix difference up-down

 DOS related values:
   EMIN   =  10.00;   EMAX   =-10.00  energy-range for DOS
   EFERMI =   0.00
   ISMEAR =     1;   SIGMA  =   0.10  broadening in eV -4-tet -1-fermi 0-gaus

 Electronic relaxation 2 (details)
   IALGO  =     68    algorithm
   LDIAG  =      T    sub-space diagonalisation (order eigenvalues)
   LSUBROT=      F    optimize rotation matrix (better conditioning)
   TURBO    =      0    0=normal 1=particle mesh
   IRESTART =      0    0=no restart 2=restart with 2 vectors
   NREBOOT  =      0    no. of reboots
   NMIN     =      0    reboot dimension
   EREF     =   0.00    reference energy to select bands
   IMIX   =      4    mixing-type and parameters
     AMIX     =   0.40;   BMIX     =  1.00
     AMIX_MAG =   1.60;   BMIX_MAG =  1.00
     AMIN     =   0.10
     WC   =   100.;   INIMIX=   1;  MIXPRE=   1;  MAXMIX= -45

 Intra band minimization:
   WEIMIN = 0.0000     energy-eigenvalue tresh-hold
   EBREAK =  0.27E-09  absolut break condition
   DEPER  =   0.30     relativ break condition  

   TIME   =   0.40     timestep for ELM

  volume/ion in A,a.u.               =     225.00      1518.37
  Fermi-wavevector in a.u.,A,eV,Ry     =   0.583733  1.103095  4.636102  0.340744
  Thomas-Fermi vector in A             =   1.629149
 
 Write flags
   LWAVE        =      F    write WAVECAR
   LDOWNSAMPLE  =      F    k-point downsampling of WAVECAR
   LCHARG       =      F    write CHGCAR
   LVTOT        =      F    write LOCPOT, total local potential
   LVHAR        =      F    write LOCPOT, Hartree potential only
   LELF         =      F    write electronic localiz. function (ELF)
   LORBIT       =      0    0 simple, 1 ext, 2 COOP (PROOUT), +10 PAW based schemes


 Dipole corrections
   LMONO  =      F    monopole corrections only (constant potential shift)
   LDIPOL =      F    correct potential (dipole corrections)
   IDIPOL =      0    1-x, 2-y, 3-z, 4-all directions 
   EPSILON=  1.0000000 bulk dielectric constant

 Exchange correlation treatment:
   GGA     =    PE    GGA type
   LEXCH   =     8    internal setting for exchange type
   VOSKOWN=      0    Vosko Wilk Nusair interpolation
   LHFCALC =     F    Hartree Fock is set to
   LHFONE  =     F    Hartree Fock one center treatment
   AEXX    =    0.0000 exact exchange contribution

 Linear response parameters
   LEPSILON=     F    determine dielectric tensor
   LRPA    =     F    only Hartree local field effects (RPA)
   LNABLA  =     F    use nabla operator in PAW spheres
   LVEL    =     F    velocity operator in full k-point grid
   LINTERFAST=   F  fast interpolation
   KINTER  =     0    interpolate to denser k-point grid
   CSHIFT  =0.1000    complex shift for real part using Kramers Kronig
   OMEGAMAX=  -1.0    maximum frequency
   DEG_THRESHOLD= 0.2000000E-02 threshold for treating states as degnerate
   RTIME   =   -0.100 relaxation time in fs
  (WPLASMAI=    0.000 imaginary part of plasma frequency in eV, 0.658/RTIME)
   DFIELD  = 0.0000000 0.0000000 0.0000000 field for delta impulse in time
 
 Orbital magnetization related:
   ORBITALMAG=     F  switch on orbital magnetization
   LCHIMAG   =     F  perturbation theory with respect to B field
   DQ        =  0.001000  dq finite difference perturbation B field
   LLRAUG    =     F  two centre corrections for induced B field



--------------------------------------------------------------------------------------------------------


 Static calculation
 charge density and potential will be updated during run
 spin polarized calculation
 RMM-DIIS sequential band-by-band and
  variant of blocked Davidson during initial phase
 perform sub-space diagonalisation
    before iterative eigenvector-optimisation
 modified Broyden-mixing scheme, WC =      100.0
 initial mixing is a Kerker type mixing with AMIX =  0.4000 and BMIX =      1.0000
 Hartree-type preconditioning will be used
 using additional bands           15
 reciprocal scheme for non local part
 use partial core corrections
 calculate Harris-corrections to forces 
   (improved forces if not selfconsistent)
 use gradient corrections 
 use of overlap-Matrix (Vanderbilt PP)
 Methfessel and Paxton  Order N= 1 SIGMA  =   0.10


--------------------------------------------------------------------------------------------------------


  energy-cutoff  :      600.00
  volume of cell :     3375.00
      direct lattice vectors                 reciprocal lattice vectors
    15.000000000  0.000000000  0.000000000     0.066666667  0.000000000  0.000000000
     0.000000000 15.000000000  0.000000000     0.000000000  0.066666667  0.000000000
     0.000000000  0.000000000 15.000000000     0.000000000  0.000000000  0.066666667

  length of vectors
    15.000000000 15.000000000 15.000000000     0.066666667  0.066666667  0.066666667


 
 k-points in units of 2pi/SCALE and weight: read from INCAR                         
   0.00000000  0.00000000  0.00000000       1.000
 
 k-points in reciprocal lattice and weights: read from INCAR                         
   0.00000000  0.00000000  0.00000000       1.000
 
 position of ions in fractional coordinates (direct lattice) 
   0.29032533  0.41498000  0.55787067
   0.37751733  0.55020400  0.48969933
   0.39806133  0.29272600  0.55799267
   0.53181067  0.50036667  0.48044533
   0.55020267  0.35084467  0.53610933
   0.44171333  0.43833267  0.61126333
   0.42129333  0.39231400  0.44698200
   0.22378600  0.56970933  0.55324733
   0.32995467  0.54714333  0.65801600
   0.35271067  0.68269333  0.56509133
   0.48316733  0.66964000  0.47036067
   0.63510400  0.48803067  0.59896800
   0.47951600  0.58837200  0.62088600
   0.74432000  0.49874533  0.66052267
   0.82063333  0.49505867  0.67080667
 
 position of ions in cartesian coordinates  (Angst):
   4.35488000  6.22470000  8.36806000
   5.66276000  8.25306000  7.34549000
   5.97092000  4.39089000  8.36989000
   7.97716000  7.50550000  7.20668000
   8.25304000  5.26267000  8.04164000
   6.62570000  6.57499000  9.16895000
   6.31940000  5.88471000  6.70473000
   3.35679000  8.54564000  8.29871000
   4.94932000  8.20715000  9.87024000
   5.29066000 10.24040000  8.47637000
   7.24751000 10.04460000  7.05541000
   9.52656000  7.32046000  8.98452000
   7.19274000  8.82558000  9.31329000
  11.16480000  7.48118000  9.90784000
  12.30950000  7.42588000 10.06210000
 


--------------------------------------------------------------------------------------------------------


 k-point  1 :   0.0000 0.0000 0.0000  plane waves:  112451

 maximum and minimum number of plane-waves per node :     18753    18726

 maximum number of plane-waves:    112451
 maximum index in each direction: 
   IXMAX=   29   IYMAX=   29   IZMAX=   29
   IXMIN=  -29   IYMIN=  -29   IZMIN=  -29


 parallel 3D FFT for wavefunctions:
    minimum data exchange during FFTs selected (reduces bandwidth)
 parallel 3D FFT for charge:
    minimum data exchange during FFTs selected (reduces bandwidth)


 total amount of memory used by VASP MPI-rank0   158680. kBytes
=======================================================================

   base      :      30000. kBytes
   nonl-proj :      12601. kBytes
   fftplans  :      27994. kBytes
   grid      :      74150. kBytes
   one-center:         93. kBytes
   wavefun   :      13842. kBytes
 
     INWAV:  cpu time    0.0000: real time    0.0001
 Broyden mixing: mesh for mixing (old mesh)
   NGX = 59   NGY = 59   NGZ = 59
  (NGX  =240   NGY  =240   NGZ  =240)
  gives a total of 205379 points

 initial charge density was supplied:
 charge density of overlapping atoms calculated
 number of electron     153.0000000 magnetization       1.0000000
 keeping initial charge density in first step


--------------------------------------------------------------------------------------------------------


 Maximum index for augmentation-charges          714 (set IRDMAX)


--------------------------------------------------------------------------------------------------------


 First call to EWALD:  gamma=   0.118
 Maximum number of real-space cells 3x 3x 3
 Maximum number of reciprocal cells 3x 3x 3

    FEWALD:  cpu time    0.0019: real time    0.0021


--------------------------------------- Iteration      1(   1)  ---------------------------------------


    POTLOK:  cpu time    1.1843: real time    1.1871
    SETDIJ:  cpu time    0.0180: real time    0.0180
     EDDAV:  cpu time    7.5153: real time    7.5188
       DOS:  cpu time    0.0005: real time    0.0005
    --------------------------------------------
      LOOP:  cpu time    8.7180: real time    8.7244

 eigenvalue-minimisations  :   376
 total energy-change (2. order) : 0.1116792E+04  (-0.4461361E+04)
 number of electron     153.0000000 magnetization       1.0000000
 augmentation part      153.0000000 magnetization       1.0000000

 Free energy of the ion-electron system (eV)
  ---------------------------------------------------
  alpha Z        PSCENC =        41.16232785
  Ewald energy   TEWEN  =     16128.86811688
  -Hartree energ DENC   =    -33152.37861757
  -exchange      EXHF   =         0.00000000
  -V(xc)+E(xc)   XCENC  =       623.29267922
  PAW double counting   =     16421.75059358   -17800.06104309
  entropy T*S    EENTRO =        -0.00186232
  eigenvalues    EBANDS =       191.94065428
  atomic energy  EATOM  =     18662.21924712
  Solvation  Ediel_sol  =         0.00000000
  ---------------------------------------------------
  free energy    TOTEN  =      1116.79209594 eV

  energy without entropy =     1116.79395826  energy(sigma->0) =     1116.79271671


--------------------------------------------------------------------------------------------------------




--------------------------------------- Iteration      1(   2)  ---------------------------------------


     EDDAV:  cpu time    7.3770: real time    7.3817
       DOS:  cpu time    0.0004: real time    0.0004
    --------------------------------------------
      LOOP:  cpu time    7.3775: real time    7.3821

 eigenvalue-minimisations  :   368
 total energy-change (2. order) :-0.1030377E+04  (-0.9771894E+03)
 number of electron     153.0000000 magnetization       1.0000000
 augmentation part      153.0000000 magnetization       1.0000000

 Free energy of the ion-electron system (eV)
  ---------------------------------------------------
  alpha Z        PSCENC =        41.16232785
  Ewald energy   TEWEN  =     16128.86811688
  -Hartree energ DENC   =    -33152.37861757
  -exchange      EXHF   =         0.00000000
  -V(xc)+E(xc)   XCENC  =       623.29267922
  PAW double counting   =     16421.75059358   -17800.06104309
  entropy T*S    EENTRO =         0.01537188
  eigenvalues    EBANDS =      -838.45341383
  atomic energy  EATOM  =     18662.21924712
  Solvation  Ediel_sol  =         0.00000000
  ---------------------------------------------------
  free energy    TOTEN  =        86.41526203 eV

  energy without entropy =       86.39989015  energy(sigma->0) =       86.41013807


--------------------------------------------------------------------------------------------------------




--------------------------------------- Iteration      1(   3)  ---------------------------------------


     EDDAV:  cpu time   11.4586: real time   11.4642
       DOS:  cpu time    0.0004: real time    0.0004
    --------------------------------------------
      LOOP:  cpu time   11.4590: real time   11.4646

 eigenvalue-minimisations  :   648
 total energy-change (2. order) :-0.1200967E+03  (-0.1125100E+03)
 number of electron     153.0000000 magnetization       1.0000000
 augmentation part      153.0000000 magnetization       1.0000000

 Free energy of the ion-electron system (eV)
  ---------------------------------------------------
  alpha Z        PSCENC =        41.16232785
  Ewald energy   TEWEN  =     16128.86811688
  -Hartree energ DENC   =    -33152.37861757
  -exchange      EXHF   =         0.00000000
  -V(xc)+E(xc)   XCENC  =       623.29267922
  PAW double counting   =     16421.75059358   -17800.06104309
  entropy T*S    EENTRO =         0.00889241
  eigenvalues    EBANDS =      -958.54363079
  atomic energy  EATOM  =     18662.21924712
  Solvation  Ediel_sol  =         0.00000000
  ---------------------------------------------------
  free energy    TOTEN  =       -33.68143440 eV

  energy without entropy =      -33.69032681  energy(sigma->0) =      -33.68439854


--------------------------------------------------------------------------------------------------------




--------------------------------------- Iteration      1(   4)  ---------------------------------------


     EDDAV:  cpu time   10.1384: real time   10.1450
       DOS:  cpu time    0.0003: real time    0.0003
    --------------------------------------------
      LOOP:  cpu time   10.1387: real time   10.1453

 eigenvalue-minimisations  :   552
 total energy-change (2. order) :-0.2159121E+02  (-0.2128455E+02)
 number of electron     153.0000000 magnetization       1.0000000
 augmentation part      153.0000000 magnetization       1.0000000

 Free energy of the ion-electron system (eV)
  ---------------------------------------------------
  alpha Z        PSCENC =        41.16232785
  Ewald energy   TEWEN  =     16128.86811688
  -Hartree energ DENC   =    -33152.37861757
  -exchange      EXHF   =         0.00000000
  -V(xc)+E(xc)   XCENC  =       623.29267922
  PAW double counting   =     16421.75059358   -17800.06104309
  entropy T*S    EENTRO =         0.00939587
  eigenvalues    EBANDS =      -980.13534685
  atomic energy  EATOM  =     18662.21924712
  Solvation  Ediel_sol  =         0.00000000
  ---------------------------------------------------
  free energy    TOTEN  =       -55.27264700 eV

  energy without entropy =      -55.28204287  energy(sigma->0) =      -55.27577896


--------------------------------------------------------------------------------------------------------




--------------------------------------- Iteration      1(   5)  ---------------------------------------


     EDDAV:  cpu time   12.0637: real time   12.0681
       DOS:  cpu time    0.0003: real time    0.0003
    CHARGE:  cpu time    0.6607: real time    0.6612
    MIXING:  cpu time    0.0228: real time    0.0228
    --------------------------------------------
      LOOP:  cpu time   12.7475: real time   12.7524

 eigenvalue-minimisations  :   680
 total energy-change (2. order) :-0.1516186E+01  (-0.1378304E+01)
 number of electron     153.0000018 magnetization       1.0000000
 augmentation part       87.5423202 magnetization       0.3637436

 Broyden mixing:
  rms(total) = 0.23228E+01    rms(broyden)= 0.23227E+01
  rms(prec ) = 0.26642E+01
  weight for this iteration     100.00

 Free energy of the ion-electron system (eV)
  ---------------------------------------------------
  alpha Z        PSCENC =        41.16232785
  Ewald energy   TEWEN  =     16128.86811688
  -Hartree energ DENC   =    -33152.37861757
  -exchange      EXHF   =         0.00000000
  -V(xc)+E(xc)   XCENC  =       623.29267922
  PAW double counting   =     16421.75059358   -17800.06104309
  entropy T*S    EENTRO =         0.00910301
  eigenvalues    EBANDS =      -981.65123987
  atomic energy  EATOM  =     18662.21924712
  Solvation  Ediel_sol  =         0.00000000
  ---------------------------------------------------
  free energy    TOTEN  =       -56.78883288 eV

  energy without entropy =      -56.79793589  energy(sigma->0) =      -56.79186722


--------------------------------------------------------------------------------------------------------




--------------------------------------- Iteration      1(   6)  ---------------------------------------


    POTLOK:  cpu time    1.1668: real time    1.1677
    SETDIJ:  cpu time    0.0181: real time    0.0181
    EDDIAG:  cpu time    1.0935: real time    1.0941
  RMM-DIIS:  cpu time    6.9992: real time    7.0017
    ORTHCH:  cpu time    0.0591: real time    0.0591
       DOS:  cpu time    0.0004: real time    0.0004
    CHARGE:  cpu time    0.6621: real time    0.6625
    MIXING:  cpu time    0.0232: real time    0.0232
    --------------------------------------------
      LOOP:  cpu time   10.0222: real time   10.0267

 eigenvalue-minimisations  :   415
 total energy-change (2. order) : 0.1053783E+01  (-0.1161198E+02)
 number of electron     153.0000018 magnetization       1.0000000
 augmentation part       95.6719864 magnetization       0.0865932

 Broyden mixing:
  rms(total) = 0.15118E+01    rms(broyden)= 0.15116E+01
  rms(prec ) = 0.17445E+01
  weight for this iteration     100.00

 eigenvalues of (default mixing * dielectric matrix)
  average eigenvalue GAMMA=   0.6171
  0.6171

 Free energy of the ion-electron system (eV)
  ---------------------------------------------------
  alpha Z        PSCENC =        41.16232785
  Ewald energy   TEWEN  =     16128.86811688
  -Hartree energ DENC   =    -32903.73344462
  -exchange      EXHF   =         0.00000000
  -V(xc)+E(xc)   XCENC  =       611.20434947
  PAW double counting   =     16698.97027401   -18023.63464075
  entropy T*S    EENTRO =         0.00682650
  eigenvalues    EBANDS =     -1270.79810589
  atomic energy  EATOM  =     18662.21924712
  Solvation  Ediel_sol  =         0.00000000
  ---------------------------------------------------
  free energy    TOTEN  =       -55.73504944 eV

  energy without entropy =      -55.74187595  energy(sigma->0) =      -55.73732494


--------------------------------------------------------------------------------------------------------




--------------------------------------- Iteration      1(   7)  ---------------------------------------


    POTLOK:  cpu time    1.1664: real time    1.1699
    SETDIJ:  cpu time    0.0175: real time    0.0174
    EDDIAG:  cpu time    1.0963: real time    1.0968
  RMM-DIIS:  cpu time    6.5402: real time    6.5428
    ORTHCH:  cpu time    0.0598: real time    0.0598
       DOS:  cpu time    0.0004: real time    0.0004
    CHARGE:  cpu time    0.6466: real time    0.6469
    MIXING:  cpu time    0.0236: real time    0.0236
    --------------------------------------------
      LOOP:  cpu time    9.5507: real time    9.5577

 eigenvalue-minimisations  :   385
 total energy-change (2. order) : 0.6767178E+01  (-0.2391541E+01)
 number of electron     153.0000018 magnetization       1.0000000
 augmentation part       92.8685171 magnetization       0.1045893

 Broyden mixing:
  rms(total) = 0.38146E+00    rms(broyden)= 0.38144E+00
  rms(prec ) = 0.47390E+00
  weight for this iteration     100.00

 eigenvalues of (default mixing * dielectric matrix)
  average eigenvalue GAMMA=   0.9325
  1.1969  0.6681

 Free energy of the ion-electron system (eV)
  ---------------------------------------------------
  alpha Z        PSCENC =        41.16232785
  Ewald energy   TEWEN  =     16128.86811688
  -Hartree energ DENC   =    -33038.26210193
  -exchange      EXHF   =         0.00000000
  -V(xc)+E(xc)   XCENC  =       615.61907021
  PAW double counting   =     17038.78488528   -18412.73578382
  entropy T*S    EENTRO =         0.00789313
  eigenvalues    EBANDS =     -1084.63152606
  atomic energy  EATOM  =     18662.21924712
  Solvation  Ediel_sol  =         0.00000000
  ---------------------------------------------------
  free energy    TOTEN  =       -48.96787135 eV

  energy without entropy =      -48.97576447  energy(sigma->0) =      -48.97050239


--------------------------------------------------------------------------------------------------------




--------------------------------------- Iteration      1(   8)  ---------------------------------------


    POTLOK:  cpu time    1.1668: real time    1.1671
    SETDIJ:  cpu time    0.0180: real time    0.0180
    EDDIAG:  cpu time    1.0945: real time    1.0949
  RMM-DIIS:  cpu time    6.9220: real time    6.9247
    ORTHCH:  cpu time    0.0596: real time    0.0596
       DOS:  cpu time    0.0005: real time    0.0005
    CHARGE:  cpu time    0.6663: real time    0.6668
    MIXING:  cpu time    0.0241: real time    0.0241
    --------------------------------------------
      LOOP:  cpu time    9.9518: real time    9.9557

 eigenvalue-minimisations  :   425
 total energy-change (2. order) : 0.2338647E+00  (-0.4073363E+00)
 number of electron     153.0000018 magnetization       1.0000000
 augmentation part       92.1060813 magnetization       0.1016029

 Broyden mixing:
  rms(total) = 0.30660E+00    rms(broyden)= 0.30657E+00
  rms(prec ) = 0.34741E+00
  weight for this iteration     100.00

 eigenvalues of (default mixing * dielectric matrix)
  average eigenvalue GAMMA=   0.9077
  1.3611  0.6810  0.6810

 Free energy of the ion-electron system (eV)
  ---------------------------------------------------
  alpha Z        PSCENC =        41.16232785
  Ewald energy   TEWEN  =     16128.86811688
  -Hartree energ DENC   =    -33086.34705207
  -exchange      EXHF   =         0.00000000
  -V(xc)+E(xc)   XCENC  =       615.99086636
  PAW double counting   =     17393.14485477   -18786.38845213
  entropy T*S    EENTRO =         0.00814365
  eigenvalues    EBANDS =     -1017.39205903
  atomic energy  EATOM  =     18662.21924712
  Solvation  Ediel_sol  =         0.00000000
  ---------------------------------------------------
  free energy    TOTEN  =       -48.73400662 eV

  energy without entropy =      -48.74215026  energy(sigma->0) =      -48.73672117


--------------------------------------------------------------------------------------------------------




--------------------------------------- Iteration      1(   9)  ---------------------------------------


    POTLOK:  cpu time    1.1677: real time    1.1679
    SETDIJ:  cpu time    0.0180: real time    0.0180
    EDDIAG:  cpu time    1.0966: real time    1.0974
  RMM-DIIS:  cpu time    6.6250: real time    6.6279
    ORTHCH:  cpu time    0.0589: real time    0.0592
       DOS:  cpu time    0.0004: real time    0.0004
    CHARGE:  cpu time    0.6561: real time    0.6564
    MIXING:  cpu time    0.0250: real time    0.0250
    --------------------------------------------
      LOOP:  cpu time    9.6478: real time    9.6522

 eigenvalue-minimisations  :   410
 total energy-change (2. order) : 0.5647391E-01  (-0.9679078E-01)
 number of electron     153.0000018 magnetization       1.0000000
 augmentation part       92.2703083 magnetization       0.0924244

 Broyden mixing:
  rms(total) = 0.18298E+00    rms(broyden)= 0.18297E+00
  rms(prec ) = 0.21677E+00
  weight for this iteration     100.00

 eigenvalues of (default mixing * dielectric matrix)
  average eigenvalue GAMMA=   1.0228
  2.0454  0.7814  0.7814  0.4830

 Free energy of the ion-electron system (eV)
  ---------------------------------------------------
  alpha Z        PSCENC =        41.16232785
  Ewald energy   TEWEN  =     16128.86811688
  -Hartree energ DENC   =    -33084.76005540
  -exchange      EXHF   =         0.00000000
  -V(xc)+E(xc)   XCENC  =       615.58394100
  PAW double counting   =     17489.52486964   -18884.48075074
  entropy T*S    EENTRO =         0.00802094
  eigenvalues    EBANDS =     -1016.80325000
  atomic energy  EATOM  =     18662.21924712
  Solvation  Ediel_sol  =         0.00000000
  ---------------------------------------------------
  free energy    TOTEN  =       -48.67753271 eV

  energy without entropy =      -48.68555365  energy(sigma->0) =      -48.68020635


--------------------------------------------------------------------------------------------------------




--------------------------------------- Iteration      1(  10)  ---------------------------------------


    POTLOK:  cpu time    1.1683: real time    1.1691
    SETDIJ:  cpu time    0.0182: real time    0.0182
    EDDIAG:  cpu time    1.0961: real time    1.0965
  RMM-DIIS:  cpu time    7.1357: real time    7.1385
    ORTHCH:  cpu time    0.0596: real time    0.0596
       DOS:  cpu time    0.0004: real time    0.0004
    CHARGE:  cpu time    0.6575: real time    0.6580
    MIXING:  cpu time    0.0254: real time    0.0254
    --------------------------------------------
      LOOP:  cpu time   10.1612: real time   10.1657

 eigenvalue-minimisations  :   413
 total energy-change (2. order) : 0.5868026E-01  (-0.2078133E-01)
 number of electron     153.0000018 magnetization       1.0000000
 augmentation part       92.4694586 magnetization       0.0780805

 Broyden mixing:
  rms(total) = 0.59871E-01    rms(broyden)= 0.59868E-01
  rms(prec ) = 0.78747E-01
  weight for this iteration     100.00

 eigenvalues of (default mixing * dielectric matrix)
  average eigenvalue GAMMA=   1.0543
  2.1463  1.0734  0.7942  0.7942  0.4631

 Free energy of the ion-electron system (eV)
  ---------------------------------------------------
  alpha Z        PSCENC =        41.16232785
  Ewald energy   TEWEN  =     16128.86811688
  -Hartree energ DENC   =    -33082.14383529
  -exchange      EXHF   =         0.00000000
  -V(xc)+E(xc)   XCENC  =       615.14529610
  PAW double counting   =     17590.13445788   -18986.52378917
  entropy T*S    EENTRO =         0.00780320
  eigenvalues    EBANDS =     -1017.48847701
  atomic energy  EATOM  =     18662.21924712
  Solvation  Ediel_sol  =         0.00000000
  ---------------------------------------------------
  free energy    TOTEN  =       -48.61885245 eV

  energy without entropy =      -48.62665565  energy(sigma->0) =      -48.62145352


--------------------------------------------------------------------------------------------------------




--------------------------------------- Iteration      1(  11)  ---------------------------------------


    POTLOK:  cpu time    1.1696: real time    1.1714
    SETDIJ:  cpu time    0.0173: real time    0.0173
    EDDIAG:  cpu time    1.0943: real time    1.0948
  RMM-DIIS:  cpu time    7.2181: real time    7.2208
    ORTHCH:  cpu time    0.0563: real time    0.0567
       DOS:  cpu time    0.0005: real time    0.0005
    CHARGE:  cpu time    0.6560: real time    0.6560
    MIXING:  cpu time    0.0260: real time    0.0260
    --------------------------------------------
      LOOP:  cpu time   10.2382: real time   10.2435

 eigenvalue-minimisations  :   423
 total energy-change (2. order) : 0.9699040E-02  (-0.7660261E-02)
 number of electron     153.0000018 magnetization       1.0000000
 augmentation part       92.4076117 magnetization       0.0781454

 Broyden mixing:
  rms(total) = 0.46945E-01    rms(broyden)= 0.46941E-01
  rms(prec ) = 0.58991E-01
  weight for this iteration     100.00

 eigenvalues of (default mixing * dielectric matrix)
  average eigenvalue GAMMA=   1.0365
  2.1758  1.4798  0.7805  0.7805  0.5348  0.4676

 Free energy of the ion-electron system (eV)
  ---------------------------------------------------
  alpha Z        PSCENC =        41.16232785
  Ewald energy   TEWEN  =     16128.86811688
  -Hartree energ DENC   =    -33090.00074703
  -exchange      EXHF   =         0.00000000
  -V(xc)+E(xc)   XCENC  =       615.24491027
  PAW double counting   =     17642.92927921   -19041.53675819
  entropy T*S    EENTRO =         0.00795159
  eigenvalues    EBANDS =     -1007.50348112
  atomic energy  EATOM  =     18662.21924712
  Solvation  Ediel_sol  =         0.00000000
  ---------------------------------------------------
  free energy    TOTEN  =       -48.60915341 eV

  energy without entropy =      -48.61710501  energy(sigma->0) =      -48.61180394


--------------------------------------------------------------------------------------------------------




--------------------------------------- Iteration      1(  12)  ---------------------------------------


    POTLOK:  cpu time    1.1660: real time    1.1667
    SETDIJ:  cpu time    0.0182: real time    0.0182
    EDDIAG:  cpu time    1.0923: real time    1.0928
  RMM-DIIS:  cpu time    7.9286: real time    7.9312
    ORTHCH:  cpu time    0.0561: real time    0.0561
       DOS:  cpu time    0.0005: real time    0.0005
    CHARGE:  cpu time    0.6517: real time    0.6517
    MIXING:  cpu time    0.0268: real time    0.0268
    --------------------------------------------
      LOOP:  cpu time   10.9402: real time   10.9439

 eigenvalue-minimisations  :   419
 total energy-change (2. order) : 0.3356639E-02  (-0.1970399E-02)
 number of electron     153.0000018 magnetization       1.0000000
 augmentation part       92.4100972 magnetization       0.0769423

 Broyden mixing:
  rms(total) = 0.18124E-01    rms(broyden)= 0.18124E-01
  rms(prec ) = 0.30022E-01
  weight for this iteration     100.00

 eigenvalues of (default mixing * dielectric matrix)
  average eigenvalue GAMMA=   1.0793
  2.4028  1.6516  1.0677  0.7266  0.7266  0.5282  0.4514

 Free energy of the ion-electron system (eV)
  ---------------------------------------------------
  alpha Z        PSCENC =        41.16232785
  Ewald energy   TEWEN  =     16128.86811688
  -Hartree energ DENC   =    -33092.68135977
  -exchange      EXHF   =         0.00000000
  -V(xc)+E(xc)   XCENC  =       615.28285131
  PAW double counting   =     17649.95850561   -19048.86066769
  entropy T*S    EENTRO =         0.00783114
  eigenvalues    EBANDS =     -1004.56264921
  atomic energy  EATOM  =     18662.21924712
  Solvation  Ediel_sol  =         0.00000000
  ---------------------------------------------------
  free energy    TOTEN  =       -48.60579677 eV

  energy without entropy =      -48.61362792  energy(sigma->0) =      -48.60840715


--------------------------------------------------------------------------------------------------------




--------------------------------------- Iteration      1(  13)  ---------------------------------------


    POTLOK:  cpu time    1.1685: real time    1.1704
    SETDIJ:  cpu time    0.0177: real time    0.0177
    EDDIAG:  cpu time    1.0922: real time    1.0926
  RMM-DIIS:  cpu time    7.3292: real time    7.3318
    ORTHCH:  cpu time    0.0562: real time    0.0562
       DOS:  cpu time    0.0004: real time    0.0004
    CHARGE:  cpu time    0.6509: real time    0.6512
    MIXING:  cpu time    0.0276: real time    0.0276
    --------------------------------------------
      LOOP:  cpu time   10.3426: real time   10.3479

 eigenvalue-minimisations  :   434
 total energy-change (2. order) : 0.7311142E-03  (-0.6262298E-03)
 number of electron     153.0000018 magnetization       1.0000000
 augmentation part       92.4242156 magnetization       0.0771458

 Broyden mixing:
  rms(total) = 0.95176E-02    rms(broyden)= 0.95171E-02
  rms(prec ) = 0.19365E-01
  weight for this iteration     100.00

 eigenvalues of (default mixing * dielectric matrix)
  average eigenvalue GAMMA=   1.1156
  2.4324  1.9168  1.3389  0.7674  0.7674  0.7349  0.5235  0.4431

 Free energy of the ion-electron system (eV)
  ---------------------------------------------------
  alpha Z        PSCENC =        41.16232785
  Ewald energy   TEWEN  =     16128.86811688
  -Hartree energ DENC   =    -33097.02270372
  -exchange      EXHF   =         0.00000000
  -V(xc)+E(xc)   XCENC  =       615.30248343
  PAW double counting   =     17652.58163169   -19051.45645151
  entropy T*S    EENTRO =         0.00781106
  eigenvalues    EBANDS =     -1000.26752845
  atomic energy  EATOM  =     18662.21924712
  Solvation  Ediel_sol  =         0.00000000
  ---------------------------------------------------
  free energy    TOTEN  =       -48.60506566 eV

  energy without entropy =      -48.61287672  energy(sigma->0) =      -48.60766935


--------------------------------------------------------------------------------------------------------




--------------------------------------- Iteration      1(  14)  ---------------------------------------


    POTLOK:  cpu time    1.1684: real time    1.1709
    SETDIJ:  cpu time    0.0180: real time    0.0180
    EDDIAG:  cpu time    1.0907: real time    1.0911
  RMM-DIIS:  cpu time    6.8093: real time    6.8120
    ORTHCH:  cpu time    0.0563: real time    0.0563
       DOS:  cpu time    0.0005: real time    0.0005
    CHARGE:  cpu time    0.6511: real time    0.6515
    MIXING:  cpu time    0.0288: real time    0.0288
    --------------------------------------------
      LOOP:  cpu time    9.8230: real time    9.8290

 eigenvalue-minimisations  :   414
 total energy-change (2. order) :-0.1130900E-02  (-0.2948343E-03)
 number of electron     153.0000018 magnetization       1.0000000
 augmentation part       92.4293658 magnetization       0.0775993

 Broyden mixing:
  rms(total) = 0.10218E-01    rms(broyden)= 0.10218E-01
  rms(prec ) = 0.16218E-01
  weight for this iteration     100.00

 eigenvalues of (default mixing * dielectric matrix)
  average eigenvalue GAMMA=   1.1392
  2.4197  2.4197  1.3578  0.9933  0.7376  0.7376  0.6460  0.4952  0.4455

 Free energy of the ion-electron system (eV)
  ---------------------------------------------------
  alpha Z        PSCENC =        41.16232785
  Ewald energy   TEWEN  =     16128.86811688
  -Hartree energ DENC   =    -33101.78399962
  -exchange      EXHF   =         0.00000000
  -V(xc)+E(xc)   XCENC  =       615.33891484
  PAW double counting   =     17645.66184029   -19044.27284356
  entropy T*S    EENTRO =         0.00779966
  eigenvalues    EBANDS =      -995.80760001
  atomic energy  EATOM  =     18662.21924712
  Solvation  Ediel_sol  =         0.00000000
  ---------------------------------------------------
  free energy    TOTEN  =       -48.60619656 eV

  energy without entropy =      -48.61399622  energy(sigma->0) =      -48.60879645


--------------------------------------------------------------------------------------------------------




--------------------------------------- Iteration      1(  15)  ---------------------------------------


    POTLOK:  cpu time    1.1677: real time    1.1685
    SETDIJ:  cpu time    0.0180: real time    0.0180
    EDDIAG:  cpu time    1.0924: real time    1.0929
  RMM-DIIS:  cpu time    6.5358: real time    6.5552
    ORTHCH:  cpu time    0.0564: real time    0.0564
       DOS:  cpu time    0.0005: real time    0.0005
    CHARGE:  cpu time    0.6504: real time    0.6504
    MIXING:  cpu time    0.0297: real time    0.0297
    --------------------------------------------
      LOOP:  cpu time    9.5509: real time    9.5717

 eigenvalue-minimisations  :   405
 total energy-change (2. order) :-0.1133896E-02  (-0.1367603E-03)
 number of electron     153.0000018 magnetization       1.0000000
 augmentation part       92.4265387 magnetization       0.0778144

 Broyden mixing:
  rms(total) = 0.59788E-02    rms(broyden)= 0.59786E-02
  rms(prec ) = 0.10414E-01
  weight for this iteration     100.00

 eigenvalues of (default mixing * dielectric matrix)
  average eigenvalue GAMMA=   1.1954
  2.7243  2.7243  1.3770  1.3770  0.7569  0.7569  0.7583  0.5550  0.4469  0.4777

 Free energy of the ion-electron system (eV)
  ---------------------------------------------------
  alpha Z        PSCENC =        41.16232785
  Ewald energy   TEWEN  =     16128.86811688
  -Hartree energ DENC   =    -33105.05948353
  -exchange      EXHF   =         0.00000000
  -V(xc)+E(xc)   XCENC  =       615.37090839
  PAW double counting   =     17640.09353824   -19038.56733456
  entropy T*S    EENTRO =         0.00778881
  eigenvalues    EBANDS =      -992.70243966
  atomic energy  EATOM  =     18662.21924712
  Solvation  Ediel_sol  =         0.00000000
  ---------------------------------------------------
  free energy    TOTEN  =       -48.60733045 eV

  energy without entropy =      -48.61511927  energy(sigma->0) =      -48.60992673


--------------------------------------------------------------------------------------------------------




--------------------------------------- Iteration      1(  16)  ---------------------------------------


    POTLOK:  cpu time    1.1672: real time    1.1682
    SETDIJ:  cpu time    0.0172: real time    0.0172
    EDDIAG:  cpu time    1.0916: real time    1.0920
  RMM-DIIS:  cpu time    6.5982: real time    6.6002
    ORTHCH:  cpu time    0.0568: real time    0.0568
       DOS:  cpu time    0.0004: real time    0.0004
    CHARGE:  cpu time    0.6492: real time    0.6495
    MIXING:  cpu time    0.0303: real time    0.0303
    --------------------------------------------
      LOOP:  cpu time    9.6109: real time    9.6146

 eigenvalue-minimisations  :   394
 total energy-change (2. order) :-0.1707375E-02  (-0.1122599E-03)
 number of electron     153.0000018 magnetization       1.0000000
 augmentation part       92.4191627 magnetization       0.0777574

 Broyden mixing:
  rms(total) = 0.53852E-02    rms(broyden)= 0.53846E-02
  rms(prec ) = 0.77264E-02
  weight for this iteration     100.00

 eigenvalues of (default mixing * dielectric matrix)
  average eigenvalue GAMMA=   1.2461
  3.3691  2.6233  1.5187  1.5187  0.9924  0.7632  0.7632  0.7096  0.4441  0.5153
  0.4889

 Free energy of the ion-electron system (eV)
  ---------------------------------------------------
  alpha Z        PSCENC =        41.16232785
  Ewald energy   TEWEN  =     16128.86811688
  -Hartree energ DENC   =    -33108.16182724
  -exchange      EXHF   =         0.00000000
  -V(xc)+E(xc)   XCENC  =       615.40171201
  PAW double counting   =     17636.01208505   -19034.45226209
  entropy T*S    EENTRO =         0.00781845
  eigenvalues    EBANDS =      -989.66625585
  atomic energy  EATOM  =     18662.21924712
  Solvation  Ediel_sol  =         0.00000000
  ---------------------------------------------------
  free energy    TOTEN  =       -48.60903783 eV

  energy without entropy =      -48.61685628  energy(sigma->0) =      -48.61164398


--------------------------------------------------------------------------------------------------------




--------------------------------------- Iteration      1(  17)  ---------------------------------------


    POTLOK:  cpu time    1.1670: real time    1.1673
    SETDIJ:  cpu time    0.0179: real time    0.0179
    EDDIAG:  cpu time    1.0902: real time    1.0909
  RMM-DIIS:  cpu time    6.7666: real time    6.7684
    ORTHCH:  cpu time    0.0572: real time    0.0572
       DOS:  cpu time    0.0004: real time    0.0004
    CHARGE:  cpu time    0.6497: real time    0.6499
    MIXING:  cpu time    0.0313: real time    0.0313
    --------------------------------------------
      LOOP:  cpu time    9.7803: real time    9.7832

 eigenvalue-minimisations  :   402
 total energy-change (2. order) :-0.1694659E-02  (-0.5366942E-04)
 number of electron     153.0000018 magnetization       1.0000000
 augmentation part       92.4207893 magnetization       0.0777274

 Broyden mixing:
  rms(total) = 0.22962E-02    rms(broyden)= 0.22961E-02
  rms(prec ) = 0.38290E-02
  weight for this iteration     100.00

 eigenvalues of (default mixing * dielectric matrix)
  average eigenvalue GAMMA=   1.3310
  4.3593  2.5899  2.0718  1.3831  1.1711  0.7769  0.7769  0.7369  0.6594  0.5230
  0.4443  0.4795

 Free energy of the ion-electron system (eV)
  ---------------------------------------------------
  alpha Z        PSCENC =        41.16232785
  Ewald energy   TEWEN  =     16128.86811688
  -Hartree energ DENC   =    -33109.96360370
  -exchange      EXHF   =         0.00000000
  -V(xc)+E(xc)   XCENC  =       615.41008021
  PAW double counting   =     17634.25741011   -19032.67720507
  entropy T*S    EENTRO =         0.00781470
  eigenvalues    EBANDS =      -987.89492058
  atomic energy  EATOM  =     18662.21924712
  Solvation  Ediel_sol  =         0.00000000
  ---------------------------------------------------
  free energy    TOTEN  =       -48.61073249 eV

  energy without entropy =      -48.61854719  energy(sigma->0) =      -48.61333739


--------------------------------------------------------------------------------------------------------




--------------------------------------- Iteration      1(  18)  ---------------------------------------


    POTLOK:  cpu time    1.1688: real time    1.1709
    SETDIJ:  cpu time    0.0178: real time    0.0178
    EDDIAG:  cpu time    1.0927: real time    1.0933
  RMM-DIIS:  cpu time    6.8291: real time    6.8310
    ORTHCH:  cpu time    0.0568: real time    0.0568
       DOS:  cpu time    0.0004: real time    0.0004
    CHARGE:  cpu time    0.6493: real time    0.6495
    MIXING:  cpu time    0.0325: real time    0.0325
    --------------------------------------------
      LOOP:  cpu time    9.8474: real time    9.8522

 eigenvalue-minimisations  :   403
 total energy-change (2. order) :-0.8042465E-03  (-0.1805296E-04)
 number of electron     153.0000018 magnetization       1.0000000
 augmentation part       92.4195667 magnetization       0.0777750

 Broyden mixing:
  rms(total) = 0.15636E-02    rms(broyden)= 0.15635E-02
  rms(prec ) = 0.27381E-02
  weight for this iteration     100.00

 eigenvalues of (default mixing * dielectric matrix)
  average eigenvalue GAMMA=   1.3762
  5.1904  2.6569  2.2283  1.3173  1.3173  0.8296  0.8296  0.7533  0.7533  0.5763
  0.5179  0.4446  0.4757

 Free energy of the ion-electron system (eV)
  ---------------------------------------------------
  alpha Z        PSCENC =        41.16232785
  Ewald energy   TEWEN  =     16128.86811688
  -Hartree energ DENC   =    -33110.81692929
  -exchange      EXHF   =         0.00000000
  -V(xc)+E(xc)   XCENC  =       615.41237503
  PAW double counting   =     17634.33565835   -19032.77827045
  entropy T*S    EENTRO =         0.00782253
  eigenvalues    EBANDS =      -987.02188474
  atomic energy  EATOM  =     18662.21924712
  Solvation  Ediel_sol  =         0.00000000
  ---------------------------------------------------
  free energy    TOTEN  =       -48.61153673 eV

  energy without entropy =      -48.61935926  energy(sigma->0) =      -48.61414424


--------------------------------------------------------------------------------------------------------




--------------------------------------- Iteration      1(  19)  ---------------------------------------


    POTLOK:  cpu time    1.1697: real time    1.1699
    SETDIJ:  cpu time    0.0178: real time    0.0178
    EDDIAG:  cpu time    1.0920: real time    1.0926
  RMM-DIIS:  cpu time    7.1798: real time    7.1817
    ORTHCH:  cpu time    0.0566: real time    0.0569
       DOS:  cpu time    0.0005: real time    0.0005
    CHARGE:  cpu time    0.6493: real time    0.6493
    MIXING:  cpu time    0.0338: real time    0.0337
    --------------------------------------------
      LOOP:  cpu time   10.1995: real time   10.2024

 eigenvalue-minimisations  :   430
 total energy-change (2. order) :-0.8383416E-03  (-0.1056205E-04)
 number of electron     153.0000018 magnetization       1.0000000
 augmentation part       92.4210771 magnetization       0.0778894

 Broyden mixing:
  rms(total) = 0.10889E-02    rms(broyden)= 0.10888E-02
  rms(prec ) = 0.18251E-02
  weight for this iteration     100.00

 eigenvalues of (default mixing * dielectric matrix)
  average eigenvalue GAMMA=   1.4448
  5.9672  2.7479  2.2633  1.5358  1.5358  1.2165  0.7638  0.7638  0.7778  0.6828
  0.4444  0.4753  0.5348  0.5182

 Free energy of the ion-electron system (eV)
  ---------------------------------------------------
  alpha Z        PSCENC =        41.16232785
  Ewald energy   TEWEN  =     16128.86811688
  -Hartree energ DENC   =    -33111.18837440
  -exchange      EXHF   =         0.00000000
  -V(xc)+E(xc)   XCENC  =       615.40906373
  PAW double counting   =     17634.43562046   -19032.87217644
  entropy T*S    EENTRO =         0.00781439
  eigenvalues    EBANDS =      -986.65401465
  atomic energy  EATOM  =     18662.21924712
  Solvation  Ediel_sol  =         0.00000000
  ---------------------------------------------------
  free energy    TOTEN  =       -48.61237508 eV

  energy without entropy =      -48.62018946  energy(sigma->0) =      -48.61497987


--------------------------------------------------------------------------------------------------------




--------------------------------------- Iteration      1(  20)  ---------------------------------------


    POTLOK:  cpu time    1.1679: real time    1.1702
    SETDIJ:  cpu time    0.0182: real time    0.0182
    EDDIAG:  cpu time    1.0918: real time    1.0921
  RMM-DIIS:  cpu time    6.8580: real time    6.8598
    ORTHCH:  cpu time    0.0568: real time    0.0570
       DOS:  cpu time    0.0004: real time    0.0004
    CHARGE:  cpu time    0.6494: real time    0.6494
    MIXING:  cpu time    0.0352: real time    0.0352
    --------------------------------------------
      LOOP:  cpu time    9.8777: real time    9.8823

 eigenvalue-minimisations  :   407
 total energy-change (2. order) :-0.4985611E-03  (-0.4152228E-05)
 number of electron     153.0000018 magnetization       1.0000000
 augmentation part       92.4213969 magnetization       0.0778611

 Broyden mixing:
  rms(total) = 0.63719E-03    rms(broyden)= 0.63718E-03
  rms(prec ) = 0.11512E-02
  weight for this iteration     100.00

 eigenvalues of (default mixing * dielectric matrix)
  average eigenvalue GAMMA=   1.4682
  6.3676  2.8831  2.3439  2.0523  1.2878  1.2878  0.8618  0.8618  0.7432  0.7432
  0.6302  0.4444  0.4756  0.5200  0.5200

 Free energy of the ion-electron system (eV)
  ---------------------------------------------------
  alpha Z        PSCENC =        41.16232785
  Ewald energy   TEWEN  =     16128.86811688
  -Hartree energ DENC   =    -33111.32771135
  -exchange      EXHF   =         0.00000000
  -V(xc)+E(xc)   XCENC  =       615.40764252
  PAW double counting   =     17634.77667796   -19033.21915006
  entropy T*S    EENTRO =         0.00781142
  eigenvalues    EBANDS =      -986.50783597
  atomic energy  EATOM  =     18662.21924712
  Solvation  Ediel_sol  =         0.00000000
  ---------------------------------------------------
  free energy    TOTEN  =       -48.61287364 eV

  energy without entropy =      -48.62068506  energy(sigma->0) =      -48.61547744


--------------------------------------------------------------------------------------------------------




--------------------------------------- Iteration      1(  21)  ---------------------------------------


    POTLOK:  cpu time    1.1665: real time    1.1671
    SETDIJ:  cpu time    0.0181: real time    0.0181
    EDDIAG:  cpu time    1.0922: real time    1.0925
  RMM-DIIS:  cpu time    6.8095: real time    6.8114
    ORTHCH:  cpu time    0.0566: real time    0.0566
       DOS:  cpu time    0.0004: real time    0.0004
    CHARGE:  cpu time    0.6511: real time    0.6513
    MIXING:  cpu time    0.0367: real time    0.0367
    --------------------------------------------
      LOOP:  cpu time    9.8310: real time    9.8340

 eigenvalue-minimisations  :   399
 total energy-change (2. order) :-0.3940245E-03  (-0.2968632E-05)
 number of electron     153.0000018 magnetization       1.0000000
 augmentation part       92.4217204 magnetization       0.0778297

 Broyden mixing:
  rms(total) = 0.61896E-03    rms(broyden)= 0.61894E-03
  rms(prec ) = 0.92608E-03
  weight for this iteration     100.00

 eigenvalues of (default mixing * dielectric matrix)
  average eigenvalue GAMMA=   1.5185
  6.6922  3.3879  2.5042  2.1859  1.4050  1.4050  0.9581  0.9581  0.7558  0.7558
  0.7049  0.6230  0.4444  0.4751  0.5202  0.5202

 Free energy of the ion-electron system (eV)
  ---------------------------------------------------
  alpha Z        PSCENC =        41.16232785
  Ewald energy   TEWEN  =     16128.86811688
  -Hartree energ DENC   =    -33111.35836717
  -exchange      EXHF   =         0.00000000
  -V(xc)+E(xc)   XCENC  =       615.40695153
  PAW double counting   =     17635.00963302   -19033.45539615
  entropy T*S    EENTRO =         0.00781313
  eigenvalues    EBANDS =      -986.47359386
  atomic energy  EATOM  =     18662.21924712
  Solvation  Ediel_sol  =         0.00000000
  ---------------------------------------------------
  free energy    TOTEN  =       -48.61326766 eV

  energy without entropy =      -48.62108079  energy(sigma->0) =      -48.61587204


--------------------------------------------------------------------------------------------------------




--------------------------------------- Iteration      1(  22)  ---------------------------------------


    POTLOK:  cpu time    1.1673: real time    1.1699
    SETDIJ:  cpu time    0.0172: real time    0.0172
    EDDIAG:  cpu time    1.0923: real time    1.0928
  RMM-DIIS:  cpu time    7.2053: real time    7.2072
    ORTHCH:  cpu time    0.0568: real time    0.0568
       DOS:  cpu time    0.0005: real time    0.0005
    CHARGE:  cpu time    0.6502: real time    0.6506
    MIXING:  cpu time    0.0385: real time    0.0385
    --------------------------------------------
      LOOP:  cpu time   10.2280: real time   10.2334

 eigenvalue-minimisations  :   405
 total energy-change (2. order) :-0.2470292E-03  (-0.1956796E-05)
 number of electron     153.0000018 magnetization       1.0000000
 augmentation part       92.4210124 magnetization       0.0778215

 Broyden mixing:
  rms(total) = 0.31617E-03    rms(broyden)= 0.31612E-03
  rms(prec ) = 0.52639E-03
  weight for this iteration     100.00

 eigenvalues of (default mixing * dielectric matrix)
  average eigenvalue GAMMA=   1.5613
  7.1191  4.0561  2.4894  2.1698  1.7059  1.2900  1.2900  0.8593  0.8593  0.7525
  0.7525  0.6419  0.5993  0.4444  0.4753  0.5189  0.5189

 Free energy of the ion-electron system (eV)
  ---------------------------------------------------
  alpha Z        PSCENC =        41.16232785
  Ewald energy   TEWEN  =     16128.86811688
  -Hartree energ DENC   =    -33111.45853080
  -exchange      EXHF   =         0.00000000
  -V(xc)+E(xc)   XCENC  =       615.40716196
  PAW double counting   =     17635.19868120   -19033.65210643
  entropy T*S    EENTRO =         0.00781349
  eigenvalues    EBANDS =      -986.36622596
  atomic energy  EATOM  =     18662.21924712
  Solvation  Ediel_sol  =         0.00000000
  ---------------------------------------------------
  free energy    TOTEN  =       -48.61351469 eV

  energy without entropy =      -48.62132818  energy(sigma->0) =      -48.61611919


--------------------------------------------------------------------------------------------------------




--------------------------------------- Iteration      1(  23)  ---------------------------------------


    POTLOK:  cpu time    1.1679: real time    1.1681
    SETDIJ:  cpu time    0.0181: real time    0.0181
    EDDIAG:  cpu time    1.0936: real time    1.0939
  RMM-DIIS:  cpu time    7.1061: real time    7.1083
    ORTHCH:  cpu time    0.0567: real time    0.0567
       DOS:  cpu time    0.0004: real time    0.0004
    CHARGE:  cpu time    0.6506: real time    0.6508
    MIXING:  cpu time    0.0408: real time    0.0408
    --------------------------------------------
      LOOP:  cpu time   10.1342: real time   10.1372

 eigenvalue-minimisations  :   426
 total energy-change (2. order) :-0.1061582E-03  (-0.6697595E-06)
 number of electron     153.0000018 magnetization       1.0000000
 augmentation part       92.4208385 magnetization       0.0778409

 Broyden mixing:
  rms(total) = 0.20755E-03    rms(broyden)= 0.20755E-03
  rms(prec ) = 0.33635E-03
  weight for this iteration     100.00

 eigenvalues of (default mixing * dielectric matrix)
  average eigenvalue GAMMA=   1.5743
  7.4461  4.3091  2.4598  2.2927  1.8431  1.3252  1.3252  0.9539  0.9539  0.7623
  0.7623  0.7328  0.6507  0.4444  0.5717  0.4749  0.5144  0.5144

 Free energy of the ion-electron system (eV)
  ---------------------------------------------------
  alpha Z        PSCENC =        41.16232785
  Ewald energy   TEWEN  =     16128.86811688
  -Hartree energ DENC   =    -33111.51106307
  -exchange      EXHF   =         0.00000000
  -V(xc)+E(xc)   XCENC  =       615.40695472
  PAW double counting   =     17635.15875440   -19033.61102486
  entropy T*S    EENTRO =         0.00781474
  eigenvalues    EBANDS =      -986.31474861
  atomic energy  EATOM  =     18662.21924712
  Solvation  Ediel_sol  =         0.00000000
  ---------------------------------------------------
  free energy    TOTEN  =       -48.61362085 eV

  energy without entropy =      -48.62143559  energy(sigma->0) =      -48.61622576


--------------------------------------------------------------------------------------------------------




--------------------------------------- Iteration      1(  24)  ---------------------------------------


    POTLOK:  cpu time    1.1680: real time    1.1685
    SETDIJ:  cpu time    0.0181: real time    0.0180
    EDDIAG:  cpu time    1.0930: real time    1.0933
  RMM-DIIS:  cpu time    6.6232: real time    6.6250
    ORTHCH:  cpu time    0.0568: real time    0.0568
       DOS:  cpu time    0.0005: real time    0.0005
    CHARGE:  cpu time    0.6506: real time    0.6509
    MIXING:  cpu time    0.0428: real time    0.0428
    --------------------------------------------
      LOOP:  cpu time    9.6529: real time    9.6557

 eigenvalue-minimisations  :   395
 total energy-change (2. order) :-0.9910010E-04  (-0.7017713E-06)
 number of electron     153.0000018 magnetization       1.0000000
 augmentation part       92.4209824 magnetization       0.0778384

 Broyden mixing:
  rms(total) = 0.14535E-03    rms(broyden)= 0.14534E-03
  rms(prec ) = 0.23100E-03
  weight for this iteration     100.00

 eigenvalues of (default mixing * dielectric matrix)
  average eigenvalue GAMMA=   1.6014
  7.7553  4.6462  2.5083  2.5083  1.8681  1.4106  1.4106  1.2185  0.8804  0.8804
  0.7634  0.7634  0.6788  0.6277  0.4444  0.4750  0.5527  0.5171  0.5171

 Free energy of the ion-electron system (eV)
  ---------------------------------------------------
  alpha Z        PSCENC =        41.16232785
  Ewald energy   TEWEN  =     16128.86811688
  -Hartree energ DENC   =    -33111.51604320
  -exchange      EXHF   =         0.00000000
  -V(xc)+E(xc)   XCENC  =       615.40676676
  PAW double counting   =     17635.05517429   -19033.50311442
  entropy T*S    EENTRO =         0.00781412
  eigenvalues    EBANDS =      -986.31400935
  atomic energy  EATOM  =     18662.21924712
  Solvation  Ediel_sol  =         0.00000000
  ---------------------------------------------------
  free energy    TOTEN  =       -48.61371995 eV

  energy without entropy =      -48.62153407  energy(sigma->0) =      -48.61632466


--------------------------------------------------------------------------------------------------------




--------------------------------------- Iteration      1(  25)  ---------------------------------------


    POTLOK:  cpu time    1.1682: real time    1.1701
    SETDIJ:  cpu time    0.0182: real time    0.0182
    EDDIAG:  cpu time    1.0918: real time    1.0921
  RMM-DIIS:  cpu time    6.7864: real time    6.7884
    ORTHCH:  cpu time    0.0574: real time    0.0574
       DOS:  cpu time    0.0005: real time    0.0005
    CHARGE:  cpu time    0.6505: real time    0.6505
    MIXING:  cpu time    0.0450: real time    0.0450
    --------------------------------------------
      LOOP:  cpu time    9.8180: real time    9.8222

 eigenvalue-minimisations  :   392
 total energy-change (2. order) :-0.6262704E-04  (-0.5418781E-06)
 number of electron     153.0000018 magnetization       1.0000000
 augmentation part       92.4212174 magnetization       0.0778429

 Broyden mixing:
  rms(total) = 0.10783E-03    rms(broyden)= 0.10782E-03
  rms(prec ) = 0.15970E-03
  weight for this iteration     100.00

 eigenvalues of (default mixing * dielectric matrix)
  average eigenvalue GAMMA=   1.6422
  7.9454  5.1362  2.7814  2.5888  1.8862  1.8862  1.3135  1.3135  0.9775  0.9775
  0.7667  0.7667  0.7227  0.6775  0.4444  0.4749  0.5885  0.5648  0.5157  0.5157

 Free energy of the ion-electron system (eV)
  ---------------------------------------------------
  alpha Z        PSCENC =        41.16232785
  Ewald energy   TEWEN  =     16128.86811688
  -Hartree energ DENC   =    -33111.50515283
  -exchange      EXHF   =         0.00000000
  -V(xc)+E(xc)   XCENC  =       615.40655723
  PAW double counting   =     17634.95988577   -19033.40365999
  entropy T*S    EENTRO =         0.00781437
  eigenvalues    EBANDS =      -986.32891898
  atomic energy  EATOM  =     18662.21924712
  Solvation  Ediel_sol  =         0.00000000
  ---------------------------------------------------
  free energy    TOTEN  =       -48.61378258 eV

  energy without entropy =      -48.62159695  energy(sigma->0) =      -48.61638737


--------------------------------------------------------------------------------------------------------




--------------------------------------- Iteration      1(  26)  ---------------------------------------


    POTLOK:  cpu time    1.1679: real time    1.1685
    SETDIJ:  cpu time    0.0176: real time    0.0176
    EDDIAG:  cpu time    1.0909: real time    1.0912
  RMM-DIIS:  cpu time    6.3025: real time    6.3044
    ORTHCH:  cpu time    0.0560: real time    0.0560
       DOS:  cpu time    0.0005: real time    0.0005
    CHARGE:  cpu time    0.6511: real time    0.6514
    MIXING:  cpu time    0.0476: real time    0.0476
    --------------------------------------------
      LOOP:  cpu time    9.3341: real time    9.3372

 eigenvalue-minimisations  :   383
 total energy-change (2. order) :-0.2951248E-04  (-0.2899750E-06)
 number of electron     153.0000018 magnetization       1.0000000
 augmentation part       92.4212479 magnetization       0.0778460

 Broyden mixing:
  rms(total) = 0.67603E-04    rms(broyden)= 0.67600E-04
  rms(prec ) = 0.99000E-04
  weight for this iteration     100.00

 eigenvalues of (default mixing * dielectric matrix)
  average eigenvalue GAMMA=   1.6508
  8.0976  5.5074  3.1119  2.5291  2.0375  1.8697  1.3708  1.3708  0.9849  0.9849
  0.7881  0.7881  0.7389  0.7389  0.4444  0.6166  0.6166  0.4749  0.5638  0.5154
  0.5154

 Free energy of the ion-electron system (eV)
  ---------------------------------------------------
  alpha Z        PSCENC =        41.16232785
  Ewald energy   TEWEN  =     16128.86811688
  -Hartree energ DENC   =    -33111.50599571
  -exchange      EXHF   =         0.00000000
  -V(xc)+E(xc)   XCENC  =       615.40654392
  PAW double counting   =     17634.92965331   -19033.37275625
  entropy T*S    EENTRO =         0.00781424
  eigenvalues    EBANDS =      -986.32876344
  atomic energy  EATOM  =     18662.21924712
  Solvation  Ediel_sol  =         0.00000000
  ---------------------------------------------------
  free energy    TOTEN  =       -48.61381209 eV

  energy without entropy =      -48.62162633  energy(sigma->0) =      -48.61641683


--------------------------------------------------------------------------------------------------------




--------------------------------------- Iteration      1(  27)  ---------------------------------------


    POTLOK:  cpu time    1.1675: real time    1.1690
    SETDIJ:  cpu time    0.0176: real time    0.0176
    EDDIAG:  cpu time    1.0931: real time    1.0934
  RMM-DIIS:  cpu time    4.5979: real time    4.5993
    ORTHCH:  cpu time    0.0562: real time    0.0564
       DOS:  cpu time    0.0004: real time    0.0004
    CHARGE:  cpu time    0.6501: real time    0.6501
    MIXING:  cpu time    0.0511: real time    0.0511
    --------------------------------------------
      LOOP:  cpu time    7.6339: real time    7.6374

 eigenvalue-minimisations  :   267
 total energy-change (2. order) :-0.9885178E-05  (-0.9097087E-07)
 number of electron     153.0000018 magnetization       1.0000000
 augmentation part       92.4210603 magnetization       0.0778392

 Broyden mixing:
  rms(total) = 0.52637E-04    rms(broyden)= 0.52632E-04
  rms(prec ) = 0.75070E-04
  weight for this iteration     100.00

 eigenvalues of (default mixing * dielectric matrix)
  average eigenvalue GAMMA=   1.6484
  8.1384  5.7351  3.2597  2.5188  2.1813  1.5982  1.5982  1.2508  1.2508  0.9978
  0.9978  0.7714  0.7714  0.7284  0.7284  0.4444  0.6182  0.6182  0.4750  0.5157
  0.5157  0.5518

 Free energy of the ion-electron system (eV)
  ---------------------------------------------------
  alpha Z        PSCENC =        41.16232785
  Ewald energy   TEWEN  =     16128.86811688
  -Hartree energ DENC   =    -33111.51544369
  -exchange      EXHF   =         0.00000000
  -V(xc)+E(xc)   XCENC  =       615.40671573
  PAW double counting   =     17634.93983046   -19033.38491958
  entropy T*S    EENTRO =         0.00781424
  eigenvalues    EBANDS =      -986.31751098
  atomic energy  EATOM  =     18662.21924712
  Solvation  Ediel_sol  =         0.00000000
  ---------------------------------------------------
  free energy    TOTEN  =       -48.61382197 eV

  energy without entropy =      -48.62163621  energy(sigma->0) =      -48.61642672


--------------------------------------------------------------------------------------------------------




--------------------------------------- Iteration      1(  28)  ---------------------------------------


    POTLOK:  cpu time    1.1665: real time    1.1671
    SETDIJ:  cpu time    0.0177: real time    0.0177
    EDDIAG:  cpu time    1.0917: real time    1.0920
  RMM-DIIS:  cpu time    4.5039: real time    4.5052
    ORTHCH:  cpu time    0.0562: real time    0.0562
       DOS:  cpu time    0.0004: real time    0.0004
    CHARGE:  cpu time    0.6495: real time    0.6497
    MIXING:  cpu time    0.0551: real time    0.0551
[...]
     66      -4.9195      1.00000
     67      -4.8889      1.00000
     68      -4.8516      1.00000
     69      -4.8414      1.00000
     70      -4.8208      1.00000
     71      -4.7839      1.00000
     72      -4.7743      1.00000
     73      -4.7084      1.00000
     74      -4.5105      1.00000
     75      -4.2097      1.00000
     76      -4.0875      1.00000
     77      -3.5759      1.00000
     78      -3.0129     -0.00000
     79      -2.7843     -0.00000
     80      -2.6213     -0.00000
     81      -2.3824     -0.00000
     82      -1.9415     -0.00000
     83      -1.8907     -0.00000
     84      -1.7739     -0.00000
     85      -1.4943     -0.00000
     86      -1.1087     -0.00000
     87      -0.9136     -0.00000
     88      -0.6839      0.00000
     89      -0.4400      0.00000
     90      -0.2708      0.00000
     91      -0.0809      0.00000
     92       0.1136      0.00000

 spin component 2

 k-point     1 :       0.0000    0.0000    0.0000
  band No.  band energies     occupation 
      1     -28.5514      1.00000
      2     -13.8223      1.00000
      3     -11.3421      1.00000
      4     -11.1974      1.00000
      5     -10.8000      1.00000
      6     -10.0748      1.00000
      7      -8.6412      1.00000
      8      -8.0383      1.00000
      9      -7.6326      1.00000
     10      -7.4503      1.00000
     11      -7.4022      1.00000
     12      -7.2287      1.00000
     13      -7.1347      1.00000
     14      -7.0712      1.00000
     15      -6.9429      1.00000
     16      -6.8702      1.00000
     17      -6.7741      1.00000
     18      -6.7204      1.00000
     19      -6.6115      1.00000
     20      -6.5247      1.00000
     21      -6.5114      1.00000
     22      -6.5027      1.00000
     23      -6.4629      1.00000
     24      -6.4167      1.00000
     25      -6.3590      1.00000
     26      -6.3133      1.00000
     27      -6.2565      1.00000
     28      -6.2483      1.00000
     29      -6.2007      1.00000
     30      -6.1603      1.00000
     31      -6.1323      1.00000
     32      -6.0810      1.00000
     33      -6.0653      1.00000
     34      -5.9705      1.00000
     35      -5.8925      1.00000
     36      -5.8134      1.00000
     37      -5.7682      1.00000
     38      -5.6908      1.00000
     39      -5.6473      1.00000
     40      -5.6163      1.00000
     41      -5.5792      1.00000
     42      -5.5201      1.00000
     43      -5.5020      1.00000
     44      -5.4559      1.00000
     45      -5.4272      1.00000
     46      -5.3683      1.00000
     47      -5.3512      1.00000
     48      -5.3074      1.00000
     49      -5.2990      1.00000
     50      -5.2735      1.00000
     51      -5.2594      1.00000
     52      -5.2274      1.00000
     53      -5.1963      1.00000
     54      -5.1708      1.00000
     55      -5.1576      1.00000
     56      -5.1231      1.00000
     57      -5.1162      1.00000
     58      -5.0779      1.00000
     59      -5.0705      1.00000
     60      -5.0436      1.00000
     61      -5.0115      1.00000
     62      -4.9807      1.00000
     63      -4.9604      1.00000
     64      -4.9572      1.00000
     65      -4.9029      1.00000
     66      -4.8888      1.00000
     67      -4.8641      1.00000
     68      -4.8164      1.00000
     69      -4.8019      1.00000
     70      -4.7885      1.00000
     71      -4.7518      1.00000
     72      -4.7440      1.00000
     73      -4.6837      1.00000
     74      -4.4712      1.00000
     75      -4.1492      1.01603
     76      -4.0509      0.98397
     77      -3.3610     -0.00000
     78      -2.9574     -0.00000
     79      -2.7299     -0.00000
     80      -2.5457     -0.00000
     81      -2.2900     -0.00000
     82      -1.9092     -0.00000
     83      -1.8085     -0.00000
     84      -1.7059     -0.00000
     85      -1.3958     -0.00000
     86      -0.9781      0.00000
     87      -0.8358      0.00000
     88      -0.6172      0.00000
     89      -0.3383      0.00000
     90      -0.2133      0.00000
     91      -0.0179      0.00000
     92       0.1799      0.00000


--------------------------------------------------------------------------------------------------------


 soft charge-density along one line, spin component           1
         0         1         2         3         4         5         6         7         8         9
 total charge-density along one line
 
 soft charge-density along one line, spin component           2
         0         1         2         3         4         5         6         7         8         9
 total charge-density along one line
 
 pseudopotential strength for first ion, spin component:           1
-10.473   0.001  -0.017  -0.004  -0.011   0.985  -0.001   0.015
  0.001 -10.442  -0.008   0.010   0.009  -0.001   0.961   0.006
 -0.017  -0.008 -10.428   0.002  -0.004   0.015   0.006   0.949
 -0.004   0.010   0.002 -10.438  -0.005   0.003  -0.010  -0.001
 -0.011   0.009  -0.004  -0.005 -10.458   0.008  -0.007   0.004
  0.985  -0.001   0.015   0.003   0.008   6.318   0.001  -0.012
 -0.001   0.961   0.006  -0.010  -0.007   0.001   6.331  -0.004
  0.015   0.006   0.949  -0.001   0.004  -0.012  -0.004   6.341
  0.003  -0.010  -0.001   0.956   0.004  -0.002   0.009   0.001
  0.008  -0.007   0.004   0.004   0.973  -0.006   0.005  -0.004
 -0.007   0.002  -0.006   0.000  -0.003   0.005  -0.000  -0.000
 -0.014   0.004  -0.010   0.000  -0.006   0.010  -0.000  -0.001
 -0.013  -0.001   0.006  -0.000   0.011   0.008   0.001  -0.003
 -0.000  -0.009  -0.001  -0.012   0.000   0.000   0.005   0.001
 -0.008  -0.000   0.008  -0.001  -0.013   0.003   0.000  -0.006
 -0.013  -0.001   0.006  -0.000   0.013   0.008   0.001  -0.004
 -0.000  -0.010  -0.001  -0.013  -0.000   0.001   0.004   0.001
 -0.008  -0.000   0.008  -0.001  -0.014   0.002   0.001  -0.006
 pseudopotential strength for first ion, spin component:           2
-10.434  -0.001  -0.010  -0.013   0.003   0.953   0.000   0.008
 -0.001 -10.430  -0.009   0.009   0.007   0.000   0.950   0.007
 -0.010  -0.009 -10.416   0.001  -0.002   0.008   0.007   0.939
 -0.013   0.009   0.001 -10.424  -0.008   0.010  -0.007  -0.001
  0.003   0.007  -0.002  -0.008 -10.443  -0.002  -0.005   0.002
  0.953   0.000   0.008   0.010  -0.002   6.337   0.000  -0.006
  0.000   0.950   0.007  -0.007  -0.005   0.000   6.336  -0.005
  0.008   0.007   0.939  -0.001   0.002  -0.006  -0.005   6.345
  0.010  -0.007  -0.001   0.945   0.005  -0.006   0.005   0.001
 -0.002  -0.005   0.002   0.005   0.960   0.001   0.003  -0.002
 -0.003   0.003  -0.003   0.000  -0.001   0.001   0.000  -0.001
 -0.006   0.005  -0.005  -0.000  -0.002   0.001   0.000  -0.002
 -0.014  -0.001   0.006   0.000   0.010   0.012   0.000  -0.005
  0.000  -0.010  -0.001  -0.014   0.000  -0.000   0.007  -0.000
 -0.010   0.000   0.008   0.000  -0.014   0.007  -0.000  -0.008
 -0.016  -0.000   0.007   0.001   0.011   0.014  -0.000  -0.005
  0.001  -0.011  -0.000  -0.015   0.001  -0.000   0.007  -0.001
 -0.012   0.001   0.010   0.001  -0.016   0.008  -0.000  -0.009
 total augmentation occupancy for first ion, spin component:           1
  1.932   0.006  -0.007  -0.000  -0.005  -0.013  -0.001   0.007   0.002   0.004  -0.017   0.013   0.037   0.001   0.028  -0.020
  0.006   1.929  -0.007   0.008   0.001  -0.001  -0.021   0.004  -0.002  -0.001  -0.005  -0.002   0.004   0.034  -0.002  -0.002
 -0.007  -0.007   1.949   0.003  -0.004   0.007   0.004  -0.028  -0.003   0.001  -0.004   0.009  -0.008   0.000  -0.022   0.007
 -0.000   0.008   0.003   1.939  -0.005   0.002  -0.002  -0.003  -0.022   0.004   0.009   0.001   0.008   0.057   0.006  -0.000
 -0.005   0.001  -0.004  -0.005   1.938   0.004  -0.001   0.002   0.004  -0.015  -0.007   0.006  -0.006   0.008   0.039   0.012
 -0.013  -0.001   0.007   0.002   0.004   0.013   0.000   0.002   0.001   0.001  -0.027   0.000   0.021   0.002   0.005  -0.001
 -0.001  -0.021   0.004  -0.002  -0.001   0.000   0.007   0.000   0.001  -0.001   0.014  -0.002   0.002   0.010   0.002  -0.000
  0.007   0.004  -0.028  -0.003   0.002   0.002   0.000   0.006  -0.000   0.000  -0.039   0.005  -0.003  -0.001  -0.009   0.000
  0.002  -0.002  -0.003  -0.022   0.004   0.001   0.001  -0.000   0.008  -0.000  -0.000   0.000   0.000   0.018   0.000  -0.000
  0.004  -0.001   0.001   0.004  -0.015   0.001  -0.001   0.000  -0.000   0.011  -0.006  -0.001  -0.017  -0.003   0.022   0.001
 -0.017  -0.005  -0.004   0.009  -0.007  -0.027   0.014  -0.039  -0.000  -0.006   1.590  -0.108   0.093   0.011   0.189  -0.014
  0.013  -0.002   0.009   0.001   0.006   0.000  -0.002   0.005   0.000  -0.001  -0.108   0.013  -0.014   0.000  -0.026   0.001
  0.037   0.004  -0.008   0.008  -0.006   0.021   0.002  -0.003   0.000  -0.017   0.093  -0.014   0.163   0.007  -0.038  -0.010
  0.001   0.034   0.000   0.057   0.008   0.002   0.010  -0.001   0.018  -0.003   0.011   0.000   0.007   0.077  -0.004  -0.001
  0.028  -0.002  -0.022   0.006   0.039   0.005   0.002  -0.009   0.000   0.022   0.189  -0.026  -0.038  -0.004   0.135   0.001
 -0.020  -0.002   0.007  -0.000   0.012  -0.001  -0.000   0.000  -0.000   0.001  -0.014   0.001  -0.010  -0.001   0.001   0.001
 -0.000  -0.013  -0.001  -0.022   0.000  -0.000  -0.000   0.000  -0.001   0.000  -0.001   0.000  -0.001  -0.005   0.000   0.000
 -0.013  -0.000   0.011  -0.001  -0.020   0.000  -0.000   0.001   0.000  -0.001  -0.026   0.003   0.001   0.000  -0.010   0.000
 total augmentation occupancy for first ion, spin component:           2
  0.017  -0.002   0.001  -0.005   0.008  -0.002   0.000  -0.002   0.001  -0.002   0.039   0.007  -0.013   0.006  -0.016  -0.001
 -0.002   0.001  -0.000   0.002  -0.001   0.000   0.002  -0.000   0.001   0.000  -0.004  -0.001   0.002  -0.003   0.002   0.000
  0.001  -0.000   0.001  -0.001   0.000  -0.002  -0.000   0.002   0.000  -0.001   0.004   0.000   0.000   0.003   0.000   0.000
 -0.005   0.002  -0.001   0.003  -0.002   0.001   0.001   0.000   0.002   0.000  -0.012  -0.002   0.003  -0.006   0.006   0.000
  0.008  -0.001   0.000  -0.002   0.003  -0.002   0.000  -0.001   0.000   0.002   0.017   0.003  -0.002   0.002  -0.010  -0.000
 -0.002   0.000  -0.002   0.001  -0.002   0.001  -0.000   0.000  -0.000   0.000  -0.008  -0.001   0.002  -0.001   0.004   0.000
  0.000   0.002  -0.000   0.001   0.000  -0.000  -0.000   0.000  -0.000  -0.000   0.000   0.000   0.000   0.000  -0.000  -0.000
 -0.002  -0.000   0.002   0.000  -0.001   0.000   0.000  -0.000  -0.000   0.000  -0.002  -0.000   0.000  -0.000   0.001   0.000
  0.001   0.001   0.000   0.002   0.000  -0.000  -0.000  -0.000  -0.000  -0.000   0.002   0.000  -0.001   0.000  -0.001  -0.000
 -0.002   0.000  -0.001   0.000   0.002   0.000  -0.000   0.000  -0.000  -0.000  -0.004  -0.000   0.002  -0.001   0.001  -0.000
  0.039  -0.004   0.004  -0.012   0.017  -0.008   0.000  -0.002   0.002  -0.004   0.107   0.006  -0.026   0.017  -0.039  -0.000
  0.007  -0.001   0.000  -0.002   0.003  -0.001   0.000  -0.000   0.000  -0.000   0.006   0.001  -0.001   0.001  -0.002  -0.000
 -0.013   0.002   0.000   0.003  -0.002   0.002   0.000   0.000  -0.001   0.002  -0.026  -0.001   0.006  -0.003   0.006   0.000
  0.006  -0.003   0.003  -0.006   0.002  -0.001   0.000  -0.000   0.000  -0.001   0.017   0.001  -0.003   0.002  -0.004  -0.000
 -0.016   0.002   0.000   0.006  -0.010   0.004  -0.000   0.001  -0.001   0.001  -0.039  -0.002   0.006  -0.004   0.011   0.000
 -0.001   0.000   0.000   0.000  -0.000   0.000  -0.000   0.000  -0.000  -0.000  -0.000  -0.000   0.000  -0.000   0.000   0.000
  0.000  -0.001   0.000  -0.001   0.000   0.000  -0.000  -0.000  -0.000  -0.000  -0.000   0.000   0.000   0.000  -0.000  -0.000
 -0.001   0.000   0.001   0.001  -0.001   0.000   0.000   0.000  -0.000   0.000  -0.000  -0.000   0.000  -0.000   0.000   0.000


------------------------ aborting loop because EDIFF is reached ----------------------------------------


    CHARGE:  cpu time    0.6506: real time    0.6509
    FORLOC:  cpu time    0.0647: real time    0.0647
    FORNL :  cpu time    1.5361: real time    1.5365
    STRESS:  cpu time    6.1470: real time    6.1606
    FORCOR:  cpu time    1.1719: real time    1.1721
    FORHAR:  cpu time    0.1910: real time    0.1910
    MIXING:  cpu time    0.1106: real time    0.1107
    OFIELD:  cpu time    0.0001: real time    0.0001

  FORCE on cell =-STRESS in cart. coord.  units (eV):
  Direction    XX          YY          ZZ          XY          YZ          ZX
  --------------------------------------------------------------------------------------
  Alpha Z    41.16233    41.16233    41.16233
  Ewald   10197.92245  7412.75799 -1481.82832  -801.64793   303.35525   119.28761
  Hartree 15313.57211 12895.13476  4902.81246  -738.06554   277.03557    46.69637
  E(xc)    -876.25452  -877.76552  -879.36325    -0.09491     0.02423     0.35955
  Local  -26905.99655-21737.15498 -4857.11134  1540.75902  -580.35993  -157.98263
  n-local  -330.79010  -322.34793  -328.25564    -0.60677    -0.32204    -0.03746
  augment  1222.31738  1225.91511  1232.10663    -0.68345    -0.18990    -1.90734
  Kinetic  1336.73368  1362.75409  1369.35068     0.31574    -0.27252    -5.61631
  Fock        0.00000     0.00000     0.00000     0.00000     0.00000     0.00000
  -------------------------------------------------------------------------------------
  Total      -1.33322     0.45584    -1.12645    -0.02384    -0.72933     0.79978
  in kB      -0.63290     0.21640    -0.53475    -0.01132    -0.34623     0.37967
  external pressure =       -0.32 kB  Pullay stress =        0.00 kB


 VOLUME and BASIS-vectors are now :
 -----------------------------------------------------------------------------
  energy-cutoff  :      600.00
  volume of cell :     3375.00
      direct lattice vectors                 reciprocal lattice vectors
    15.000000000  0.000000000  0.000000000     0.066666667  0.000000000  0.000000000
     0.000000000 15.000000000  0.000000000     0.000000000  0.066666667  0.000000000
     0.000000000  0.000000000 15.000000000     0.000000000  0.000000000  0.066666667

  length of vectors
    15.000000000 15.000000000 15.000000000     0.066666667  0.066666667  0.066666667


 FORCES acting on ions
    electron-ion (+dipol)            ewald-force                    non-local-force                 convergence-correction
 -----------------------------------------------------------------------------------------------
   0.109E+04 0.665E+03 -.302E+02   -.109E+04 -.662E+03 0.306E+02   -.513E+01 -.277E+01 -.586E+00   0.139E-04 0.261E-04 -.487E-05
   0.455E+03 -.294E+03 0.931E+03   -.452E+03 0.292E+03 -.931E+03   -.244E+01 0.144E+01 0.143E-01   -.526E-05 -.922E-05 0.249E-05
   0.289E+03 0.130E+04 -.193E+03   -.287E+03 -.129E+04 0.192E+03   -.207E+01 -.896E+01 0.227E+01   0.231E-04 0.605E-05 0.657E-06
   -.824E+03 -.175E+03 0.888E+03   0.823E+03 0.174E+03 -.883E+03   0.165E+01 0.151E+01 -.423E+01   -.157E-04 -.318E-05 0.237E-04
   -.861E+03 0.999E+03 0.860E+02   0.857E+03 -.993E+03 -.857E+02   0.454E+01 -.590E+01 -.340E+00   -.150E-05 0.723E-05 0.890E-05
   -.129E+03 0.487E+03 -.940E+03   0.127E+03 -.484E+03 0.940E+03   0.190E+01 -.299E+01 0.382E+00   -.451E-05 0.709E-05 -.701E-05
   0.187E+03 0.622E+03 0.122E+04   -.185E+03 -.618E+03 -.121E+04   -.160E+01 -.351E+01 -.627E+01   -.342E-06 0.247E-04 0.279E-04
   0.124E+04 -.334E+03 0.148E+03   -.123E+04 0.332E+03 -.146E+03   -.916E+01 0.241E+01 -.310E+01   0.127E-04 -.339E-05 -.943E-05
   0.586E+03 -.199E+03 -.121E+04   -.582E+03 0.199E+03 0.120E+04   -.331E+01 0.123E+00 0.682E+01   0.101E-04 -.359E-05 -.369E-04
   0.438E+03 -.126E+04 -.134E+03   -.435E+03 0.126E+04 0.133E+03   -.270E+01 0.691E+01 0.191E+01   0.580E-05 -.608E-05 -.889E-05
   -.487E+03 -.101E+04 0.693E+03   0.482E+03 0.100E+04 -.687E+03   0.532E+01 0.589E+01 -.633E+01   -.201E-04 -.301E-05 0.254E-04
   -.867E+03 -.387E+02 -.309E+03   0.865E+03 0.369E+02 0.306E+03   0.192E+01 0.167E+01 0.360E+01   0.123E-04 -.998E-05 0.719E-05
   -.589E+03 -.738E+03 -.856E+03   0.585E+03 0.734E+03 0.853E+03   0.429E+01 0.467E+01 0.206E+01   -.750E-05 -.214E-04 -.177E-04
   -.799E+02 -.334E+02 -.136E+03   0.591E+02 0.344E+02 0.134E+03   0.204E+02 -.120E+01 0.183E+01   0.448E-06 -.163E-05 -.386E-05
   -.404E+03 0.394E+01 -.145E+03   0.463E+03 -.691E+01 0.152E+03   -.591E+02 0.306E+01 -.773E+01   0.377E-05 -.585E-07 -.404E-05
 -----------------------------------------------------------------------------------------------
   0.455E+02 -.235E+01 0.970E+01   0.341E-12 -.959E-13 0.199E-12   -.455E+02 0.235E+01 -.970E+01   0.272E-04 0.963E-05 0.362E-05
 
 
 POSITION                                       TOTAL-FORCE (eV/Angst)
 -----------------------------------------------------------------------------------
      4.35488      6.22470      8.36806         0.094692      0.444817     -0.146621
      5.66276      8.25306      7.34549        -0.321826     -0.697131      0.007954
      5.97092      4.39089      8.36989        -0.118542     -0.652719      0.592860
      7.97716      7.50550      7.20668         0.087293      0.675901      0.116262
      8.25304      5.26267      8.04164         0.391336     -0.063237     -0.022986
      6.62570      6.57499      9.16895         0.186952     -0.325005     -0.012795
      6.31940      5.88471      6.70473        -0.333925      0.592950     -0.234362
      3.35679      8.54564      8.29871        -0.118795      0.067456     -0.498966
      4.94932      8.20715      9.87024         0.371939     -0.178951      0.065290
      5.29066     10.24040      8.47637        -0.239101      0.217530      0.276068
      7.24751     10.04460      7.05541         0.126219     -0.406051      0.415894
      9.52656      7.32046      8.98452        -0.130225     -0.069003      0.418131
      7.19274      8.82558      9.31329         0.481364      0.496230     -0.593971
     11.16480      7.48118      9.90784        -0.355319     -0.196385     -0.488252
     12.30950      7.42588     10.06210        -0.122062      0.093599      0.105495
 -----------------------------------------------------------------------------------
    total drift:                               -0.000568     -0.003990      0.002369


--------------------------------------------------------------------------------------------------------



  FREE ENERGIE OF THE ION-ELECTRON SYSTEM (eV)
  ---------------------------------------------------
  free  energy   TOTEN  =       -48.61383360 eV

  energy  without entropy=      -48.62164778  energy(sigma->0) =      -48.61643833
 


--------------------------------------------------------------------------------------------------------


    POTLOK:  cpu time    1.1860: real time    1.1865


--------------------------------------------------------------------------------------------------------


     LOOP+:  cpu time  349.8271: real time  350.0102
    4ORBIT:  cpu time    0.0000: real time    0.0000

 total amount of memory used by VASP MPI-rank0   158680. kBytes
=======================================================================

   base      :      30000. kBytes
   nonl-proj :      12601. kBytes
   fftplans  :      27994. kBytes
   grid      :      74150. kBytes
   one-center:         93. kBytes
   wavefun   :      13842. kBytes
 
  
  
 General timing and accounting informations for this job:
 ========================================================
  
                  Total CPU time used (sec):      353.940
                            User time (sec):      341.138
                          System time (sec):       12.802
                         Elapsed time (sec):      354.158
  
                   Maximum memory used (kb):      279392.
                   Average memory used (kb):           0.
  
                          Minor page faults:       294397
                          Major page faults:            0
                 Voluntary context switches:          633
