<?xml version="1.0" encoding="ISO-8859-1"?>
<modeling>
 <generator>
  <i name="program" type="string">vasp </i>
  <i name="version" type="string">5.4.4.18Apr17-6-g9f103f2a35  </i>
  <i name="subversion" type="string">(build May 08 2019 13:49:07) complex            parallel </i>
  <i name="platform" type="string">LinuxIFC </i>
  <i name="date" type="string">2019 11 13 </i>
  <i name="time" type="string">13:55:14 </i>
 </generator>
 <incar>
  <i type="string" name="SYSTEM"> CuCO</i>
  <i type="int" name="ISTART">     0</i>
  <i type="string" name="PREC">accurate</i>
  <i type="string" name="ALGO"> Fast</i>
  <i type="int" name="ISPIN">     2</i>
  <i type="int" name="INIWAV">     1</i>
  <i type="int" name="NELM">   300</i>
  <i type="int" name="NELMIN">     3</i>
  <i type="int" name="IBRION">    -1</i>
  <i name="EDIFF">      0.00000010</i>
  <i name="EDIFFG">     -0.00100000</i>
  <i type="int" name="NSW">     0</i>
  <i type="int" name="ISYM">     0</i>
  <i name="ENCUT">    600.00000000</i>
  <i name="NUPDOWN">      1.00000000</i>
  <i type="logical" name="LREAL"> F  </i>
  <i type="int" name="ISMEAR">     1</i>
  <i name="SIGMA">      0.10000000</i>
  <i name="KSPACING">      0.50000000</i>
  <i type="logical" name="KGAMMA"> F  </i>
  <i type="logical" name="LWAVE"> F  </i>
  <i type="logical" name="LCHARG"> F  </i>
  <v type="int" name="KPOINT_BSE">    -1     0     0     0</v>
  <i type="int" name="NELM">   300</i>
  <i type="string" name="GGA"> PE</i>
 </incar>
 <structure name="primitive_cell" >
  <crystal>
   <varray name="basis" >
    <v>      15.00000000       0.00000000       0.00000000 </v>
    <v>       0.00000000      15.00000000       0.00000000 </v>
    <v>       0.00000000       0.00000000      15.00000000 </v>
   </varray>
   <i name="volume">   3375.00000000 </i>
   <varray name="rec_basis" >
    <v>       0.06666667       0.00000000       0.00000000 </v>
    <v>       0.00000000       0.06666667       0.00000000 </v>
    <v>       0.00000000       0.00000000       0.06666667 </v>
   </varray>
  </crystal>
  <varray name="positions" >
   <v>       0.29032533       0.41498000      -0.44212933 </v>
   <v>       0.44171333       0.43833267      -0.38873667 </v>
   <v>       0.39806133       0.29272600      -0.44200733 </v>
   <v>       0.22378600      -0.43029067      -0.44675267 </v>
   <v>       0.32995467      -0.45285667      -0.34198400 </v>
   <v>       0.42129333       0.39231400       0.44698200 </v>
   <v>       0.37751733      -0.44979600       0.48969933 </v>
   <v>       0.47951600      -0.41162800      -0.37911400 </v>
   <v>      -0.46818933      -0.49963333       0.48044533 </v>
   <v>      -0.44979733       0.35084467      -0.46389067 </v>
   <v>       0.35271067      -0.31730667      -0.43490867 </v>
   <v>       0.48316733      -0.33036000       0.47036067 </v>
   <v>      -0.36489600       0.48803067      -0.40103200 </v>
   <v>      -0.25568000       0.49874533      -0.33947733 </v>
   <v>      -0.17936667       0.49505867      -0.32919333 </v>
  </varray>
 </structure>
 <varray name="primitive_index" >
  <v type="int" >        1 </v>
  <v type="int" >        6 </v>
  <v type="int" >        3 </v>
  <v type="int" >        8 </v>
  <v type="int" >        9 </v>
  <v type="int" >        7 </v>
  <v type="int" >        2 </v>
  <v type="int" >       13 </v>
  <v type="int" >        4 </v>
  <v type="int" >        5 </v>
  <v type="int" >       10 </v>
  <v type="int" >       11 </v>
  <v type="int" >       12 </v>
  <v type="int" >       14 </v>
  <v type="int" >       15 </v>
 </varray>
 <kpoints>
  <generation param="Monkhorst-Pack">
   <v type="int" name="divisions">       1        1        1 </v>
   <v name="usershift">      0.00000000       0.00000000       0.00000000 </v>
   <v name="genvec1">      1.00000000       0.00000000       0.00000000 </v>
   <v name="genvec2">      0.00000000       1.00000000       0.00000000 </v>
   <v name="genvec3">      0.00000000       0.00000000       1.00000000 </v>
   <v name="shift">      0.00000000       0.00000000       0.00000000 </v>
  </generation>
  <varray name="kpointlist" >
   <v>       0.00000000       0.00000000       0.00000000 </v>
  </varray>
  <varray name="weights" >
   <v>       1.00000000 </v>
  </varray>
 </kpoints>
 <parameters>
  <separator name="general" >
   <i type="string" name="SYSTEM">CuCO</i>
   <i type="logical" name="LCOMPAT"> F  </i>
  </separator>
  <separator name="electronic" >
   <i type="string" name="PREC">accura</i>
   <i name="ENMAX">    600.00000000</i>
   <i name="ENAUG">    644.87300000</i>
   <i name="EDIFF">      0.00000010</i>
   <i type="int" name="IALGO">    68</i>
   <i type="int" name="IWAVPR">    10</i>
   <i type="int" name="NBANDS">    92</i>
   <i name="NELECT">    153.00000000</i>
   <i type="int" name="TURBO">     0</i>
   <i type="int" name="IRESTART">     0</i>
   <i type="int" name="NREBOOT">     0</i>
   <i type="int" name="NMIN">     0</i>
   <i name="EREF">      0.00000000</i>
   <separator name="electronic smearing" >
    <i type="int" name="ISMEAR">     1</i>
    <i name="SIGMA">      0.10000000</i>
    <i name="KSPACING">      0.50000000</i>
    <i type="logical" name="KGAMMA"> F  </i>
   </separator>
   <separator name="electronic projectors" >
    <i type="logical" name="LREAL"> F  </i>
    <v name="ROPT">      0.00000000      0.00000000      0.00000000</v>
    <i type="int" name="LMAXPAW">  -100</i>
    <i type="int" name="LMAXMIX">     2</i>
    <i type="logical" name="NLSPLINE"> F  </i>
   </separator>
   <separator name="electronic startup" >
    <i type="int" name="ISTART">     0</i>
    <i type="int" name="ICHARG">     2</i>
    <i type="int" name="INIWAV">     1</i>
   </separator>
   <separator name="electronic spin" >
    <i type="int" name="ISPIN">     2</i>
    <i type="logical" name="LNONCOLLINEAR"> F  </i>
    <v name="MAGMOM">      0.06666667      0.06666667      0.06666667      0.06666667      0.06666667      0.06666667      0.06666667      0.06666667      0.06666667      0.06666667      0.06666667      0.06666667      0.06666667      0.06666667      0.06666667</v>
    <i name="NUPDOWN">      1.00000000</i>
    <i type="logical" name="LSORBIT"> F  </i>
    <v name="SAXIS">      0.00000000      0.00000000      1.00000000</v>
    <i type="logical" name="LSPIRAL"> F  </i>
    <v name="QSPIRAL">      0.00000000      0.00000000      0.00000000</v>
    <i type="logical" name="LZEROZ"> F  </i>
   </separator>
   <separator name="electronic exchange-correlation" >
    <i type="logical" name="LASPH"> F  </i>
    <i type="logical" name="LMETAGGA"> F  </i>
   </separator>
   <separator name="electronic convergence" >
    <i type="int" name="NELM">   300</i>
    <i type="int" name="NELMDL">    -5</i>
    <i type="int" name="NELMIN">     3</i>
    <i name="ENINI">    600.00000000</i>
    <separator name="electronic convergence detail" >
     <i type="logical" name="LDIAG"> T  </i>
     <i type="logical" name="LSUBROT"> F  </i>
     <i name="WEIMIN">      0.00000000</i>
     <i name="EBREAK">      0.00000000</i>
     <i name="DEPER">      0.30000000</i>
     <i type="int" name="NRMM">     4</i>
     <i name="TIME">      0.40000000</i>
    </separator>
   </separator>
   <separator name="electronic mixer" >
    <i name="AMIX">      0.40000000</i>
    <i name="BMIX">      1.00000000</i>
    <i name="AMIN">      0.10000000</i>
    <i name="AMIX_MAG">      1.60000000</i>
    <i name="BMIX_MAG">      1.00000000</i>
    <separator name="electronic mixer details" >
     <i type="int" name="IMIX">     4</i>
     <i type="logical" name="MIXFIRST"> F  </i>
     <i type="int" name="MAXMIX">   -45</i>
     <i name="WC">    100.00000000</i>
     <i type="int" name="INIMIX">     1</i>
     <i type="int" name="MIXPRE">     1</i>
     <i type="int" name="MREMOVE">     5</i>
    </separator>
   </separator>
   <separator name="electronic dipolcorrection" >
    <i type="logical" name="LDIPOL"> F  </i>
    <i type="logical" name="LMONO"> F  </i>
    <i type="int" name="IDIPOL">     0</i>
    <i name="EPSILON">      1.00000000</i>
    <v name="DIPOL">   -100.00000000   -100.00000000   -100.00000000</v>
    <i name="EFIELD">      0.00000000</i>
   </separator>
  </separator>
  <separator name="grids" >
   <i type="int" name="NGX">   120</i>
   <i type="int" name="NGY">   120</i>
   <i type="int" name="NGZ">   120</i>
   <i type="int" name="NGXF">   240</i>
   <i type="int" name="NGYF">   240</i>
   <i type="int" name="NGZF">   240</i>
   <i type="logical" name="ADDGRID"> F  </i>
  </separator>
  <separator name="ionic" >
   <i type="int" name="NSW">     0</i>
   <i type="int" name="IBRION">    -1</i>
   <i type="int" name="MDALGO">     0</i>
   <i type="int" name="ISIF">     2</i>
   <i name="PSTRESS">      0.00000000</i>
   <i name="EDIFFG">     -0.00100000</i>
   <i type="int" name="NFREE">     0</i>
   <i name="POTIM">      0.50000000</i>
   <i name="SMASS">     -3.00000000</i>
   <i name="SCALEE">      1.00000000</i>
  </separator>
  <separator name="ionic md" >
   <i name="TEBEG">      0.00010000</i>
   <i name="TEEND">      0.00010000</i>
   <i type="int" name="NBLOCK">     1</i>
   <i type="int" name="KBLOCK">     1</i>
   <i type="int" name="NPACO">   256</i>
   <i name="APACO">     16.00000000</i>
  </separator>
  <separator name="symmetry" >
   <i type="int" name="ISYM">     0</i>
   <i name="SYMPREC">      0.00001000</i>
  </separator>
  <separator name="dos" >
   <i type="int" name="LORBIT">     0</i>
   <v name="RWIGS">     -1.00000000     -1.00000000     -1.00000000</v>
   <i type="int" name="NEDOS">   301</i>
   <i name="EMIN">     10.00000000</i>
   <i name="EMAX">    -10.00000000</i>
   <i name="EFERMI">      0.00000000</i>
  </separator>
  <separator name="writing" >
   <i type="int" name="NWRITE">     2</i>
   <i type="logical" name="LWAVE"> F  </i>
   <i type="logical" name="LDOWNSAMPLE"> F  </i>
   <i type="logical" name="LCHARG"> F  </i>
   <i type="logical" name="LPARD"> F  </i>
   <i type="logical" name="LVTOT"> F  </i>
   <i type="logical" name="LVHAR"> F  </i>
   <i type="logical" name="LELF"> F  </i>
   <i type="logical" name="LOPTICS"> F  </i>
   <v name="STM">      0.00000000      0.00000000      0.00000000      0.00000000      0.00000000      0.00000000      0.00000000</v>
  </separator>
  <separator name="performance" >
   <i type="int" name="NPAR">     4</i>
   <i type="int" name="NSIM">     4</i>
   <i type="int" name="NBLK">    -1</i>
   <i type="logical" name="LPLANE"> T  </i>
   <i type="logical" name="LSCALAPACK"> T  </i>
   <i type="logical" name="LSCAAWARE"> F  </i>
   <i type="logical" name="LSCALU"> F  </i>
   <i type="logical" name="LASYNC"> F  </i>
   <i type="logical" name="LORBITALREAL"> F  </i>
  </separator>
  <separator name="miscellaneous" >
   <i type="int" name="IDIOT">     3</i>
   <i type="int" name="ISPECIAL">     0</i>
   <i type="logical" name="LMUSIC"> F  </i>
   <v name="POMASS">     63.54600000     12.01100000     16.00000000</v>
   <v name="DARWINR">      0.00000000      0.00000000      0.00000000</v>
   <v name="DARWINV">      1.00000000      1.00000000      1.00000000</v>
   <i type="logical" name="LCORR"> T  </i>
  </separator>
  <i type="logical" name="GGA_COMPAT"> T  </i>
  <i type="logical" name="LBERRY"> F  </i>
  <i type="int" name="ICORELEVEL">     0</i>
  <i type="logical" name="LDAU"> F  </i>
  <i type="int" name="I_CONSTRAINED_M">     0</i>
  <separator name="electronic exchange-correlation" >
   <i type="string" name="GGA">PE</i>
   <i type="int" name="VOSKOWN">     0</i>
   <i type="logical" name="LHFCALC"> F  </i>
   <i type="string" name="PRECFOCK"></i>
   <i type="logical" name="LSYMGRAD"> F  </i>
   <i type="logical" name="LHFONE"> F  </i>
   <i type="logical" name="LRHFCALC"> F  </i>
   <i type="logical" name="LTHOMAS"> F  </i>
   <i type="logical" name="LMODELHF"> F  </i>
   <i name="ENCUT4O">     -1.00000000</i>
   <i type="int" name="EXXOEP">     0</i>
   <i type="int" name="FOURORBIT">     0</i>
   <i name="AEXX">      0.00000000</i>
   <i name="HFALPHA">      0.00000000</i>
   <i name="MCALPHA">      0.00000000</i>
   <i name="ALDAX">      1.00000000</i>
   <i name="AGGAX">      1.00000000</i>
   <i name="ALDAC">      1.00000000</i>
   <i name="AGGAC">      1.00000000</i>
   <i type="int" name="NKREDX">     1</i>
   <i type="int" name="NKREDY">     1</i>
   <i type="int" name="NKREDZ">     1</i>
   <i type="logical" name="SHIFTRED"> F  </i>
   <i type="logical" name="ODDONLY"> F  </i>
   <i type="logical" name="EVENONLY"> F  </i>
   <i type="int" name="LMAXFOCK">     0</i>
   <i type="int" name="NMAXFOCKAE">     0</i>
   <i type="logical" name="LFOCKAEDFT"> F  </i>
   <i name="HFSCREEN">      0.00000000</i>
   <i name="HFSCREENC">      0.00000000</i>
   <i type="int" name="NBANDSGWLOW">     0</i>
  </separator>
  <separator name="vdW DFT" >
   <i type="logical" name="LUSE_VDW"> F  </i>
   <i name="Zab_VDW">     -0.84910000</i>
   <i name="PARAM1">      0.12340000</i>
   <i name="PARAM2">      1.00000000</i>
   <i name="PARAM3">      0.00000000</i>
  </separator>
  <separator name="model GW" >
   <i type="int" name="MODEL_GW">     0</i>
   <i name="MODEL_EPS0">    135.00000000</i>
   <i name="MODEL_ALPHA">      1.00000000</i>
  </separator>
  <separator name="linear response parameters" >
   <i type="logical" name="LEPSILON"> F  </i>
   <i type="logical" name="LRPA"> F  </i>
   <i type="logical" name="LNABLA"> F  </i>
   <i type="logical" name="LVEL"> F  </i>
   <i type="int" name="KINTER">     0</i>
   <i name="CSHIFT">      0.10000000</i>
   <i name="OMEGAMAX">     -1.00000000</i>
   <i name="DEG_THRESHOLD">      0.00200000</i>
   <i name="RTIME">     -0.10000000</i>
   <i name="WPLASMAI">      0.00000000</i>
   <v name="DFIELD">      0.00000000      0.00000000      0.00000000</v>
   <v name="WPLASMA">      0.00000000      0.00000000      0.00000000      0.00000000      0.00000000      0.00000000      0.00000000      0.00000000      0.00000000</v>
  </separator>
  <separator name="orbital magnetization" >
   <i type="logical" name="NUCIND"> F  </i>
   <v name="MAGPOS">      0.00000000      0.00000000      0.00000000</v>
   <i type="logical" name="LNICSALL"> T  </i>
   <i type="logical" name="ORBITALMAG"> F  </i>
   <i type="logical" name="LMAGBLOCH"> F  </i>
   <i type="logical" name="LCHIMAG"> F  </i>
   <i type="logical" name="LGAUGE"> T  </i>
   <i type="int" name="MAGATOM">     0</i>
   <v name="MAGDIPOL">      0.00000000      0.00000000      0.00000000</v>
   <v name="AVECCONST">      0.00000000      0.00000000      0.00000000</v>
  </separator>
  <separator name="response functions" >
   <i type="logical" name="LADDER"> F  </i>
   <i type="logical" name="LRPAFORCE"> F  </i>
   <i type="logical" name="LFXC"> F  </i>
   <i type="logical" name="LHARTREE"> T  </i>
   <i type="int" name="IBSE">     0</i>
   <v type="int" name="KPOINT">    -1     0     0     0</v>
   <i type="logical" name="LTCTE"> F  </i>
   <i type="logical" name="LTETE"> F  </i>
   <i type="logical" name="LTRIPLET"> F  </i>
   <i type="logical" name="LFXCEPS"> F  </i>
   <i type="logical" name="LFXHEG"> F  </i>
   <i type="int" name="NATURALO">     2</i>
   <i type="logical" name="L2ORDER"> F  </i>
   <i type="logical" name="LMP2LT"> F  </i>
   <i type="logical" name="LUSEW"> F  </i>
   <i name="ENCUTGW">     -2.00000000</i>
   <i name="ENCUTGWSOFT">     -2.00000000</i>
   <i name="ENCUTLF">     -1.00000000</i>
   <i type="int" name="LMAXMP2">    -1</i>
   <i name="SCISSOR">      0.00000000</i>
   <i type="int" name="NOMEGA">     0</i>
   <i type="int" name="NOMEGAR">     0</i>
   <i type="int" name="NBANDSGW">    -1</i>
   <i type="int" name="NBANDSO">    -1</i>
   <i type="int" name="NBANDSV">    -1</i>
   <i type="int" name="NELM">   300</i>
   <i type="int" name="NELMHF">     1</i>
   <i type="int" name="DIM">     3</i>
   <i type="int" name="ANTIRES">     0</i>
   <i name="OMEGAMAX">    -30.00000000</i>
   <i name="OMEGAMIN">    -30.00000000</i>
   <i name="OMEGATL">   -200.00000000</i>
   <i type="int" name="OMEGAGRID">   140</i>
   <i name="CSHIFT">     -0.10000000</i>
   <i type="logical" name="SELFENERGY"> F  </i>
   <i type="logical" name="LSPECTRAL"> F  </i>
   <i type="logical" name="LSPECTRALGW"> F  </i>
   <i type="logical" name="LSINGLES"> F  </i>
   <i type="logical" name="LFERMIGW"> F  </i>
   <i type="logical" name="ODDONLYGW"> F  </i>
   <i type="logical" name="EVENONLYGW"> F  </i>
   <i type="int" name="NKREDLFX">     1</i>
   <i type="int" name="NKREDLFY">     1</i>
   <i type="int" name="NKREDLFZ">     1</i>
   <i type="int" name="MAXMEM">  2800</i>
   <i type="int" name="TELESCOPE">     0</i>
   <i type="int" name="TAUPAR">     1</i>
   <i type="int" name="OMEGAPAR">    -1</i>
   <i name="LAMBDA">      1.00000000</i>
  </separator>
  <separator name="External order field" >
   <i name="OFIELD_KAPPA">      0.00000000</i>
   <v name="OFIELD_K">      0.00000000      0.00000000      0.00000000</v>
   <i name="OFIELD_Q6_NEAR">      0.00000000</i>
   <i name="OFIELD_Q6_FAR">      0.00000000</i>
   <i name="OFIELD_A">      0.00000000</i>
  </separator>
 </parameters>
 <atominfo>
  <atoms>      15 </atoms>
  <types>       3 </types>
  <array name="atoms" >
   <dimension dim="1">ion</dimension>
   <field type="string">element</field>
   <field type="int">atomtype</field>
   <set>
    <rc><c>Cu</c><c>   1</c></rc>
    <rc><c>Cu</c><c>   1</c></rc>
    <rc><c>Cu</c><c>   1</c></rc>
    <rc><c>Cu</c><c>   1</c></rc>
    <rc><c>Cu</c><c>   1</c></rc>
    <rc><c>Cu</c><c>   1</c></rc>
    <rc><c>Cu</c><c>   1</c></rc>
    <rc><c>Cu</c><c>   1</c></rc>
    <rc><c>Cu</c><c>   1</c></rc>
    <rc><c>Cu</c><c>   1</c></rc>
    <rc><c>Cu</c><c>   1</c></rc>
    <rc><c>Cu</c><c>   1</c></rc>
    <rc><c>Cu</c><c>   1</c></rc>
    <rc><c>C </c><c>   2</c></rc>
    <rc><c>O </c><c>   3</c></rc>
   </set>
  </array>
  <array name="atomtypes" >
   <dimension dim="1">type</dimension>
   <field type="int">atomspertype</field>
   <field type="string">element</field>
   <field>mass</field>
   <field>valence</field>
   <field type="string">pseudopotential</field>
   <set>
    <rc><c>  13</c><c>Cu</c><c>     63.54600000</c><c>     11.00000000</c><c>  PAW_PBE Cu 22Jun2005                  </c></rc>
    <rc><c>   1</c><c>C </c><c>     12.01100000</c><c>      4.00000000</c><c>  PAW_PBE C 08Apr2002                   </c></rc>
    <rc><c>   1</c><c>O </c><c>     16.00000000</c><c>      6.00000000</c><c>  PAW_PBE O 08Apr2002                   </c></rc>
   </set>
  </array>
 </atominfo>
 <structure name="initialpos" >
  <crystal>
   <varray name="basis" >
    <v>      15.00000000       0.00000000       0.00000000 </v>
    <v>       0.00000000      15.00000000       0.00000000 </v>
    <v>       0.00000000       0.00000000      15.00000000 </v>
   </varray>
   <i name="volume">   3375.00000000 </i>
   <varray name="rec_basis" >
    <v>       0.06666667       0.00000000       0.00000000 </v>
    <v>       0.00000000       0.06666667       0.00000000 </v>
    <v>       0.00000000       0.00000000       0.06666667 </v>
   </varray>
  </crystal>
  <varray name="positions" >
   <v>       0.29032533       0.41498000       0.55787067 </v>
   <v>       0.37751733       0.55020400       0.48969933 </v>
   <v>       0.39806133       0.29272600       0.55799267 </v>
   <v>       0.53181067       0.50036667       0.48044533 </v>
   <v>       0.55020267       0.35084467       0.53610933 </v>
   <v>       0.44171333       0.43833267       0.61126333 </v>
   <v>       0.42129333       0.39231400       0.44698200 </v>
   <v>       0.22378600       0.56970933       0.55324733 </v>
   <v>       0.32995467       0.54714333       0.65801600 </v>
   <v>       0.35271067       0.68269333       0.56509133 </v>
   <v>       0.48316733       0.66964000       0.47036067 </v>
   <v>       0.63510400       0.48803067       0.59896800 </v>
   <v>       0.47951600       0.58837200       0.62088600 </v>
   <v>       0.74432000       0.49874533       0.66052267 </v>
   <v>       0.82063333       0.49505867       0.67080667 </v>
  </varray>
 </structure>
 <calculation>
  <scstep>
   <time name="dav">    7.52    7.52</time>
   <time name="total">    8.72    8.72</time>
   <energy>
    <i name="alphaZ">     41.16232785 </i>
    <i name="ewald">  16128.86811688 </i>
    <i name="hartreedc"> -33152.37861757 </i>
    <i name="XCdc">    623.29267922 </i>
    <i name="pawpsdc">  16421.75059358 </i>
    <i name="pawaedc"> -17800.06104309 </i>
    <i name="eentropy">     -0.00186232 </i>
    <i name="bandstr">    191.94065428 </i>
    <i name="atom">  18662.21924712 </i>
    <i name="e_fr_energy">   1116.79209594 </i>
    <i name="e_wo_entrp">   1116.79395826 </i>
    <i name="e_0_energy">   1116.79271671 </i>
   </energy>
  </scstep>
  <scstep>
   <time name="dav">    7.38    7.38</time>
   <time name="total">    7.38    7.38</time>
   <energy>
    <i name="e_fr_energy">     86.41526203 </i>
    <i name="e_wo_entrp">     86.39989015 </i>
    <i name="e_0_energy">     86.41013807 </i>
   </energy>
  </scstep>
  <scstep>
   <time name="dav">   11.46   11.46</time>
   <time name="total">   11.46   11.46</time>
   <energy>
    <i name="e_fr_energy">    -33.68143440 </i>
    <i name="e_wo_entrp">    -33.69032681 </i>
    <i name="e_0_energy">    -33.68439854 </i>
   </energy>
  </scstep>
  <scstep>
   <time name="dav">   10.14   10.14</time>
   <time name="total">   10.14   10.15</time>
   <energy>
    <i name="e_fr_energy">    -55.27264700 </i>
    <i name="e_wo_entrp">    -55.28204287 </i>
    <i name="e_0_energy">    -55.27577896 </i>
   </energy>
  </scstep>
  <scstep>
   <time name="dav">   12.06   12.07</time>
   <time name="total">   12.75   12.75</time>
   <energy>
    <i name="e_fr_energy">    -56.78883288 </i>
    <i name="e_wo_entrp">    -56.79793589 </i>
    <i name="e_0_energy">    -56.79186722 </i>
   </energy>
  </scstep>
  <scstep>
   <time name="diag">    1.09    1.09</time>
   <time name="diis">    7.00    7.00</time>
   <time name="orth">    0.06    0.06</time>
   <time name="total">   10.02   10.03</time>
   <energy>
    <i name="e_fr_energy">    -55.73504944 </i>
    <i name="e_wo_entrp">    -55.74187595 </i>
    <i name="e_0_energy">    -55.73732494 </i>
   </energy>
  </scstep>
  <scstep>
   <time name="diag">    1.10    1.10</time>
   <time name="diis">    6.54    6.54</time>
   <time name="orth">    0.06    0.06</time>
   <time name="total">    9.55    9.56</time>
   <energy>
    <i name="e_fr_energy">    -48.96787135 </i>
    <i name="e_wo_entrp">    -48.97576447 </i>
    <i name="e_0_energy">    -48.97050239 </i>
   </energy>
  </scstep>
  <scstep>
   <time name="diag">    1.09    1.09</time>
   <time name="diis">    6.92    6.92</time>
   <time name="orth">    0.06    0.06</time>
   <time name="total">    9.95    9.96</time>
   <energy>
    <i name="e_fr_energy">    -48.73400662 </i>
    <i name="e_wo_entrp">    -48.74215026 </i>
    <i name="e_0_energy">    -48.73672117 </i>
   </energy>
  </scstep>
  <scstep>
   <time name="diag">    1.10    1.10</time>
   <time name="diis">    6.63    6.63</time>
   <time name="orth">    0.06    0.06</time>
   <time name="total">    9.65    9.65</time>
   <energy>
    <i name="e_fr_energy">    -48.67753271 </i>
    <i name="e_wo_entrp">    -48.68555365 </i>
    <i name="e_0_energy">    -48.68020635 </i>
   </energy>
  </scstep>
  <scstep>
   <time name="diag">    1.10    1.10</time>
   <time name="diis">    7.14    7.14</time>
   <time name="orth">    0.06    0.06</time>
   <time name="total">   10.16   10.17</time>
   <energy>
    <i name="e_fr_energy">    -48.61885245 </i>
    <i name="e_wo_entrp">    -48.62665565 </i>
    <i name="e_0_energy">    -48.62145352 </i>
   </energy>
  </scstep>
  <scstep>
   <time name="diag">    1.09    1.09</time>
   <time name="diis">    7.22    7.22</time>
   <time name="orth">    0.06    0.06</time>
   <time name="total">   10.24   10.24</time>
   <energy>
    <i name="e_fr_energy">    -48.60915341 </i>
    <i name="e_wo_entrp">    -48.61710501 </i>
    <i name="e_0_energy">    -48.61180394 </i>
   </energy>
  </scstep>
  <scstep>
   <time name="diag">    1.09    1.09</time>
   <time name="diis">    7.93    7.93</time>
   <time name="orth">    0.06    0.06</time>
   <time name="total">   10.94   10.94</time>
   <energy>
    <i name="e_fr_energy">    -48.60579677 </i>
    <i name="e_wo_entrp">    -48.61362792 </i>
    <i name="e_0_energy">    -48.60840715 </i>
   </energy>
  </scstep>
  <scstep>
   <time name="diag">    1.09    1.09</time>
   <time name="diis">    7.33    7.33</time>
   <time name="orth">    0.06    0.06</time>
   <time name="total">   10.34   10.35</time>
   <energy>
    <i name="e_fr_energy">    -48.60506566 </i>
    <i name="e_wo_entrp">    -48.61287672 </i>
    <i name="e_0_energy">    -48.60766935 </i>
   </energy>
  </scstep>
  <scstep>
   <time name="diag">    1.09    1.09</time>
   <time name="diis">    6.81    6.81</time>
   <time name="orth">    0.06    0.06</time>
   <time name="total">    9.82    9.83</time>
   <energy>
    <i name="e_fr_energy">    -48.60619656 </i>
    <i name="e_wo_entrp">    -48.61399622 </i>
    <i name="e_0_energy">    -48.60879645 </i>
   </energy>
  </scstep>
  <scstep>
   <time name="diag">    1.09    1.09</time>
   <time name="diis">    6.54    6.56</time>
   <time name="orth">    0.06    0.06</time>
   <time name="total">    9.55    9.57</time>
   <energy>
    <i name="e_fr_energy">    -48.60733045 </i>
    <i name="e_wo_entrp">    -48.61511927 </i>
    <i name="e_0_energy">    -48.60992673 </i>
   </energy>
  </scstep>
  <scstep>
   <time name="diag">    1.09    1.09</time>
   <time name="diis">    6.60    6.60</time>
   <time name="orth">    0.06    0.06</time>
   <time name="total">    9.61    9.61</time>
   <energy>
    <i name="e_fr_energy">    -48.60903783 </i>
    <i name="e_wo_entrp">    -48.61685628 </i>
    <i name="e_0_energy">    -48.61164398 </i>
   </energy>
  </scstep>
  <scstep>
   <time name="diag">    1.09    1.09</time>
   <time name="diis">    6.77    6.77</time>
   <time name="orth">    0.06    0.06</time>
   <time name="total">    9.78    9.78</time>
   <energy>
    <i name="e_fr_energy">    -48.61073249 </i>
    <i name="e_wo_entrp">    -48.61854719 </i>
    <i name="e_0_energy">    -48.61333739 </i>
   </energy>
  </scstep>
  <scstep>
   <time name="diag">    1.09    1.09</time>
   <time name="diis">    6.83    6.83</time>
   <time name="orth">    0.06    0.06</time>
   <time name="total">    9.85    9.85</time>
   <energy>
    <i name="e_fr_energy">    -48.61153673 </i>
    <i name="e_wo_entrp">    -48.61935926 </i>
    <i name="e_0_energy">    -48.61414424 </i>
   </energy>
  </scstep>
  <scstep>
   <time name="diag">    1.09    1.09</time>
   <time name="diis">    7.18    7.18</time>
   <time name="orth">    0.06    0.06</time>
   <time name="total">   10.20   10.20</time>
   <energy>
    <i name="e_fr_energy">    -48.61237508 </i>
    <i name="e_wo_entrp">    -48.62018946 </i>
    <i name="e_0_energy">    -48.61497987 </i>
   </energy>
  </scstep>
  <scstep>
   <time name="diag">    1.09    1.09</time>
   <time name="diis">    6.86    6.86</time>
   <time name="orth">    0.06    0.06</time>
   <time name="total">    9.88    9.88</time>
   <energy>
    <i name="e_fr_energy">    -48.61287364 </i>
    <i name="e_wo_entrp">    -48.62068506 </i>
    <i name="e_0_energy">    -48.61547744 </i>
   </energy>
  </scstep>
  <scstep>
   <time name="diag">    1.09    1.09</time>
   <time name="diis">    6.81    6.81</time>
   <time name="orth">    0.06    0.06</time>
   <time name="total">    9.83    9.83</time>
   <energy>
    <i name="e_fr_energy">    -48.61326766 </i>
    <i name="e_wo_entrp">    -48.62108079 </i>
    <i name="e_0_energy">    -48.61587204 </i>
   </energy>
  </scstep>
  <scstep>
   <time name="diag">    1.09    1.09</time>
   <time name="diis">    7.21    7.21</time>
   <time name="orth">    0.06    0.06</time>
   <time name="total">   10.23   10.23</time>
   <energy>
    <i name="e_fr_energy">    -48.61351469 </i>
    <i name="e_wo_entrp">    -48.62132818 </i>
    <i name="e_0_energy">    -48.61611919 </i>
   </energy>
  </scstep>
  <scstep>
   <time name="diag">    1.09    1.09</time>
   <time name="diis">    7.11    7.11</time>
   <time name="orth">    0.06    0.06</time>
   <time name="total">   10.13   10.14</time>
   <energy>
    <i name="e_fr_energy">    -48.61362085 </i>
    <i name="e_wo_entrp">    -48.62143559 </i>
    <i name="e_0_energy">    -48.61622576 </i>
   </energy>
  </scstep>
  <scstep>
   <time name="diag">    1.09    1.09</time>
   <time name="diis">    6.62    6.62</time>
   <time name="orth">    0.06    0.06</time>
   <time name="total">    9.65    9.66</time>
   <energy>
    <i name="e_fr_energy">    -48.61371995 </i>
    <i name="e_wo_entrp">    -48.62153407 </i>
    <i name="e_0_energy">    -48.61632466 </i>
   </energy>
  </scstep>
  <scstep>
   <time name="diag">    1.09    1.09</time>
   <time name="diis">    6.79    6.79</time>
   <time name="orth">    0.06    0.06</time>
   <time name="total">    9.82    9.82</time>
   <energy>
    <i name="e_fr_energy">    -48.61378258 </i>
    <i name="e_wo_entrp">    -48.62159695 </i>
    <i name="e_0_energy">    -48.61638737 </i>
   </energy>
  </scstep>
  <scstep>
   <time name="diag">    1.09    1.09</time>
   <time name="diis">    6.30    6.30</time>
   <time name="orth">    0.06    0.06</time>
   <time name="total">    9.33    9.34</time>
   <energy>
    <i name="e_fr_energy">    -48.61381209 </i>
    <i name="e_wo_entrp">    -48.62162633 </i>
    <i name="e_0_energy">    -48.61641683 </i>
   </energy>
  </scstep>
  <scstep>
   <time name="diag">    1.09    1.09</time>
   <time name="diis">    4.60    4.60</time>
   <time name="orth">    0.06    0.06</time>
   <time name="total">    7.63    7.64</time>
   <energy>
    <i name="e_fr_energy">    -48.61382197 </i>
    <i name="e_wo_entrp">    -48.62163621 </i>
    <i name="e_0_energy">    -48.61642672 </i>
   </energy>
  </scstep>
  <scstep>
   <time name="diag">    1.09    1.09</time>
   <time name="diis">    4.50    4.51</time>
   <time name="orth">    0.06    0.06</time>
   <time name="total">    7.54    7.54</time>
   <energy>
    <i name="e_fr_energy">    -48.61382715 </i>
    <i name="e_wo_entrp">    -48.62164115 </i>
    <i name="e_0_energy">    -48.61643182 </i>
   </energy>
  </scstep>
  <scstep>
   <time name="diag">    1.09    1.09</time>
   <time name="diis">    4.55    4.55</time>
   <time name="orth">    0.06    0.06</time>
   <time name="total">    7.60    7.60</time>
   <energy>
    <i name="e_fr_energy">    -48.61382937 </i>
    <i name="e_wo_entrp">    -48.62164354 </i>
    <i name="e_0_energy">    -48.61643410 </i>
   </energy>
  </scstep>
  <scstep>
   <time name="diag">    1.09    1.09</time>
   <time name="diis">    4.58    4.58</time>
   <time name="orth">    0.06    0.06</time>
   <time name="total">    7.63    7.63</time>
   <energy>
    <i name="e_fr_energy">    -48.61383077 </i>
    <i name="e_wo_entrp">    -48.62164493 </i>
    <i name="e_0_energy">    -48.61643549 </i>
   </energy>
  </scstep>
  <scstep>
   <time name="diag">    1.09    1.09</time>
   <time name="diis">    4.28    4.28</time>
   <time name="orth">    0.06    0.06</time>
   <time name="total">    7.33    7.34</time>
   <energy>
    <i name="e_fr_energy">    -48.61383157 </i>
    <i name="e_wo_entrp">    -48.62164577 </i>
    <i name="e_0_energy">    -48.61643630 </i>
   </energy>
  </scstep>
  <scstep>
   <time name="diag">    1.09    1.09</time>
   <time name="diis">    4.45    4.46</time>
   <time name="orth">    0.06    0.06</time>
   <time name="total">    7.52    7.52</time>
   <energy>
    <i name="e_fr_energy">    -48.61383220 </i>
    <i name="e_wo_entrp">    -48.62164642 </i>
    <i name="e_0_energy">    -48.61643694 </i>
   </energy>
  </scstep>
  <scstep>
   <time name="diag">    1.09    1.09</time>
   <time name="diis">    4.61    4.61</time>
   <time name="orth">    0.06    0.06</time>
   <time name="total">    7.68    7.69</time>
   <energy>
    <i name="e_fr_energy">    -48.61383272 </i>
    <i name="e_wo_entrp">    -48.62164692 </i>
    <i name="e_0_energy">    -48.61643745 </i>
   </energy>
  </scstep>
  <scstep>
   <time name="diag">    1.09    1.09</time>
   <time name="diis">    4.03    4.03</time>
   <time name="orth">    0.06    0.06</time>
   <time name="total">    7.11    7.11</time>
   <energy>
    <i name="e_fr_energy">    -48.61383306 </i>
    <i name="e_wo_entrp">    -48.62164726 </i>
    <i name="e_0_energy">    -48.61643779 </i>
   </energy>
  </scstep>
  <scstep>
   <time name="diag">    1.09    1.09</time>
   <time name="diis">    4.44    4.44</time>
   <time name="orth">    0.06    0.06</time>
   <time name="total">    7.53    7.53</time>
   <energy>
    <i name="e_fr_energy">    -48.61383338 </i>
    <i name="e_wo_entrp">    -48.62164756 </i>
    <i name="e_0_energy">    -48.61643810 </i>
   </energy>
  </scstep>
  <scstep>
   <time name="diag">    1.09    1.09</time>
   <time name="diis">    3.51    3.51</time>
   <time name="orth">    0.06    0.06</time>
   <time name="total">    6.60    6.60</time>
   <energy>
    <i name="e_fr_energy">    -48.61383351 </i>
    <i name="e_wo_entrp">    -48.62164770 </i>
    <i name="e_0_energy">    -48.61643824 </i>
   </energy>
  </scstep>
  <scstep>
   <time name="diag">    1.09    1.09</time>
   <time name="diis">    3.25    3.25</time>
   <time name="orth">    0.06    0.06</time>
   <time name="total">    5.59    5.59</time>
   <energy>
    <i name="alphaZ">     41.16232785 </i>
    <i name="ewald">  16128.86811688 </i>
    <i name="hartreedc"> -33111.51940271 </i>
    <i name="XCdc">    615.40662901 </i>
    <i name="pawpsdc">  17634.94999909 </i>
    <i name="pawaedc"> -19033.39593718 </i>
    <i name="eentropy">      0.00781418 </i>
    <i name="bandstr">   -986.31262783 </i>
    <i name="atom">  18662.21924712 </i>
    <i name="e_fr_energy">    -48.61383360 </i>
    <i name="e_wo_entrp">    -48.62164778 </i>
    <i name="e_0_energy">    -48.61643833 </i>
   </energy>
  </scstep>
  <structure>
   <crystal>
    <varray name="basis" >
     <v>      15.00000000       0.00000000       0.00000000 </v>
     <v>       0.00000000      15.00000000       0.00000000 </v>
     <v>       0.00000000       0.00000000      15.00000000 </v>
    </varray>
    <i name="volume">   3375.00000000 </i>
    <varray name="rec_basis" >
     <v>       0.06666667       0.00000000       0.00000000 </v>
     <v>       0.00000000       0.06666667       0.00000000 </v>
     <v>       0.00000000       0.00000000       0.06666667 </v>
    </varray>
   </crystal>
   <varray name="positions" >
    <v>       0.29032533       0.41498000       0.55787067 </v>
    <v>       0.37751733       0.55020400       0.48969933 </v>
    <v>       0.39806133       0.29272600       0.55799267 </v>
    <v>       0.53181067       0.50036667       0.48044533 </v>
    <v>       0.55020267       0.35084467       0.53610933 </v>
    <v>       0.44171333       0.43833267       0.61126333 </v>
    <v>       0.42129333       0.39231400       0.44698200 </v>
    <v>       0.22378600       0.56970933       0.55324733 </v>
    <v>       0.32995467       0.54714333       0.65801600 </v>
    <v>       0.35271067       0.68269333       0.56509133 </v>
    <v>       0.48316733       0.66964000       0.47036067 </v>
    <v>       0.63510400       0.48803067       0.59896800 </v>
    <v>       0.47951600       0.58837200       0.62088600 </v>
    <v>       0.74432000       0.49874533       0.66052267 </v>
    <v>       0.82063333       0.49505867       0.67080667 </v>
   </varray>
  </structure>
  <varray name="forces" >
   <v>       0.09469151       0.44481720      -0.14662069 </v>
   <v>      -0.32182603      -0.69713142       0.00795365 </v>
   <v>      -0.11854181      -0.65271936       0.59285987 </v>
   <v>       0.08729258       0.67590070       0.11626208 </v>
   <v>       0.39133618      -0.06323706      -0.02298586 </v>
   <v>       0.18695186      -0.32500525      -0.01279534 </v>
   <v>      -0.33392482       0.59294983      -0.23436234 </v>
   <v>      -0.11879482       0.06745635      -0.49896562 </v>
   <v>       0.37193899      -0.17895130       0.06529012 </v>
   <v>      -0.23910101       0.21753038       0.27606755 </v>
   <v>       0.12621917      -0.40605086       0.41589361 </v>
   <v>      -0.13022495      -0.06900291       0.41813091 </v>
   <v>       0.48136433       0.49622982      -0.59397126 </v>
   <v>      -0.35531910      -0.19638472      -0.48825198 </v>
   <v>      -0.12206210       0.09359860       0.10549531 </v>
  </varray>
  <varray name="stress" >
   <v>      -0.63290297      -0.01131616       0.37967150 </v>
   <v>      -0.01131616       0.21639507      -0.34622733 </v>
   <v>       0.37967149      -0.34622732      -0.53474874 </v>
  </varray>
  <energy>
   <i name="e_fr_energy">    -48.61383360 </i>
   <i name="e_wo_entrp">    -48.61643833 </i>
   <i name="e_0_energy">      0.00781418 </i>
  </energy>
  <time name="totalsc">  349.83  350.01</time>
  <eigenvalues>
   <array>
    <dimension dim="1">band</dimension>
    <dimension dim="2">kpoint</dimension>
    <dimension dim="3">spin</dimension>
    <field>eigene</field>
    <field>occ</field>
    <set>
     <set comment="spin 1">
      <set comment="kpoint 1">
       <r>  -28.5719    1.0000 </r>
       <r>  -13.8594    1.0000 </r>
       <r>  -11.3742    1.0000 </r>
       <r>  -11.2242    1.0000 </r>
       <r>  -10.8552    1.0000 </r>
       <r>  -10.1147    1.0000 </r>
       <r>   -8.6653    1.0000 </r>
       <r>   -8.0854    1.0000 </r>
       <r>   -7.6711    1.0000 </r>
       <r>   -7.4704    1.0000 </r>
       <r>   -7.4309    1.0000 </r>
       <r>   -7.2744    1.0000 </r>
       <r>   -7.1715    1.0000 </r>
       <r>   -7.0998    1.0000 </r>
       <r>   -6.9769    1.0000 </r>
       <r>   -6.9047    1.0000 </r>
       <r>   -6.7992    1.0000 </r>
       <r>   -6.7432    1.0000 </r>
       <r>   -6.6334    1.0000 </r>
       <r>   -6.5523    1.0000 </r>
       <r>   -6.5390    1.0000 </r>
       <r>   -6.5254    1.0000 </r>
       <r>   -6.4946    1.0000 </r>
       <r>   -6.4357    1.0000 </r>
       <r>   -6.3798    1.0000 </r>
       <r>   -6.3328    1.0000 </r>
       <r>   -6.2777    1.0000 </r>
       <r>   -6.2748    1.0000 </r>
       <r>   -6.2206    1.0000 </r>
       <r>   -6.1866    1.0000 </r>
       <r>   -6.1590    1.0000 </r>
       <r>   -6.1023    1.0000 </r>
       <r>   -6.0940    1.0000 </r>
       <r>   -5.9915    1.0000 </r>
       <r>   -5.9195    1.0000 </r>
       <r>   -5.8340    1.0000 </r>
       <r>   -5.7930    1.0000 </r>
       <r>   -5.7214    1.0000 </r>
       <r>   -5.6763    1.0000 </r>
       <r>   -5.6402    1.0000 </r>
       <r>   -5.5997    1.0000 </r>
       <r>   -5.5467    1.0000 </r>
       <r>   -5.5295    1.0000 </r>
       <r>   -5.4769    1.0000 </r>
       <r>   -5.4542    1.0000 </r>
       <r>   -5.3895    1.0000 </r>
       <r>   -5.3769    1.0000 </r>
       <r>   -5.3381    1.0000 </r>
       <r>   -5.3291    1.0000 </r>
       <r>   -5.2934    1.0000 </r>
       <r>   -5.2875    1.0000 </r>
       <r>   -5.2551    1.0000 </r>
       <r>   -5.2235    1.0000 </r>
       <r>   -5.2046    1.0000 </r>
       <r>   -5.1900    1.0000 </r>
       <r>   -5.1476    1.0000 </r>
       <r>   -5.1345    1.0000 </r>
       <r>   -5.1018    1.0000 </r>
       <r>   -5.0914    1.0000 </r>
       <r>   -5.0731    1.0000 </r>
       <r>   -5.0352    1.0000 </r>
       <r>   -5.0017    1.0000 </r>
       <r>   -4.9885    1.0000 </r>
       <r>   -4.9778    1.0000 </r>
       <r>   -4.9262    1.0000 </r>
       <r>   -4.9195    1.0000 </r>
       <r>   -4.8889    1.0000 </r>
       <r>   -4.8516    1.0000 </r>
       <r>   -4.8414    1.0000 </r>
       <r>   -4.8208    1.0000 </r>
       <r>   -4.7839    1.0000 </r>
       <r>   -4.7743    1.0000 </r>
       <r>   -4.7084    1.0000 </r>
       <r>   -4.5105    1.0000 </r>
       <r>   -4.2097    1.0000 </r>
       <r>   -4.0875    1.0000 </r>
       <r>   -3.5759    1.0000 </r>
       <r>   -3.0129   -0.0000 </r>
       <r>   -2.7843   -0.0000 </r>
       <r>   -2.6213   -0.0000 </r>
       <r>   -2.3824   -0.0000 </r>
       <r>   -1.9415   -0.0000 </r>
       <r>   -1.8907   -0.0000 </r>
       <r>   -1.7739   -0.0000 </r>
       <r>   -1.4943   -0.0000 </r>
       <r>   -1.1087   -0.0000 </r>
       <r>   -0.9136   -0.0000 </r>
       <r>   -0.6839    0.0000 </r>
       <r>   -0.4400    0.0000 </r>
       <r>   -0.2708    0.0000 </r>
       <r>   -0.0809    0.0000 </r>
       <r>    0.1136    0.0000 </r>
      </set>
     </set>
     <set comment="spin 2">
      <set comment="kpoint 1">
       <r>  -28.5514    1.0000 </r>
       <r>  -13.8223    1.0000 </r>
       <r>  -11.3421    1.0000 </r>
       <r>  -11.1974    1.0000 </r>
       <r>  -10.8000    1.0000 </r>
       <r>  -10.0748    1.0000 </r>
       <r>   -8.6412    1.0000 </r>
       <r>   -8.0383    1.0000 </r>
       <r>   -7.6326    1.0000 </r>
       <r>   -7.4503    1.0000 </r>
       <r>   -7.4022    1.0000 </r>
       <r>   -7.2287    1.0000 </r>
       <r>   -7.1347    1.0000 </r>
       <r>   -7.0712    1.0000 </r>
       <r>   -6.9429    1.0000 </r>
       <r>   -6.8702    1.0000 </r>
       <r>   -6.7741    1.0000 </r>
       <r>   -6.7204    1.0000 </r>
       <r>   -6.6115    1.0000 </r>
       <r>   -6.5247    1.0000 </r>
       <r>   -6.5114    1.0000 </r>
       <r>   -6.5027    1.0000 </r>
       <r>   -6.4629    1.0000 </r>
       <r>   -6.4167    1.0000 </r>
       <r>   -6.3590    1.0000 </r>
       <r>   -6.3133    1.0000 </r>
       <r>   -6.2565    1.0000 </r>
       <r>   -6.2483    1.0000 </r>
       <r>   -6.2007    1.0000 </r>
       <r>   -6.1603    1.0000 </r>
       <r>   -6.1323    1.0000 </r>
       <r>   -6.0810    1.0000 </r>
       <r>   -6.0653    1.0000 </r>
       <r>   -5.9705    1.0000 </r>
       <r>   -5.8925    1.0000 </r>
       <r>   -5.8134    1.0000 </r>
       <r>   -5.7682    1.0000 </r>
       <r>   -5.6908    1.0000 </r>
       <r>   -5.6473    1.0000 </r>
       <r>   -5.6163    1.0000 </r>
       <r>   -5.5792    1.0000 </r>
       <r>   -5.5201    1.0000 </r>
       <r>   -5.5020    1.0000 </r>
       <r>   -5.4559    1.0000 </r>
       <r>   -5.4272    1.0000 </r>
       <r>   -5.3683    1.0000 </r>
       <r>   -5.3512    1.0000 </r>
       <r>   -5.3074    1.0000 </r>
       <r>   -5.2990    1.0000 </r>
       <r>   -5.2735    1.0000 </r>
       <r>   -5.2594    1.0000 </r>
       <r>   -5.2274    1.0000 </r>
       <r>   -5.1963    1.0000 </r>
       <r>   -5.1708    1.0000 </r>
       <r>   -5.1576    1.0000 </r>
       <r>   -5.1231    1.0000 </r>
       <r>   -5.1162    1.0000 </r>
       <r>   -5.0779    1.0000 </r>
       <r>   -5.0705    1.0000 </r>
       <r>   -5.0436    1.0000 </r>
       <r>   -5.0115    1.0000 </r>
       <r>   -4.9807    1.0000 </r>
       <r>   -4.9604    1.0000 </r>
       <r>   -4.9572    1.0000 </r>
       <r>   -4.9029    1.0000 </r>
       <r>   -4.8888    1.0000 </r>
       <r>   -4.8641    1.0000 </r>
       <r>   -4.8164    1.0000 </r>
       <r>   -4.8019    1.0000 </r>
       <r>   -4.7885    1.0000 </r>
       <r>   -4.7518    1.0000 </r>
       <r>   -4.7440    1.0000 </r>
       <r>   -4.6837    1.0000 </r>
       <r>   -4.4712    1.0000 </r>
       <r>   -4.1492    1.0160 </r>
       <r>   -4.0509    0.9840 </r>
       <r>   -3.3610   -0.0000 </r>
       <r>   -2.9574   -0.0000 </r>
       <r>   -2.7299   -0.0000 </r>
       <r>   -2.5457   -0.0000 </r>
       <r>   -2.2900   -0.0000 </r>
       <r>   -1.9092   -0.0000 </r>
       <r>   -1.8085   -0.0000 </r>
       <r>   -1.7059   -0.0000 </r>
       <r>   -1.3958   -0.0000 </r>
       <r>   -0.9781    0.0000 </r>
       <r>   -0.8358    0.0000 </r>
       <r>   -0.6172    0.0000 </r>
       <r>   -0.3383    0.0000 </r>
       <r>   -0.2133    0.0000 </r>
       <r>   -0.0179    0.0000 </r>
       <r>    0.1799    0.0000 </r>
      </set>
     </set>
    </set>
   </array>
  </eigenvalues>
  <separator name="orbital magnetization" >
   <v name="MAGDIPOLOUT">      0.00000000      0.00000000      0.00000000</v>
  </separator>
  <dos>
   <i name="efermi">     -3.97323446 </i>
   <total>
    <array>
     <dimension dim="1">gridpoints</dimension>
     <dimension dim="2">spin</dimension>
     <field>energy</field>
     <field>total</field>
     <field>integrated</field>
     <set>
      <set comment="spin 1">
       <r>   -30.0094     0.0000     0.0000 </r>
       <r>   -29.9040     0.0000     0.0000 </r>
       <r>   -29.7986     0.0000     0.0000 </r>
       <r>   -29.6932     0.0000     0.0000 </r>
       <r>   -29.5878     0.0000     0.0000 </r>
       <r>   -29.4823     0.0000     0.0000 </r>
       <r>   -29.3769    -0.0000    -0.0000 </r>
       <r>   -29.2715    -0.0000    -0.0000 </r>
       <r>   -29.1661    -0.0000    -0.0000 </r>
       <r>   -29.0606    -0.0000    -0.0000 </r>
       <r>   -28.9552    -0.0000    -0.0000 </r>
       <r>   -28.8498    -0.0058    -0.0006 </r>
       <r>   -28.7444    -0.3256    -0.0349 </r>
       <r>   -28.6389     1.2934     0.1014 </r>
       <r>   -28.5335    14.2055     1.5990 </r>
       <r>   -28.4281     4.3789     2.0606 </r>
       <r>   -28.3227    -0.5524     2.0024 </r>
       <r>   -28.2173    -0.0227     2.0000 </r>
       <r>   -28.1118    -0.0001     2.0000 </r>
       <r>   -28.0064    -0.0000     2.0000 </r>
       <r>   -27.9010    -0.0000     2.0000 </r>
       <r>   -27.7956     0.0000     2.0000 </r>
       <r>   -27.6901     0.0000     2.0000 </r>
       <r>   -27.5847     0.0000     2.0000 </r>
       <r>   -27.4793     0.0000     2.0000 </r>
       <r>   -27.3739     0.0000     2.0000 </r>
       <r>   -27.2684     0.0000     2.0000 </r>
       <r>   -27.1630     0.0000     2.0000 </r>
       <r>   -27.0576     0.0000     2.0000 </r>
       <r>   -26.9522     0.0000     2.0000 </r>
       <r>   -26.8468     0.0000     2.0000 </r>
       <r>   -26.7413     0.0000     2.0000 </r>
       <r>   -26.6359     0.0000     2.0000 </r>
       <r>   -26.5305     0.0000     2.0000 </r>
       <r>   -26.4251     0.0000     2.0000 </r>
       <r>   -26.3196     0.0000     2.0000 </r>
       <r>   -26.2142     0.0000     2.0000 </r>
       <r>   -26.1088     0.0000     2.0000 </r>
       <r>   -26.0034     0.0000     2.0000 </r>
       <r>   -25.8979     0.0000     2.0000 </r>
       <r>   -25.7925     0.0000     2.0000 </r>
       <r>   -25.6871     0.0000     2.0000 </r>
       <r>   -25.5817     0.0000     2.0000 </r>
       <r>   -25.4763     0.0000     2.0000 </r>
       <r>   -25.3708     0.0000     2.0000 </r>
       <r>   -25.2654     0.0000     2.0000 </r>
       <r>   -25.1600     0.0000     2.0000 </r>
       <r>   -25.0546     0.0000     2.0000 </r>
       <r>   -24.9491     0.0000     2.0000 </r>
       <r>   -24.8437     0.0000     2.0000 </r>
       <r>   -24.7383     0.0000     2.0000 </r>
       <r>   -24.6329     0.0000     2.0000 </r>
       <r>   -24.5274     0.0000     2.0000 </r>
       <r>   -24.4220     0.0000     2.0000 </r>
       <r>   -24.3166     0.0000     2.0000 </r>
       <r>   -24.2112     0.0000     2.0000 </r>
       <r>   -24.1058     0.0000     2.0000 </r>
       <r>   -24.0003     0.0000     2.0000 </r>
       <r>   -23.8949     0.0000     2.0000 </r>
       <r>   -23.7895     0.0000     2.0000 </r>
       <r>   -23.6841     0.0000     2.0000 </r>
       <r>   -23.5786     0.0000     2.0000 </r>
       <r>   -23.4732     0.0000     2.0000 </r>
       <r>   -23.3678     0.0000     2.0000 </r>
       <r>   -23.2624     0.0000     2.0000 </r>
       <r>   -23.1569     0.0000     2.0000 </r>
       <r>   -23.0515     0.0000     2.0000 </r>
       <r>   -22.9461     0.0000     2.0000 </r>
       <r>   -22.8407     0.0000     2.0000 </r>
       <r>   -22.7353     0.0000     2.0000 </r>
       <r>   -22.6298     0.0000     2.0000 </r>
       <r>   -22.5244     0.0000     2.0000 </r>
       <r>   -22.4190     0.0000     2.0000 </r>
       <r>   -22.3136     0.0000     2.0000 </r>
       <r>   -22.2081     0.0000     2.0000 </r>
       <r>   -22.1027     0.0000     2.0000 </r>
       <r>   -21.9973     0.0000     2.0000 </r>
       <r>   -21.8919     0.0000     2.0000 </r>
       <r>   -21.7864     0.0000     2.0000 </r>
       <r>   -21.6810     0.0000     2.0000 </r>
       <r>   -21.5756     0.0000     2.0000 </r>
       <r>   -21.4702     0.0000     2.0000 </r>
       <r>   -21.3648     0.0000     2.0000 </r>
       <r>   -21.2593     0.0000     2.0000 </r>
       <r>   -21.1539     0.0000     2.0000 </r>
       <r>   -21.0485     0.0000     2.0000 </r>
       <r>   -20.9431     0.0000     2.0000 </r>
       <r>   -20.8376     0.0000     2.0000 </r>
       <r>   -20.7322     0.0000     2.0000 </r>
       <r>   -20.6268     0.0000     2.0000 </r>
       <r>   -20.5214     0.0000     2.0000 </r>
       <r>   -20.4159     0.0000     2.0000 </r>
       <r>   -20.3105     0.0000     2.0000 </r>
       <r>   -20.2051     0.0000     2.0000 </r>
       <r>   -20.0997     0.0000     2.0000 </r>
       <r>   -19.9943     0.0000     2.0000 </r>
       <r>   -19.8888     0.0000     2.0000 </r>
       <r>   -19.7834     0.0000     2.0000 </r>
       <r>   -19.6780     0.0000     2.0000 </r>
       <r>   -19.5726     0.0000     2.0000 </r>
       <r>   -19.4671     0.0000     2.0000 </r>
       <r>   -19.3617     0.0000     2.0000 </r>
       <r>   -19.2563     0.0000     2.0000 </r>
       <r>   -19.1509     0.0000     2.0000 </r>
       <r>   -19.0454     0.0000     2.0000 </r>
       <r>   -18.9400     0.0000     2.0000 </r>
       <r>   -18.8346     0.0000     2.0000 </r>
       <r>   -18.7292     0.0000     2.0000 </r>
       <r>   -18.6238     0.0000     2.0000 </r>
       <r>   -18.5183     0.0000     2.0000 </r>
       <r>   -18.4129     0.0000     2.0000 </r>
       <r>   -18.3075     0.0000     2.0000 </r>
       <r>   -18.2021     0.0000     2.0000 </r>
       <r>   -18.0966     0.0000     2.0000 </r>
       <r>   -17.9912     0.0000     2.0000 </r>
       <r>   -17.8858     0.0000     2.0000 </r>
       <r>   -17.7804     0.0000     2.0000 </r>
       <r>   -17.6749     0.0000     2.0000 </r>
       <r>   -17.5695     0.0000     2.0000 </r>
       <r>   -17.4641     0.0000     2.0000 </r>
       <r>   -17.3587     0.0000     2.0000 </r>
       <r>   -17.2533     0.0000     2.0000 </r>
       <r>   -17.1478     0.0000     2.0000 </r>
       <r>   -17.0424     0.0000     2.0000 </r>
       <r>   -16.9370     0.0000     2.0000 </r>
       <r>   -16.8316     0.0000     2.0000 </r>
       <r>   -16.7261     0.0000     2.0000 </r>
       <r>   -16.6207     0.0000     2.0000 </r>
       <r>   -16.5153     0.0000     2.0000 </r>
       <r>   -16.4099     0.0000     2.0000 </r>
       <r>   -16.3044     0.0000     2.0000 </r>
       <r>   -16.1990     0.0000     2.0000 </r>
       <r>   -16.0936     0.0000     2.0000 </r>
       <r>   -15.9882     0.0000     2.0000 </r>
       <r>   -15.8828     0.0000     2.0000 </r>
       <r>   -15.7773     0.0000     2.0000 </r>
       <r>   -15.6719     0.0000     2.0000 </r>
       <r>   -15.5665     0.0000     2.0000 </r>
       <r>   -15.4611     0.0000     2.0000 </r>
       <r>   -15.3556     0.0000     2.0000 </r>
       <r>   -15.2502     0.0000     2.0000 </r>
       <r>   -15.1448     0.0000     2.0000 </r>
       <r>   -15.0394     0.0000     2.0000 </r>
       <r>   -14.9339     0.0000     2.0000 </r>
       <r>   -14.8285     0.0000     2.0000 </r>
       <r>   -14.7231    -0.0000     2.0000 </r>
       <r>   -14.6177    -0.0000     2.0000 </r>
       <r>   -14.5123    -0.0000     2.0000 </r>
       <r>   -14.4068    -0.0000     2.0000 </r>
       <r>   -14.3014    -0.0000     2.0000 </r>
       <r>   -14.1960    -0.0002     2.0000 </r>
       <r>   -14.0906    -0.0487     1.9948 </r>
       <r>   -13.9851    -0.6208     1.9294 </r>
       <r>   -13.8797     6.9674     2.6639 </r>
       <r>   -13.7743    12.7112     4.0040 </r>
       <r>   -13.6689     0.1657     4.0214 </r>
       <r>   -13.5634    -0.2012     4.0002 </r>
       <r>   -13.4580    -0.0022     4.0000 </r>
       <r>   -13.3526    -0.0000     4.0000 </r>
       <r>   -13.2472    -0.0000     4.0000 </r>
       <r>   -13.1418     0.0000     4.0000 </r>
       <r>   -13.0363     0.0000     4.0000 </r>
       <r>   -12.9309     0.0000     4.0000 </r>
       <r>   -12.8255     0.0000     4.0000 </r>
       <r>   -12.7201     0.0000     4.0000 </r>
       <r>   -12.6146     0.0000     4.0000 </r>
       <r>   -12.5092     0.0000     4.0000 </r>
       <r>   -12.4038     0.0000     4.0000 </r>
       <r>   -12.2984     0.0000     4.0000 </r>
       <r>   -12.1929    -0.0000     4.0000 </r>
       <r>   -12.0875    -0.0000     4.0000 </r>
       <r>   -11.9821    -0.0000     4.0000 </r>
       <r>   -11.8767    -0.0000     4.0000 </r>
       <r>   -11.7712    -0.0000     4.0000 </r>
       <r>   -11.6658    -0.0028     3.9997 </r>
       <r>   -11.5604    -0.2279     3.9757 </r>
       <r>   -11.4550     0.3305     4.0105 </r>
       <r>   -11.3496    12.5356     5.3321 </r>
       <r>   -11.2441    13.3456     6.7390 </r>
       <r>   -11.1387    12.0503     8.0094 </r>
       <r>   -11.0333    -0.1755     7.9909 </r>
       <r>   -10.9279     0.6801     8.0626 </r>
       <r>   -10.8224    13.8517     9.5229 </r>
       <r>   -10.7170     5.1408    10.0648 </r>
       <r>   -10.6116    -0.5859    10.0031 </r>
       <r>   -10.5062    -0.0290    10.0000 </r>
       <r>   -10.4007    -0.0039     9.9996 </r>
       <r>   -10.2953    -0.2656     9.9716 </r>
       <r>   -10.1899     0.7122    10.0467 </r>
       <r>   -10.0845    13.6612    11.4869 </r>
       <r>    -9.9791     5.4977    12.0665 </r>
       <r>    -9.8736    -0.5980    12.0034 </r>
       <r>    -9.7682    -0.0323    12.0000 </r>
       <r>    -9.6628    -0.0001    12.0000 </r>
       <r>    -9.5574    -0.0000    12.0000 </r>
       <r>    -9.4519    -0.0000    12.0000 </r>
       <r>    -9.3465    -0.0000    12.0000 </r>
       <r>    -9.2411    -0.0000    12.0000 </r>
       <r>    -9.1357    -0.0000    12.0000 </r>
       <r>    -9.0302    -0.0000    12.0000 </r>
       <r>    -8.9248    -0.0142    11.9985 </r>
       <r>    -8.8194    -0.4751    11.9484 </r>
       <r>    -8.7140     3.0927    12.2745 </r>
       <r>    -8.6086    14.5628    13.8097 </r>
       <r>    -8.5031     2.2237    14.0441 </r>
       <r>    -8.3977    -0.4099    14.0009 </r>
       <r>    -8.2923    -0.1293    13.9873 </r>
       <r>    -8.1869    -0.3843    13.9468 </r>
       <r>    -8.0814    10.6205    15.0664 </r>
       <r>    -7.9760     9.4670    16.0645 </r>
       <r>    -7.8706    -0.6744    15.9934 </r>
       <r>    -7.7652    -0.2770    15.9642 </r>
       <r>    -7.6597    11.3737    17.1632 </r>
       <r>    -7.5543     7.9332    17.9996 </r>
       <r>    -7.4489    19.2420    20.0281 </r>
       <r>    -7.3435    19.9585    22.1322 </r>
       <r>    -7.2381    14.2721    23.6368 </r>
       <r>    -7.1326    23.2481    26.0877 </r>
       <r>    -7.0272    19.8409    28.1794 </r>
       <r>    -6.9218    21.4482    30.4405 </r>
       <r>    -6.8164    22.4483    32.8071 </r>
       <r>    -6.7109    25.2467    35.4687 </r>
       <r>    -6.6055    21.8892    37.7763 </r>
       <r>    -6.5001    56.7704    43.7612 </r>
       <r>    -6.3947    45.6100    48.5696 </r>
       <r>    -6.2892    44.4500    53.2556 </r>
       <r>    -6.1838    57.5706    59.3249 </r>
       <r>    -6.0784    51.3196    64.7352 </r>
       <r>    -5.9730    27.2923    67.6124 </r>
       <r>    -5.8676    25.2253    70.2717 </r>
       <r>    -5.7621    32.6697    73.7159 </r>
       <r>    -5.6567    40.9622    78.0343 </r>
       <r>    -5.5513    50.1988    83.3264 </r>
       <r>    -5.4459    51.7307    88.7800 </r>
       <r>    -5.3404    64.0283    95.5300 </r>
       <r>    -5.2350    85.2121   104.5134 </r>
       <r>    -5.1296    83.3410   113.2994 </r>
       <r>    -5.0242    83.7081   122.1242 </r>
       <r>    -4.9187    79.9431   130.5521 </r>
       <r>    -4.8133    82.3159   139.2301 </r>
       <r>    -4.7079    55.5630   145.0877 </r>
       <r>    -4.6025     9.6925   146.1095 </r>
       <r>    -4.4971    10.6925   147.2367 </r>
       <r>    -4.3916     7.6479   148.0430 </r>
       <r>    -4.2862    -0.1316   148.0291 </r>
       <r>    -4.1808    13.3327   149.4347 </r>
       <r>    -4.0754    17.4239   151.2716 </r>
       <r>    -3.9699     7.6090   152.0737 </r>
       <r>    -3.8645    -0.6354   152.0068 </r>
       <r>    -3.7591    -0.3146   151.9736 </r>
       <r>    -3.6537     0.5499   152.0316 </r>
       <r>    -3.5482    13.4382   153.4483 </r>
       <r>    -3.4428     5.8781   154.0679 </r>
       <r>    -3.3374    -0.6087   154.0038 </r>
       <r>    -3.2320    -0.1138   153.9918 </r>
       <r>    -3.1266    -0.5691   153.9318 </r>
       <r>    -3.0211     8.7814   154.8575 </r>
       <r>    -2.9157    10.5996   155.9750 </r>
       <r>    -2.8103     5.6296   156.5685 </r>
       <r>    -2.7049    13.3891   157.9800 </r>
       <r>    -2.5994    13.2474   159.3766 </r>
       <r>    -2.4940     5.9501   160.0039 </r>
       <r>    -2.3886     8.5062   160.9006 </r>
       <r>    -2.2832    10.8899   162.0487 </r>
       <r>    -2.1777    -0.3750   162.0091 </r>
       <r>    -2.0723    -1.0046   161.9032 </r>
       <r>    -1.9669     6.6662   162.6060 </r>
       <r>    -1.8615    26.8702   165.4387 </r>
       <r>    -1.7561    18.4800   167.3870 </r>
       <r>    -1.6506     6.0543   168.0252 </r>
       <r>    -1.5452     2.1879   168.2559 </r>
       <r>    -1.4398    14.5331   169.7880 </r>
       <r>    -1.3344     2.3880   170.0398 </r>
       <r>    -1.2289    -1.0382   169.9303 </r>
       <r>    -1.1235     7.6943   170.7415 </r>
       <r>    -1.0181    11.6212   171.9666 </r>
       <r>    -0.9127    10.0693   173.0281 </r>
       <r>    -0.8072     9.1269   173.9903 </r>
       <r>    -0.7018     6.8419   174.7116 </r>
       <r>    -0.5964    11.8823   175.9643 </r>
       <r>    -0.4910     2.8152   176.2611 </r>
       <r>    -0.3856    13.8212   177.7181 </r>
       <r>    -0.2801    10.9581   178.8734 </r>
       <r>    -0.1747    10.7543   180.0071 </r>
       <r>    -0.0693    11.1587   181.1835 </r>
       <r>     0.0361     8.7250   182.1033 </r>
       <r>     0.1416    12.8698   183.4601 </r>
       <r>     0.2470     5.7645   184.0678 </r>
       <r>     0.3524    -0.6076   184.0038 </r>
       <r>     0.4578    -0.0356   184.0000 </r>
       <r>     0.5633    -0.0001   184.0000 </r>
       <r>     0.6687    -0.0000   184.0000 </r>
       <r>     0.7741    -0.0000   184.0000 </r>
       <r>     0.8795     0.0000   184.0000 </r>
       <r>     0.9849     0.0000   184.0000 </r>
       <r>     1.0904     0.0000   184.0000 </r>
       <r>     1.1958     0.0000   184.0000 </r>
       <r>     1.3012     0.0000   184.0000 </r>
       <r>     1.4066     0.0000   184.0000 </r>
       <r>     1.5121     0.0000   184.0000 </r>
       <r>     1.6175     0.0000   184.0000 </r>
      </set>
      <set comment="spin 2">
       <r>   -30.0094     0.0000     0.0000 </r>
       <r>   -29.9040     0.0000     0.0000 </r>
       <r>   -29.7986     0.0000     0.0000 </r>
       <r>   -29.6932     0.0000     0.0000 </r>
       <r>   -29.5878     0.0000     0.0000 </r>
       <r>   -29.4823     0.0000     0.0000 </r>
       <r>   -29.3769    -0.0000    -0.0000 </r>
       <r>   -29.2715    -0.0000    -0.0000 </r>
       <r>   -29.1661    -0.0000    -0.0000 </r>
       <r>   -29.0606    -0.0000    -0.0000 </r>
       <r>   -28.9552    -0.0000    -0.0000 </r>
       <r>   -28.8498    -0.0019    -0.0002 </r>
       <r>   -28.7444    -0.1871    -0.0199 </r>
       <r>   -28.6389     0.0574    -0.0139 </r>
       <r>   -28.5335    12.4352     1.2971 </r>
       <r>   -28.4281     7.3400     2.0709 </r>
       <r>   -28.3227    -0.6186     2.0057 </r>
       <r>   -28.2173    -0.0537     2.0000 </r>
       <r>   -28.1118    -0.0002     2.0000 </r>
       <r>   -28.0064    -0.0000     2.0000 </r>
       <r>   -27.9010    -0.0000     2.0000 </r>
       <r>   -27.7956     0.0000     2.0000 </r>
       <r>   -27.6901     0.0000     2.0000 </r>
       <r>   -27.5847     0.0000     2.0000 </r>
       <r>   -27.4793     0.0000     2.0000 </r>
       <r>   -27.3739     0.0000     2.0000 </r>
       <r>   -27.2684     0.0000     2.0000 </r>
       <r>   -27.1630     0.0000     2.0000 </r>
       <r>   -27.0576     0.0000     2.0000 </r>
       <r>   -26.9522     0.0000     2.0000 </r>
       <r>   -26.8468     0.0000     2.0000 </r>
       <r>   -26.7413     0.0000     2.0000 </r>
       <r>   -26.6359     0.0000     2.0000 </r>
       <r>   -26.5305     0.0000     2.0000 </r>
       <r>   -26.4251     0.0000     2.0000 </r>
       <r>   -26.3196     0.0000     2.0000 </r>
       <r>   -26.2142     0.0000     2.0000 </r>
       <r>   -26.1088     0.0000     2.0000 </r>
       <r>   -26.0034     0.0000     2.0000 </r>
       <r>   -25.8979     0.0000     2.0000 </r>
       <r>   -25.7925     0.0000     2.0000 </r>
       <r>   -25.6871     0.0000     2.0000 </r>
       <r>   -25.5817     0.0000     2.0000 </r>
       <r>   -25.4763     0.0000     2.0000 </r>
       <r>   -25.3708     0.0000     2.0000 </r>
       <r>   -25.2654     0.0000     2.0000 </r>
       <r>   -25.1600     0.0000     2.0000 </r>
       <r>   -25.0546     0.0000     2.0000 </r>
       <r>   -24.9491     0.0000     2.0000 </r>
       <r>   -24.8437     0.0000     2.0000 </r>
       <r>   -24.7383     0.0000     2.0000 </r>
       <r>   -24.6329     0.0000     2.0000 </r>
       <r>   -24.5274     0.0000     2.0000 </r>
       <r>   -24.4220     0.0000     2.0000 </r>
       <r>   -24.3166     0.0000     2.0000 </r>
       <r>   -24.2112     0.0000     2.0000 </r>
       <r>   -24.1058     0.0000     2.0000 </r>
       <r>   -24.0003     0.0000     2.0000 </r>
       <r>   -23.8949     0.0000     2.0000 </r>
       <r>   -23.7895     0.0000     2.0000 </r>
       <r>   -23.6841     0.0000     2.0000 </r>
       <r>   -23.5786     0.0000     2.0000 </r>
       <r>   -23.4732     0.0000     2.0000 </r>
       <r>   -23.3678     0.0000     2.0000 </r>
       <r>   -23.2624     0.0000     2.0000 </r>
       <r>   -23.1569     0.0000     2.0000 </r>
       <r>   -23.0515     0.0000     2.0000 </r>
       <r>   -22.9461     0.0000     2.0000 </r>
       <r>   -22.8407     0.0000     2.0000 </r>
       <r>   -22.7353     0.0000     2.0000 </r>
       <r>   -22.6298     0.0000     2.0000 </r>
       <r>   -22.5244     0.0000     2.0000 </r>
       <r>   -22.4190     0.0000     2.0000 </r>
       <r>   -22.3136     0.0000     2.0000 </r>
       <r>   -22.2081     0.0000     2.0000 </r>
       <r>   -22.1027     0.0000     2.0000 </r>
       <r>   -21.9973     0.0000     2.0000 </r>
       <r>   -21.8919     0.0000     2.0000 </r>
       <r>   -21.7864     0.0000     2.0000 </r>
       <r>   -21.6810     0.0000     2.0000 </r>
       <r>   -21.5756     0.0000     2.0000 </r>
       <r>   -21.4702     0.0000     2.0000 </r>
       <r>   -21.3648     0.0000     2.0000 </r>
       <r>   -21.2593     0.0000     2.0000 </r>
       <r>   -21.1539     0.0000     2.0000 </r>
       <r>   -21.0485     0.0000     2.0000 </r>
       <r>   -20.9431     0.0000     2.0000 </r>
       <r>   -20.8376     0.0000     2.0000 </r>
       <r>   -20.7322     0.0000     2.0000 </r>
       <r>   -20.6268     0.0000     2.0000 </r>
       <r>   -20.5214     0.0000     2.0000 </r>
       <r>   -20.4159     0.0000     2.0000 </r>
       <r>   -20.3105     0.0000     2.0000 </r>
       <r>   -20.2051     0.0000     2.0000 </r>
       <r>   -20.0997     0.0000     2.0000 </r>
       <r>   -19.9943     0.0000     2.0000 </r>
       <r>   -19.8888     0.0000     2.0000 </r>
       <r>   -19.7834     0.0000     2.0000 </r>
       <r>   -19.6780     0.0000     2.0000 </r>
       <r>   -19.5726     0.0000     2.0000 </r>
       <r>   -19.4671     0.0000     2.0000 </r>
       <r>   -19.3617     0.0000     2.0000 </r>
       <r>   -19.2563     0.0000     2.0000 </r>
       <r>   -19.1509     0.0000     2.0000 </r>
       <r>   -19.0454     0.0000     2.0000 </r>
       <r>   -18.9400     0.0000     2.0000 </r>
       <r>   -18.8346     0.0000     2.0000 </r>
       <r>   -18.7292     0.0000     2.0000 </r>
       <r>   -18.6238     0.0000     2.0000 </r>
       <r>   -18.5183     0.0000     2.0000 </r>
       <r>   -18.4129     0.0000     2.0000 </r>
       <r>   -18.3075     0.0000     2.0000 </r>
       <r>   -18.2021     0.0000     2.0000 </r>
       <r>   -18.0966     0.0000     2.0000 </r>
       <r>   -17.9912     0.0000     2.0000 </r>
       <r>   -17.8858     0.0000     2.0000 </r>
       <r>   -17.7804     0.0000     2.0000 </r>
       <r>   -17.6749     0.0000     2.0000 </r>
       <r>   -17.5695     0.0000     2.0000 </r>
       <r>   -17.4641     0.0000     2.0000 </r>
       <r>   -17.3587     0.0000     2.0000 </r>
       <r>   -17.2533     0.0000     2.0000 </r>
       <r>   -17.1478     0.0000     2.0000 </r>
       <r>   -17.0424     0.0000     2.0000 </r>
       <r>   -16.9370     0.0000     2.0000 </r>
       <r>   -16.8316     0.0000     2.0000 </r>
       <r>   -16.7261     0.0000     2.0000 </r>
       <r>   -16.6207     0.0000     2.0000 </r>
       <r>   -16.5153     0.0000     2.0000 </r>
       <r>   -16.4099     0.0000     2.0000 </r>
       <r>   -16.3044     0.0000     2.0000 </r>
       <r>   -16.1990     0.0000     2.0000 </r>
       <r>   -16.0936     0.0000     2.0000 </r>
       <r>   -15.9882     0.0000     2.0000 </r>
       <r>   -15.8828     0.0000     2.0000 </r>
       <r>   -15.7773     0.0000     2.0000 </r>
       <r>   -15.6719     0.0000     2.0000 </r>
       <r>   -15.5665     0.0000     2.0000 </r>
       <r>   -15.4611     0.0000     2.0000 </r>
       <r>   -15.3556     0.0000     2.0000 </r>
       <r>   -15.2502     0.0000     2.0000 </r>
       <r>   -15.1448     0.0000     2.0000 </r>
       <r>   -15.0394     0.0000     2.0000 </r>
       <r>   -14.9339     0.0000     2.0000 </r>
       <r>   -14.8285     0.0000     2.0000 </r>
       <r>   -14.7231    -0.0000     2.0000 </r>
       <r>   -14.6177    -0.0000     2.0000 </r>
       <r>   -14.5123    -0.0000     2.0000 </r>
       <r>   -14.4068    -0.0000     2.0000 </r>
       <r>   -14.3014    -0.0000     2.0000 </r>
       <r>   -14.1960    -0.0000     2.0000 </r>
       <r>   -14.0906    -0.0094     1.9990 </r>
       <r>   -13.9851    -0.4038     1.9564 </r>
       <r>   -13.8797     2.1606     2.1842 </r>
       <r>   -13.7743    14.5523     3.7184 </r>
       <r>   -13.6689     3.1662     4.0522 </r>
       <r>   -13.5634    -0.4802     4.0015 </r>
       <r>   -13.4580    -0.0146     4.0000 </r>
       <r>   -13.3526    -0.0000     4.0000 </r>
       <r>   -13.2472    -0.0000     4.0000 </r>
       <r>   -13.1418    -0.0000     4.0000 </r>
       <r>   -13.0363     0.0000     4.0000 </r>
       <r>   -12.9309     0.0000     4.0000 </r>
       <r>   -12.8255     0.0000     4.0000 </r>
       <r>   -12.7201     0.0000     4.0000 </r>
       <r>   -12.6146     0.0000     4.0000 </r>
       <r>   -12.5092     0.0000     4.0000 </r>
       <r>   -12.4038     0.0000     4.0000 </r>
       <r>   -12.2984     0.0000     4.0000 </r>
       <r>   -12.1929    -0.0000     4.0000 </r>
       <r>   -12.0875    -0.0000     4.0000 </r>
       <r>   -11.9821    -0.0000     4.0000 </r>
       <r>   -11.8767    -0.0000     4.0000 </r>
       <r>   -11.7712    -0.0000     4.0000 </r>
       <r>   -11.6658    -0.0004     4.0000 </r>
       <r>   -11.5604    -0.0798     3.9915 </r>
       <r>   -11.4550    -0.5777     3.9306 </r>
       <r>   -11.3496     8.4374     4.8201 </r>
       <r>   -11.2441    14.4368     6.3421 </r>
       <r>   -11.1387    14.2289     7.8422 </r>
       <r>   -11.0333     1.8554     8.0378 </r>
       <r>   -10.9279    -1.0141     7.9309 </r>
       <r>   -10.8224     6.6307     8.6299 </r>
       <r>   -10.7170    12.9430     9.9944 </r>
       <r>   -10.6116     0.2703    10.0229 </r>
       <r>   -10.5062    -0.2144    10.0003 </r>
       <r>   -10.4007    -0.0029    10.0000 </r>
       <r>   -10.2953    -0.0736     9.9922 </r>
       <r>   -10.1899    -0.5811     9.9309 </r>
       <r>   -10.0845     8.5973    10.8373 </r>
       <r>    -9.9791    11.4112    12.0403 </r>
       <r>    -9.8736    -0.2363    12.0154 </r>
       <r>    -9.7682    -0.1447    12.0001 </r>
       <r>    -9.6628    -0.0012    12.0000 </r>
       <r>    -9.5574    -0.0000    12.0000 </r>
       <r>    -9.4519    -0.0000    12.0000 </r>
       <r>    -9.3465    -0.0000    12.0000 </r>
       <r>    -9.2411    -0.0000    12.0000 </r>
       <r>    -9.1357    -0.0000    12.0000 </r>
       <r>    -9.0302    -0.0000    12.0000 </r>
       <r>    -8.9248    -0.0043    11.9995 </r>
       <r>    -8.8194    -0.2829    11.9697 </r>
       <r>    -8.7140     0.8723    12.0617 </r>
       <r>    -8.6086    13.8465    13.5214 </r>
       <r>    -8.5031     5.1551    14.0649 </r>
       <r>    -8.3977    -0.5864    14.0031 </r>
       <r>    -8.2923    -0.0474    13.9981 </r>
       <r>    -8.1869    -0.5182    13.9434 </r>
       <r>    -8.0814     3.7565    14.3395 </r>
       <r>    -7.9760    14.4212    15.8598 </r>
       <r>    -7.8706     1.6643    16.0352 </r>
       <r>    -7.7652    -0.9744    15.9325 </r>
       <r>    -7.6597     5.8082    16.5448 </r>
       <r>    -7.5543    12.4721    17.8597 </r>
       <r>    -7.4489    14.0285    19.3386 </r>
       <r>    -7.3435    23.4303    21.8087 </r>
       <r>    -7.2381     9.3949    22.7992 </r>
       <r>    -7.1326    22.7887    25.2016 </r>
       <r>    -7.0272    23.6658    27.6965 </r>
       <r>    -6.9218    17.9202    29.5857 </r>
       <r>    -6.8164    24.3182    32.1494 </r>
       <r>    -6.7109    26.7938    34.9741 </r>
       <r>    -6.6055    19.6615    37.0469 </r>
       <r>    -6.5001    47.3496    42.0386 </r>
       <r>    -6.3947    54.4887    47.7830 </r>
       <r>    -6.2892    41.2133    52.1278 </r>
       <r>    -6.1838    54.9963    57.9257 </r>
       <r>    -6.0784    54.3041    63.6506 </r>
       <r>    -5.9730    32.5834    67.0857 </r>
       <r>    -5.8676    24.0283    69.6188 </r>
       <r>    -5.7621    30.6481    72.8498 </r>
       <r>    -5.6567    37.1875    76.7703 </r>
       <r>    -5.5513    50.1727    82.0596 </r>
       <r>    -5.4459    51.9454    87.5359 </r>
       <r>    -5.3404    56.8717    93.5315 </r>
       <r>    -5.2350    81.6781   102.1422 </r>
       <r>    -5.1296    84.9455   111.0974 </r>
       <r>    -5.0242    86.3822   120.2041 </r>
       <r>    -4.9187    78.9949   128.5320 </r>
       <r>    -4.8133    75.8046   136.5236 </r>
       <r>    -4.7079    71.1268   144.0220 </r>
       <r>    -4.6025    19.6001   146.0883 </r>
       <r>    -4.4971     4.9202   146.6070 </r>
       <r>    -4.3916    12.9750   147.9748 </r>
       <r>    -4.2862    -0.1861   147.9552 </r>
       <r>    -4.1808     4.4523   148.4246 </r>
       <r>    -4.0754    20.1153   150.5452 </r>
       <r>    -3.9699    13.9383   152.0146 </r>
       <r>    -3.8645     0.0947   152.0246 </r>
       <r>    -3.7591    -0.2305   152.0003 </r>
       <r>    -3.6537    -0.0054   151.9997 </r>
       <r>    -3.5482    -0.2215   151.9764 </r>
       <r>    -3.4428     0.3285   152.0110 </r>
       <r>    -3.3374    13.0597   153.3878 </r>
       <r>    -3.2320     6.4614   154.0690 </r>
       <r>    -3.1266    -0.9702   153.9667 </r>
       <r>    -3.0211     1.5241   154.1274 </r>
       <r>    -2.9157    14.1325   155.6173 </r>
       <r>    -2.8103     4.3399   156.0748 </r>
       <r>    -2.7049    12.2391   157.3651 </r>
       <r>    -2.5994     8.7609   158.2887 </r>
       <r>    -2.4940    13.8438   159.7481 </r>
       <r>    -2.3886     2.4055   160.0017 </r>
       <r>    -2.2832    10.5795   161.1170 </r>
       <r>    -2.1777     9.0040   162.0663 </r>
       <r>    -2.0723    -0.9688   161.9641 </r>
       <r>    -1.9669     1.5980   162.1326 </r>
       <r>    -1.8615    16.6977   163.8929 </r>
       <r>    -1.7561    20.7123   166.0765 </r>
       <r>    -1.6506    16.7534   167.8427 </r>
       <r>    -1.5452     1.4061   167.9909 </r>
       <r>    -1.4398     3.2258   168.3310 </r>
       <r>    -1.3344    14.4378   169.8531 </r>
       <r>    -1.2289     1.7504   170.0376 </r>
       <r>    -1.1235    -0.9147   169.9412 </r>
       <r>    -1.0181     3.8982   170.3521 </r>
       <r>    -0.9127    14.8966   171.9226 </r>
       <r>    -0.8072    14.7491   173.4775 </r>
       <r>    -0.7018     5.5838   174.0661 </r>
       <r>    -0.5964    12.1369   175.3456 </r>
       <r>    -0.4910     6.3685   176.0170 </r>
       <r>    -0.3856     2.3098   176.2605 </r>
       <r>    -0.2801    15.7878   177.9249 </r>
       <r>    -0.1747    15.8475   179.5956 </r>
       <r>    -0.0693     6.7153   180.3036 </r>
       <r>     0.0361    13.4779   181.7245 </r>
       <r>     0.1416     6.8598   182.4476 </r>
       <r>     0.2470    13.7740   183.8997 </r>
       <r>     0.3524     1.2824   184.0349 </r>
       <r>     0.4578    -0.3256   184.0006 </r>
       <r>     0.5633    -0.0058   184.0000 </r>
       <r>     0.6687    -0.0000   184.0000 </r>
       <r>     0.7741    -0.0000   184.0000 </r>
       <r>     0.8795    -0.0000   184.0000 </r>
       <r>     0.9849     0.0000   184.0000 </r>
       <r>     1.0904     0.0000   184.0000 </r>
       <r>     1.1958     0.0000   184.0000 </r>
       <r>     1.3012     0.0000   184.0000 </r>
       <r>     1.4066     0.0000   184.0000 </r>
       <r>     1.5121     0.0000   184.0000 </r>
       <r>     1.6175     0.0000   184.0000 </r>
      </set>
     </set>
    </array>
   </total>
  </dos>
 </calculation>
 <structure name="finalpos" >
  <crystal>
   <varray name="basis" >
    <v>      15.00000000       0.00000000       0.00000000 </v>
    <v>       0.00000000      15.00000000       0.00000000 </v>
    <v>       0.00000000       0.00000000      15.00000000 </v>
   </varray>
   <i name="volume">   3375.00000000 </i>
   <varray name="rec_basis" >
    <v>       0.06666667       0.00000000       0.00000000 </v>
    <v>       0.00000000       0.06666667       0.00000000 </v>
    <v>       0.00000000       0.00000000       0.06666667 </v>
   </varray>
  </crystal>
  <varray name="positions" >
   <v>       0.29032533       0.41498000       0.55787067 </v>
   <v>       0.37751733       0.55020400       0.48969933 </v>
   <v>       0.39806133       0.29272600       0.55799267 </v>
   <v>       0.53181067       0.50036667       0.48044533 </v>
   <v>       0.55020267       0.35084467       0.53610933 </v>
   <v>       0.44171333       0.43833267       0.61126333 </v>
   <v>       0.42129333       0.39231400       0.44698200 </v>
   <v>       0.22378600       0.56970933       0.55324733 </v>
   <v>       0.32995467       0.54714333       0.65801600 </v>
   <v>       0.35271067       0.68269333       0.56509133 </v>
   <v>       0.48316733       0.66964000       0.47036067 </v>
   <v>       0.63510400       0.48803067       0.59896800 </v>
   <v>       0.47951600       0.58837200       0.62088600 </v>
   <v>       0.74432000       0.49874533       0.66052267 </v>
   <v>       0.82063333       0.49505867       0.67080667 </v>
  </varray>
 </structure>
</modeling>
