 vasp.5.4.4.18Apr17-6-g9f103f2a35 (build May 08 2019 13:49:07) complex          
  
 executed on             LinuxIFC date 2019.11.13  13:20:20
 running on   24 total cores
 distrk:  each k-point on   24 cores,    1 groups
 distr:  one band on NCORES_PER_BAND=   6 cores,    4 groups


--------------------------------------------------------------------------------------------------------


 INCAR:
 POTCAR:    PAW_PBE Cu 22Jun2005                  
 POTCAR:    PAW_PBE C 08Apr2002                   
 POTCAR:    PAW_PBE O 08Apr2002                   
 POTCAR:    PAW_PBE Cu 22Jun2005                  
   VRHFIN =Cu: d10 p1                                                           
   LEXCH  = PE                                                                  
   EATOM  =  1390.9808 eV,  102.2342 Ry                                         
                                                                                
   TITEL  = PAW_PBE Cu 22Jun2005                                                
   LULTRA =        F    use ultrasoft PP ?                                      
   IUNSCR =        1    unscreen: 0-lin 1-nonlin 2-no                           
   RPACOR =    2.000    partial core radius                                     
   POMASS =   63.546; ZVAL   =   11.000    mass and valenz                      
   RCORE  =    2.300    outmost cutoff radius                                   
   RWIGS  =    2.200; RWIGS  =    1.164    wigner-seitz radius (au A)           
   ENMAX  =  295.446; ENMIN  =  221.585 eV                                      
   ICORE  =        3    local potential                                         
   LCOR   =        T    correct aug charges                                     
   LPAW   =        T    paw PP                                                  
   EAUG   =  586.980                                                            
   DEXC   =    0.000                                                            
   RMAX   =    2.344    core radius for proj-oper                               
   RAUG   =    1.300    factor for augmentation sphere                          
   RDEP   =    2.302    radius for radial grids                                 
   RDEPT  =    1.771    core radius for aug-charge                              
                                                                                
   Atomic configuration                                                         
    9 entries                                                                   
     n  l   j            E        occ.                                          
     1  0  0.50     -8850.2468   2.0000                                         
     2  0  0.50     -1062.3498   2.0000                                         
     2  1  1.50      -916.8226   6.0000                                         
     3  0  0.50      -114.6929   2.0000                                         
     3  1  1.50       -72.1325   6.0000                                         
     3  2  2.50        -5.0394  10.0000                                         
     4  0  0.50        -4.6097   1.0000                                         
     4  1  0.50        -4.0817   0.0000                                         
     4  3  2.50        -1.3606   0.0000                                         
   Description                                                                  
     l       E           TYP  RCUT    TYP  RCUT                                 
     2     -5.0393973     23  2.200                                             
     2     10.8846608     23  2.200                                             
     0     -4.6097109     23  2.200                                             
     0      8.2520465     23  2.200                                             
     1     -2.7211652     23  2.200                                             
     1     21.7055443     23  2.200                                             
     3      2.7211652     23  2.300                                             
  local pseudopotential read in
  partial core-charges read in
  partial kinetic energy density read in
  atomic valenz-charges read in
  non local Contribution for L=           2  read in
    real space projection operators read in
  non local Contribution for L=           2  read in
    real space projection operators read in
  non local Contribution for L=           0  read in
    real space projection operators read in
  non local Contribution for L=           0  read in
    real space projection operators read in
  non local Contribution for L=           1  read in
    real space projection operators read in
  non local Contribution for L=           1  read in
    real space projection operators read in
    PAW grid and wavefunctions read in
 
   number of l-projection  operators is LMAX  =           6
   number of lm-projection operators is LMMAX =          18
 
 POTCAR:    PAW_PBE C 08Apr2002                   
   VRHFIN =C: s2p2                                                              
   LEXCH  = PE                                                                  
   EATOM  =   147.1560 eV,   10.8157 Ry                                         
                                                                                
   TITEL  = PAW_PBE C 08Apr2002                                                 
   LULTRA =        F    use ultrasoft PP ?                                      
   IUNSCR =        1    unscreen: 0-lin 1-nonlin 2-no                           
   RPACOR =    1.200    partial core radius                                     
   POMASS =   12.011; ZVAL   =    4.000    mass and valenz                      
   RCORE  =    1.500    outmost cutoff radius                                   
   RWIGS  =    1.630; RWIGS  =    0.863    wigner-seitz radius (au A)           
   ENMAX  =  400.000; ENMIN  =  300.000 eV                                      
   ICORE  =        2    local potential                                         
   LCOR   =        T    correct aug charges                                     
   LPAW   =        T    paw PP                                                  
   EAUG   =  644.873                                                            
   DEXC   =    0.000                                                            
   RMAX   =    1.529    core radius for proj-oper                               
   RAUG   =    1.300    factor for augmentation sphere                          
   RDEP   =    1.501    radius for radial grids                                 
   RDEPT  =    1.300    core radius for aug-charge                              
                                                                                
   Atomic configuration                                                         
    4 entries                                                                   
     n  l   j            E        occ.                                          
     1  0  0.50      -273.3789   2.0000                                         
     2  0  0.50       -13.7508   2.0000                                         
     2  1  0.50        -5.2854   2.0000                                         
     3  2  1.50        -5.4423   0.0000                                         
   Description                                                                  
     l       E           TYP  RCUT    TYP  RCUT                                 
     0    -13.7508458     23  1.200                                             
     0     -8.2022199     23  1.200                                             
     1     -5.2854383     23  1.500                                             
     1     34.0145650     23  1.500                                             
     2     -5.4423304      7  1.500                                             
  local pseudopotential read in
  partial core-charges read in
  partial kinetic energy density read in
  atomic valenz-charges read in
  non local Contribution for L=           0  read in
    real space projection operators read in
  non local Contribution for L=           0  read in
    real space projection operators read in
  non local Contribution for L=           1  read in
    real space projection operators read in
  non local Contribution for L=           1  read in
    real space projection operators read in
    PAW grid and wavefunctions read in
 
   number of l-projection  operators is LMAX  =           4
   number of lm-projection operators is LMMAX =           8
 
 POTCAR:    PAW_PBE O 08Apr2002                   
   VRHFIN =O: s2p4                                                              
   LEXCH  = PE                                                                  
   EATOM  =   432.3788 eV,   31.7789 Ry                                         
                                                                                
   TITEL  = PAW_PBE O 08Apr2002                                                 
   LULTRA =        F    use ultrasoft PP ?                                      
   IUNSCR =        1    unscreen: 0-lin 1-nonlin 2-no                           
   RPACOR =    1.200    partial core radius                                     
   POMASS =   16.000; ZVAL   =    6.000    mass and valenz                      
   RCORE  =    1.520    outmost cutoff radius                                   
   RWIGS  =    1.550; RWIGS  =    0.820    wigner-seitz radius (au A)           
   ENMAX  =  400.000; ENMIN  =  300.000 eV                                      
   ICORE  =        2    local potential                                         
   LCOR   =        T    correct aug charges                                     
   LPAW   =        T    paw PP                                                  
   EAUG   =  605.392                                                            
   DEXC   =    0.000                                                            
   RMAX   =    1.553    core radius for proj-oper                               
   RAUG   =    1.300    factor for augmentation sphere                          
   RDEP   =    1.550    radius for radial grids                                 
   RDEPT  =    1.329    core radius for aug-charge                              
                                                                                
   Atomic configuration                                                         
    4 entries                                                                   
     n  l   j            E        occ.                                          
     1  0  0.50      -514.6923   2.0000                                         
     2  0  0.50       -23.9615   2.0000                                         
     2  1  0.50        -9.0305   4.0000                                         
     3  2  1.50        -9.5241   0.0000                                         
   Description                                                                  
     l       E           TYP  RCUT    TYP  RCUT                                 
     0    -23.9615318     23  1.200                                             
     0     -9.5240782     23  1.200                                             
     1     -9.0304911     23  1.520                                             
     1      8.1634956     23  1.520                                             
     2     -9.5240782      7  1.500                                             
  local pseudopotential read in
  partial core-charges read in
  partial kinetic energy density read in
  kinetic energy density of atom read in
  atomic valenz-charges read in
  non local Contribution for L=           0  read in
    real space projection operators read in
  non local Contribution for L=           0  read in
    real space projection operators read in
  non local Contribution for L=           1  read in
    real space projection operators read in
  non local Contribution for L=           1  read in
    real space projection operators read in
    PAW grid and wavefunctions read in
 
   number of l-projection  operators is LMAX  =           4
   number of lm-projection operators is LMMAX =           8
 
  PAW_PBE Cu 22Jun2005                  :
 energy of atom  1       EATOM=-1390.9808
 kinetic energy error for atom=    0.0033 (will be added to EATOM!!)
  PAW_PBE C 08Apr2002                   :
 energy of atom  2       EATOM= -147.1560
 kinetic energy error for atom=    0.0057 (will be added to EATOM!!)
  PAW_PBE O 08Apr2002                   :
 energy of atom  3       EATOM= -432.3788
 kinetic energy error for atom=    0.0168 (will be added to EATOM!!)
 
 
 POSCAR: Cu13 C1 O1                              
  positions in cartesian coordinates
  No initial velocities read in
 exchange correlation table for  LEXCH =        8
   RHO(1)=    0.500       N(1)  =     2000
   RHO(2)=  100.500       N(2)  =     4000
 


--------------------------------------------------------------------------------------------------------


 ion  position               nearest neighbor table
   1  0.290  0.417  0.557-   9 2.44   3 2.44   8 2.53   7 2.53   6 2.54   2 2.60
   2  0.379  0.548  0.487-   4 2.38  10 2.40   7 2.43   8 2.46  11 2.49   9 2.58  13 2.60   1 2.60
                             6 2.72
   3  0.395  0.292  0.562-   7 2.34   1 2.44   6 2.47   5 2.52
   4  0.532  0.506  0.481-   2 2.38  12 2.39   5 2.44   7 2.45  11 2.52  13 2.55   6 2.58
   5  0.549  0.351  0.529-   6 2.38   7 2.43   4 2.44   3 2.52  12 2.55
   6  0.448  0.439  0.615-  13 2.35   9 2.38   5 2.38   3 2.47   1 2.54   4 2.58   7 2.65  12 2.68
                             2 2.72
   7  0.416  0.395  0.447-   3 2.34   2 2.43   5 2.43   4 2.45   1 2.53   6 2.65
   8  0.228  0.573  0.544-   9 2.31   2 2.46   1 2.53  10 2.54
   9  0.333  0.541  0.652-   8 2.31   6 2.38  13 2.42   1 2.44  10 2.50   2 2.58
  10  0.353  0.684  0.568-   2 2.40  11 2.47   9 2.50  13 2.50   8 2.54
  11  0.493  0.669  0.481-  13 2.37  10 2.47   2 2.49   4 2.52
  12  0.621  0.481  0.611-  14 1.84   4 2.39   5 2.55  13 2.66   6 2.68
  13  0.482  0.592  0.619-   6 2.35  11 2.37   9 2.42  10 2.50   4 2.55   2 2.60  12 2.66
  14  0.738  0.493  0.646-  15 1.15  12 1.84
  15  0.814  0.490  0.653-  14 1.15
 

IMPORTANT INFORMATION: All symmetrisations will be switched off!
NOSYMM: (Re-)initialisation of all symmetry stuff for point group C_1.

 
 

Automatic generation of k-mesh.
 generate k-points for:    1    1    1
Space group operators:
 irot       det(A)        alpha          n_x          n_y          n_z        tau_x        tau_y        tau_z
    1     1.000000     0.000000     1.000000     0.000000     0.000000     0.000000     0.000000     0.000000
 
 Subroutine IBZKPT returns following result:
 ===========================================
 
 Found      1 irreducible k-points:
 
 Following reciprocal coordinates:
            Coordinates               Weight
  0.000000  0.000000  0.000000      1.000000
 
 Following cartesian coordinates:
            Coordinates               Weight
  0.000000  0.000000  0.000000      1.000000
 


--------------------------------------------------------------------------------------------------------




 Dimension of arrays:
   k-points           NKPTS =      1   k-points in BZ     NKDIM =      1   number of bands    NBANDS=     92
   number of dos      NEDOS =    301   number of ions     NIONS =     15
   non local maximal  LDIM  =      6   non local SUM 2l+1 LMDIM =     18
   total plane-waves  NPLWV = ******
   max r-space proj   IRMAX =      1   max aug-charges    IRDMAX=  15028
   dimension x,y,z NGX =   120 NGY =  120 NGZ =  120
   dimension x,y,z NGXF=   240 NGYF=  240 NGZF=  240
   support grid    NGXF=   240 NGYF=  240 NGZF=  240
   ions per type =              13   1   1
   NGX,Y,Z   is equivalent  to a cutoff of  13.30, 13.30, 13.30 a.u.
   NGXF,Y,Z  is equivalent  to a cutoff of  26.60, 26.60, 26.60 a.u.

 SYSTEM =  CuCO                                    
 POSCAR =  Cu13 C1 O1                              

 Startparameter for this run:
   NWRITE =      2    write-flag & timer
   PREC   = accura    normal or accurate (medium, high low for compatibility)
   ISTART =      0    job   : 0-new  1-cont  2-samecut
   ICHARG =      2    charge: 1-file 2-atom 10-const
   ISPIN  =      2    spin polarized calculation?
   LNONCOLLINEAR =      F non collinear calculations
   LSORBIT =      F    spin-orbit coupling
   INIWAV =      1    electr: 0-lowe 1-rand  2-diag
   LASPH  =      F    aspherical Exc in radial PAW
   METAGGA=      F    non-selfconsistent MetaGGA calc.

 Electronic Relaxation 1
   ENCUT  =  600.0 eV  44.10 Ry    6.64 a.u.  29.96 29.96 29.96*2*pi/ulx,y,z
   ENINI  =  600.0     initial cutoff
   ENAUG  =  644.9 eV  augmentation charge cutoff
   NELM   =    300;   NELMIN=  3; NELMDL= -5     # of ELM steps 
   EDIFF  = 0.1E-06   stopping-criterion for ELM
   LREAL  =      F    real-space projection
   NLSPLINE    = F    spline interpolate recip. space projectors
   LCOMPAT=      F    compatible to vasp.4.4
   GGA_COMPAT  = T    GGA compatible to vasp.4.4-vasp.4.6
   LMAXPAW     = -100 max onsite density
   LMAXMIX     =    2 max onsite mixed and CHGCAR
   VOSKOWN=      0    Vosko Wilk Nusair interpolation
   ROPT   =    0.00000   0.00000   0.00000
 Ionic relaxation
   EDIFFG = -.1E-02   stopping-criterion for IOM
   NSW    =      0    number of steps for IOM
   NBLOCK =      1;   KBLOCK =      1    inner block; outer block 
   IBRION =     -1    ionic relax: 0-MD 1-quasi-New 2-CG
   NFREE  =      0    steps in history (QN), initial steepest desc. (CG)
   ISIF   =      2    stress and relaxation
   IWAVPR =     10    prediction:  0-non 1-charg 2-wave 3-comb
   ISYM   =      0    0-nonsym 1-usesym 2-fastsym
   LCORR  =      T    Harris-Foulkes like correction to forces

   POTIM  = 0.5000    time-step for ionic-motion
   TEIN   =    0.0    initial temperature
   TEBEG  =    0.0;   TEEND  =   0.0 temperature during run
   SMASS  =  -3.00    Nose mass-parameter (am)
   estimated Nose-frequenzy (Omega)   =  0.10E-29 period in steps =****** mass=  -0.514E-26a.u.
   SCALEE = 1.0000    scale energy and forces
   NPACO  =    256;   APACO  = 16.0  distance and # of slots for P.C.
   PSTRESS=    0.0 pullay stress

  Mass of Ions in am
   POMASS =  63.55 12.01 16.00
  Ionic Valenz
   ZVAL   =  11.00  4.00  6.00
  Atomic Wigner-Seitz radii
   RWIGS  =  -1.00 -1.00 -1.00
  virtual crystal weights 
   VCA    =   1.00  1.00  1.00
   NELECT =     153.0000    total number of electrons
   NUPDOWN=       1.0000    fix difference up-down

 DOS related values:
   EMIN   =  10.00;   EMAX   =-10.00  energy-range for DOS
   EFERMI =   0.00
   ISMEAR =     1;   SIGMA  =   0.10  broadening in eV -4-tet -1-fermi 0-gaus

 Electronic relaxation 2 (details)
   IALGO  =     68    algorithm
   LDIAG  =      T    sub-space diagonalisation (order eigenvalues)
   LSUBROT=      F    optimize rotation matrix (better conditioning)
   TURBO    =      0    0=normal 1=particle mesh
   IRESTART =      0    0=no restart 2=restart with 2 vectors
   NREBOOT  =      0    no. of reboots
   NMIN     =      0    reboot dimension
   EREF     =   0.00    reference energy to select bands
   IMIX   =      4    mixing-type and parameters
     AMIX     =   0.40;   BMIX     =  1.00
     AMIX_MAG =   1.60;   BMIX_MAG =  1.00
     AMIN     =   0.10
     WC   =   100.;   INIMIX=   1;  MIXPRE=   1;  MAXMIX= -45

 Intra band minimization:
   WEIMIN = 0.0000     energy-eigenvalue tresh-hold
   EBREAK =  0.27E-09  absolut break condition
   DEPER  =   0.30     relativ break condition  

   TIME   =   0.40     timestep for ELM

  volume/ion in A,a.u.               =     225.00      1518.37
  Fermi-wavevector in a.u.,A,eV,Ry     =   0.583733  1.103095  4.636102  0.340744
  Thomas-Fermi vector in A             =   1.629149
 
 Write flags
   LWAVE        =      F    write WAVECAR
   LDOWNSAMPLE  =      F    k-point downsampling of WAVECAR
   LCHARG       =      F    write CHGCAR
   LVTOT        =      F    write LOCPOT, total local potential
   LVHAR        =      F    write LOCPOT, Hartree potential only
   LELF         =      F    write electronic localiz. function (ELF)
   LORBIT       =      0    0 simple, 1 ext, 2 COOP (PROOUT), +10 PAW based schemes


 Dipole corrections
   LMONO  =      F    monopole corrections only (constant potential shift)
   LDIPOL =      F    correct potential (dipole corrections)
   IDIPOL =      0    1-x, 2-y, 3-z, 4-all directions 
   EPSILON=  1.0000000 bulk dielectric constant

 Exchange correlation treatment:
   GGA     =    PE    GGA type
   LEXCH   =     8    internal setting for exchange type
   VOSKOWN=      0    Vosko Wilk Nusair interpolation
   LHFCALC =     F    Hartree Fock is set to
   LHFONE  =     F    Hartree Fock one center treatment
   AEXX    =    0.0000 exact exchange contribution

 Linear response parameters
   LEPSILON=     F    determine dielectric tensor
   LRPA    =     F    only Hartree local field effects (RPA)
   LNABLA  =     F    use nabla operator in PAW spheres
   LVEL    =     F    velocity operator in full k-point grid
   LINTERFAST=   F  fast interpolation
   KINTER  =     0    interpolate to denser k-point grid
   CSHIFT  =0.1000    complex shift for real part using Kramers Kronig
   OMEGAMAX=  -1.0    maximum frequency
   DEG_THRESHOLD= 0.2000000E-02 threshold for treating states as degnerate
   RTIME   =   -0.100 relaxation time in fs
  (WPLASMAI=    0.000 imaginary part of plasma frequency in eV, 0.658/RTIME)
   DFIELD  = 0.0000000 0.0000000 0.0000000 field for delta impulse in time
 
 Orbital magnetization related:
   ORBITALMAG=     F  switch on orbital magnetization
   LCHIMAG   =     F  perturbation theory with respect to B field
   DQ        =  0.001000  dq finite difference perturbation B field
   LLRAUG    =     F  two centre corrections for induced B field



--------------------------------------------------------------------------------------------------------


 Static calculation
 charge density and potential will be updated during run
 spin polarized calculation
 RMM-DIIS sequential band-by-band and
  variant of blocked Davidson during initial phase
 perform sub-space diagonalisation
    before iterative eigenvector-optimisation
 modified Broyden-mixing scheme, WC =      100.0
 initial mixing is a Kerker type mixing with AMIX =  0.4000 and BMIX =      1.0000
 Hartree-type preconditioning will be used
 using additional bands           15
 reciprocal scheme for non local part
 use partial core corrections
 calculate Harris-corrections to forces 
   (improved forces if not selfconsistent)
 use gradient corrections 
 use of overlap-Matrix (Vanderbilt PP)
 Methfessel and Paxton  Order N= 1 SIGMA  =   0.10


--------------------------------------------------------------------------------------------------------


  energy-cutoff  :      600.00
  volume of cell :     3375.00
      direct lattice vectors                 reciprocal lattice vectors
    15.000000000  0.000000000  0.000000000     0.066666667  0.000000000  0.000000000
     0.000000000 15.000000000  0.000000000     0.000000000  0.066666667  0.000000000
     0.000000000  0.000000000 15.000000000     0.000000000  0.000000000  0.066666667

  length of vectors
    15.000000000 15.000000000 15.000000000     0.066666667  0.066666667  0.066666667


 
 k-points in units of 2pi/SCALE and weight: read from INCAR                         
   0.00000000  0.00000000  0.00000000       1.000
 
 k-points in reciprocal lattice and weights: read from INCAR                         
   0.00000000  0.00000000  0.00000000       1.000
 
 position of ions in fractional coordinates (direct lattice) 
   0.28978867  0.41678333  0.55725533
   0.37938867  0.54781067  0.48723533
   0.39455200  0.29226933  0.56203067
   0.53208800  0.50551600  0.48097133
   0.54854733  0.35095200  0.52924067
   0.44774467  0.43865533  0.61509467
   0.41599533  0.39545600  0.44691400
   0.22768467  0.57318533  0.54403933
   0.33272267  0.54135733  0.65231333
   0.35322467  0.68386000  0.56781000
   0.49269867  0.66887333  0.48146667
   0.62103400  0.48143600  0.61070733
   0.48248000  0.59152400  0.61920733
   0.73787333  0.49282067  0.64571867
   0.81441333  0.49028400  0.65270533
 
 position of ions in cartesian coordinates  (Angst):
   4.34683000  6.25175000  8.35883000
   5.69083000  8.21716000  7.30853000
   5.91828000  4.38404000  8.43046000
   7.98132000  7.58274000  7.21457000
   8.22821000  5.26428000  7.93861000
   6.71617000  6.57983000  9.22642000
   6.23993000  5.93184000  6.70371000
   3.41527000  8.59778000  8.16059000
   4.99084000  8.12036000  9.78470000
   5.29837000 10.25790000  8.51715000
   7.39048000 10.03310000  7.22200000
   9.31551000  7.22154000  9.16061000
   7.23720000  8.87286000  9.28811000
  11.06810000  7.39231000  9.68578000
  12.21620000  7.35426000  9.79058000
 


--------------------------------------------------------------------------------------------------------


 k-point  1 :   0.0000 0.0000 0.0000  plane waves:  112451

 maximum and minimum number of plane-waves per node :     18753    18726

 maximum number of plane-waves:    112451
 maximum index in each direction: 
   IXMAX=   29   IYMAX=   29   IZMAX=   29
   IXMIN=  -29   IYMIN=  -29   IZMIN=  -29


 parallel 3D FFT for wavefunctions:
    minimum data exchange during FFTs selected (reduces bandwidth)
 parallel 3D FFT for charge:
    minimum data exchange during FFTs selected (reduces bandwidth)


 total amount of memory used by VASP MPI-rank0   158680. kBytes
=======================================================================

   base      :      30000. kBytes
   nonl-proj :      12601. kBytes
   fftplans  :      27994. kBytes
   grid      :      74150. kBytes
   one-center:         93. kBytes
   wavefun   :      13842. kBytes
 
     INWAV:  cpu time    0.0000: real time    0.0000
 Broyden mixing: mesh for mixing (old mesh)
   NGX = 59   NGY = 59   NGZ = 59
  (NGX  =240   NGY  =240   NGZ  =240)
  gives a total of 205379 points

 initial charge density was supplied:
 charge density of overlapping atoms calculated
 number of electron     153.0000000 magnetization       1.0000000
 keeping initial charge density in first step


--------------------------------------------------------------------------------------------------------


 Maximum index for augmentation-charges          712 (set IRDMAX)


--------------------------------------------------------------------------------------------------------


 First call to EWALD:  gamma=   0.118
 Maximum number of real-space cells 3x 3x 3
 Maximum number of reciprocal cells 3x 3x 3

    FEWALD:  cpu time    0.0015: real time    0.0021


--------------------------------------- Iteration      1(   1)  ---------------------------------------


    POTLOK:  cpu time    1.1958: real time    1.2006
    SETDIJ:  cpu time    0.0173: real time    0.0173
     EDDAV:  cpu time    7.6226: real time    7.6293
       DOS:  cpu time    0.0013: real time    0.0014
    --------------------------------------------
      LOOP:  cpu time    8.8370: real time    8.8486

 eigenvalue-minimisations  :   376
 total energy-change (2. order) : 0.1117969E+04  (-0.4463857E+04)
 number of electron     153.0000000 magnetization       1.0000000
 augmentation part      153.0000000 magnetization       1.0000000

 Free energy of the ion-electron system (eV)
  ---------------------------------------------------
  alpha Z        PSCENC =        41.16232785
  Ewald energy   TEWEN  =     16439.67063756
  -Hartree energ DENC   =    -33461.01276448
  -exchange      EXHF   =         0.00000000
  -V(xc)+E(xc)   XCENC  =       623.52952877
  PAW double counting   =     16421.75059358   -17800.06104309
  entropy T*S    EENTRO =         0.00583223
  eigenvalues    EBANDS =       190.70477996
  atomic energy  EATOM  =     18662.21924712
  Solvation  Ediel_sol  =         0.00000000
  ---------------------------------------------------
  free energy    TOTEN  =      1117.96913950 eV

  energy without entropy =     1117.96330727  energy(sigma->0) =     1117.96719542


--------------------------------------------------------------------------------------------------------




--------------------------------------- Iteration      1(   2)  ---------------------------------------


     EDDAV:  cpu time    7.4419: real time    7.4482
       DOS:  cpu time    0.0004: real time    0.0004
    --------------------------------------------
      LOOP:  cpu time    7.4423: real time    7.4486

 eigenvalue-minimisations  :   368
 total energy-change (2. order) :-0.1031541E+04  (-0.9785509E+03)
 number of electron     153.0000000 magnetization       1.0000000
 augmentation part      153.0000000 magnetization       1.0000000

 Free energy of the ion-electron system (eV)
  ---------------------------------------------------
  alpha Z        PSCENC =        41.16232785
  Ewald energy   TEWEN  =     16439.67063756
  -Hartree energ DENC   =    -33461.01276448
  -exchange      EXHF   =         0.00000000
  -V(xc)+E(xc)   XCENC  =       623.52952877
  PAW double counting   =     16421.75059358   -17800.06104309
  entropy T*S    EENTRO =         0.00615024
  eigenvalues    EBANDS =      -840.83653657
  atomic energy  EATOM  =     18662.21924712
  Solvation  Ediel_sol  =         0.00000000
  ---------------------------------------------------
  free energy    TOTEN  =        86.42814098 eV

  energy without entropy =       86.42199073  energy(sigma->0) =       86.42609090


--------------------------------------------------------------------------------------------------------




--------------------------------------- Iteration      1(   3)  ---------------------------------------


     EDDAV:  cpu time   11.2218: real time   11.2299
       DOS:  cpu time    0.0004: real time    0.0004
    --------------------------------------------
      LOOP:  cpu time   11.2222: real time   11.2303

 eigenvalue-minimisations  :   624
 total energy-change (2. order) :-0.1201326E+03  (-0.1115654E+03)
 number of electron     153.0000000 magnetization       1.0000000
 augmentation part      153.0000000 magnetization       1.0000000

 Free energy of the ion-electron system (eV)
  ---------------------------------------------------
  alpha Z        PSCENC =        41.16232785
  Ewald energy   TEWEN  =     16439.67063756
  -Hartree energ DENC   =    -33461.01276448
  -exchange      EXHF   =         0.00000000
  -V(xc)+E(xc)   XCENC  =       623.52952877
  PAW double counting   =     16421.75059358   -17800.06104309
  entropy T*S    EENTRO =         0.01899002
  eigenvalues    EBANDS =      -960.98201166
  atomic energy  EATOM  =     18662.21924712
  Solvation  Ediel_sol  =         0.00000000
  ---------------------------------------------------
  free energy    TOTEN  =       -33.70449434 eV

  energy without entropy =      -33.72348436  energy(sigma->0) =      -33.71082435


--------------------------------------------------------------------------------------------------------




--------------------------------------- Iteration      1(   4)  ---------------------------------------


     EDDAV:  cpu time    9.8695: real time    9.8771
       DOS:  cpu time    0.0005: real time    0.0005
    --------------------------------------------
      LOOP:  cpu time    9.8700: real time    9.8776

 eigenvalue-minimisations  :   536
 total energy-change (2. order) :-0.2206263E+02  (-0.2173468E+02)
 number of electron     153.0000000 magnetization       1.0000000
 augmentation part      153.0000000 magnetization       1.0000000

 Free energy of the ion-electron system (eV)
  ---------------------------------------------------
  alpha Z        PSCENC =        41.16232785
  Ewald energy   TEWEN  =     16439.67063756
  -Hartree energ DENC   =    -33461.01276448
  -exchange      EXHF   =         0.00000000
  -V(xc)+E(xc)   XCENC  =       623.52952877
  PAW double counting   =     16421.75059358   -17800.06104309
  entropy T*S    EENTRO =         0.00947924
  eigenvalues    EBANDS =      -983.03512866
  atomic energy  EATOM  =     18662.21924712
  Solvation  Ediel_sol  =         0.00000000
  ---------------------------------------------------
  free energy    TOTEN  =       -55.76712212 eV

  energy without entropy =      -55.77660136  energy(sigma->0) =      -55.77028187


--------------------------------------------------------------------------------------------------------




--------------------------------------- Iteration      1(   5)  ---------------------------------------


     EDDAV:  cpu time   12.0306: real time   12.0395
       DOS:  cpu time    0.0006: real time    0.0006
    CHARGE:  cpu time    0.6599: real time    0.6603
    MIXING:  cpu time    0.0223: real time    0.0223
    --------------------------------------------
      LOOP:  cpu time   12.7134: real time   12.7227

 eigenvalue-minimisations  :   680
 total energy-change (2. order) :-0.1696902E+01  (-0.1549069E+01)
 number of electron     152.9999996 magnetization       1.0000000
 augmentation part       87.4325765 magnetization       0.3592064

 Broyden mixing:
  rms(total) = 0.23770E+01    rms(broyden)= 0.23769E+01
  rms(prec ) = 0.27264E+01
  weight for this iteration     100.00

 Free energy of the ion-electron system (eV)
  ---------------------------------------------------
  alpha Z        PSCENC =        41.16232785
  Ewald energy   TEWEN  =     16439.67063756
  -Hartree energ DENC   =    -33461.01276448
  -exchange      EXHF   =         0.00000000
  -V(xc)+E(xc)   XCENC  =       623.52952877
  PAW double counting   =     16421.75059358   -17800.06104309
  entropy T*S    EENTRO =         0.00968578
  eigenvalues    EBANDS =      -984.73223673
  atomic energy  EATOM  =     18662.21924712
  Solvation  Ediel_sol  =         0.00000000
  ---------------------------------------------------
  free energy    TOTEN  =       -57.46402365 eV

  energy without entropy =      -57.47370943  energy(sigma->0) =      -57.46725224


--------------------------------------------------------------------------------------------------------




--------------------------------------- Iteration      1(   6)  ---------------------------------------


    POTLOK:  cpu time    1.1684: real time    1.1712
    SETDIJ:  cpu time    0.0160: real time    0.0160
    EDDIAG:  cpu time    1.0845: real time    1.0853
  RMM-DIIS:  cpu time    6.9618: real time    6.9813
    ORTHCH:  cpu time    0.0581: real time    0.0581
       DOS:  cpu time    0.0005: real time    0.0005
    CHARGE:  cpu time    0.6710: real time    0.6712
    MIXING:  cpu time    0.0233: real time    0.0233
    --------------------------------------------
      LOOP:  cpu time    9.9836: real time   10.0068

 eigenvalue-minimisations  :   421
 total energy-change (2. order) : 0.8918722E+00  (-0.1209830E+02)
 number of electron     152.9999995 magnetization       1.0000000
 augmentation part       95.7284924 magnetization       0.0716740

 Broyden mixing:
  rms(total) = 0.15633E+01    rms(broyden)= 0.15631E+01
  rms(prec ) = 0.18035E+01
  weight for this iteration     100.00

 eigenvalues of (default mixing * dielectric matrix)
  average eigenvalue GAMMA=   0.6135
  0.6135

 Free energy of the ion-electron system (eV)
  ---------------------------------------------------
  alpha Z        PSCENC =        41.16232785
  Ewald energy   TEWEN  =     16439.67063756
  -Hartree energ DENC   =    -33207.58050067
  -exchange      EXHF   =         0.00000000
  -V(xc)+E(xc)   XCENC  =       611.26626721
  PAW double counting   =     16701.63909079   -18025.21727784
  entropy T*S    EENTRO =         0.00693922
  eigenvalues    EBANDS =     -1279.73888270
  atomic energy  EATOM  =     18662.21924712
  Solvation  Ediel_sol  =         0.00000000
  ---------------------------------------------------
  free energy    TOTEN  =       -56.57215146 eV

  energy without entropy =      -56.57909069  energy(sigma->0) =      -56.57446454


--------------------------------------------------------------------------------------------------------




--------------------------------------- Iteration      1(   7)  ---------------------------------------


    POTLOK:  cpu time    1.1678: real time    1.1709
    SETDIJ:  cpu time    0.0163: real time    0.0163
    EDDIAG:  cpu time    1.0861: real time    1.0870
  RMM-DIIS:  cpu time    6.4577: real time    6.4619
    ORTHCH:  cpu time    0.0592: real time    0.0592
       DOS:  cpu time    0.0004: real time    0.0004
    CHARGE:  cpu time    0.6420: real time    0.6425
    MIXING:  cpu time    0.0241: real time    0.0241
    --------------------------------------------
      LOOP:  cpu time    9.4536: real time    9.4625

 eigenvalue-minimisations  :   380
 total energy-change (2. order) : 0.7214589E+01  (-0.2513897E+01)
 number of electron     152.9999995 magnetization       1.0000000
 augmentation part       92.8645562 magnetization       0.1027825

 Broyden mixing:
  rms(total) = 0.38310E+00    rms(broyden)= 0.38308E+00
  rms(prec ) = 0.47609E+00
  weight for this iteration     100.00

 eigenvalues of (default mixing * dielectric matrix)
  average eigenvalue GAMMA=   0.9248
  1.1840  0.6656

 Free energy of the ion-electron system (eV)
  ---------------------------------------------------
  alpha Z        PSCENC =        41.16232785
  Ewald energy   TEWEN  =     16439.67063756
  -Hartree energ DENC   =    -33344.43097169
  -exchange      EXHF   =         0.00000000
  -V(xc)+E(xc)   XCENC  =       615.74147251
  PAW double counting   =     17046.24669348   -18419.90979157
  entropy T*S    EENTRO =         0.00866082
  eigenvalues    EBANDS =     -1090.06583882
  atomic energy  EATOM  =     18662.21924712
  Solvation  Ediel_sol  =         0.00000000
  ---------------------------------------------------
  free energy    TOTEN  =       -49.35756274 eV

  energy without entropy =      -49.36622356  energy(sigma->0) =      -49.36044968


--------------------------------------------------------------------------------------------------------




--------------------------------------- Iteration      1(   8)  ---------------------------------------


    POTLOK:  cpu time    1.1694: real time    1.1700
    SETDIJ:  cpu time    0.0164: real time    0.0164
    EDDIAG:  cpu time    1.0847: real time    1.0859
  RMM-DIIS:  cpu time    7.3860: real time    7.3917
    ORTHCH:  cpu time    0.0594: real time    0.0594
       DOS:  cpu time    0.0005: real time    0.0004
    CHARGE:  cpu time    0.6466: real time    0.6468
    MIXING:  cpu time    0.0249: real time    0.0249
    --------------------------------------------
      LOOP:  cpu time   10.3879: real time   10.3954

 eigenvalue-minimisations  :   423
 total energy-change (2. order) : 0.2339965E+00  (-0.4145597E+00)
 number of electron     152.9999995 magnetization       1.0000000
 augmentation part       92.0660355 magnetization       0.1036323

 Broyden mixing:
  rms(total) = 0.29708E+00    rms(broyden)= 0.29706E+00
  rms(prec ) = 0.33517E+00
  weight for this iteration     100.00

 eigenvalues of (default mixing * dielectric matrix)
  average eigenvalue GAMMA=   0.9385
  1.3910  0.7122  0.7122

 Free energy of the ion-electron system (eV)
  ---------------------------------------------------
  alpha Z        PSCENC =        41.16232785
  Ewald energy   TEWEN  =     16439.67063756
  -Hartree energ DENC   =    -33393.77309508
  -exchange      EXHF   =         0.00000000
  -V(xc)+E(xc)   XCENC  =       616.15548036
  PAW double counting   =     17403.83273414   -18797.18690800
  entropy T*S    EENTRO =         0.00893283
  eigenvalues    EBANDS =     -1021.21292298
  atomic energy  EATOM  =     18662.21924712
  Solvation  Ediel_sol  =         0.00000000
  ---------------------------------------------------
  free energy    TOTEN  =       -49.12356619 eV

  energy without entropy =      -49.13249903  energy(sigma->0) =      -49.12654380


--------------------------------------------------------------------------------------------------------




--------------------------------------- Iteration      1(   9)  ---------------------------------------


    POTLOK:  cpu time    1.1691: real time    1.1702
    SETDIJ:  cpu time    0.0160: real time    0.0160
    EDDIAG:  cpu time    1.0845: real time    1.0854
  RMM-DIIS:  cpu time    6.6509: real time    6.6556
    ORTHCH:  cpu time    0.0587: real time    0.0593
       DOS:  cpu time    0.0004: real time    0.0004
    CHARGE:  cpu time    0.6749: real time    0.6755
    MIXING:  cpu time    0.0249: real time    0.0249
    --------------------------------------------
      LOOP:  cpu time    9.6794: real time    9.6872

 eigenvalue-minimisations  :   413
 total energy-change (2. order) : 0.4497875E-01  (-0.9919160E-01)
 number of electron     152.9999995 magnetization       1.0000000
 augmentation part       92.2833591 magnetization       0.0878851

 Broyden mixing:
  rms(total) = 0.18598E+00    rms(broyden)= 0.18598E+00
  rms(prec ) = 0.22089E+00
  weight for this iteration     100.00

 eigenvalues of (default mixing * dielectric matrix)
  average eigenvalue GAMMA=   1.0332
  2.0800  0.7758  0.7758  0.5014

 Free energy of the ion-electron system (eV)
  ---------------------------------------------------
  alpha Z        PSCENC =        41.16232785
  Ewald energy   TEWEN  =     16439.67063756
  -Hartree energ DENC   =    -33390.67808395
  -exchange      EXHF   =         0.00000000
  -V(xc)+E(xc)   XCENC  =       615.63447067
  PAW double counting   =     17516.35753676   -18911.40294733
  entropy T*S    EENTRO =         0.00890715
  eigenvalues    EBANDS =     -1022.05068328
  atomic energy  EATOM  =     18662.21924712
  Solvation  Ediel_sol  =         0.00000000
  ---------------------------------------------------
  free energy    TOTEN  =       -49.07858744 eV

  energy without entropy =      -49.08749459  energy(sigma->0) =      -49.08155649


--------------------------------------------------------------------------------------------------------




--------------------------------------- Iteration      1(  10)  ---------------------------------------


    POTLOK:  cpu time    1.1688: real time    1.1701
    SETDIJ:  cpu time    0.0166: real time    0.0166
    EDDIAG:  cpu time    1.0837: real time    1.0854
  RMM-DIIS:  cpu time    6.9110: real time    6.9161
    ORTHCH:  cpu time    0.0586: real time    0.0586
       DOS:  cpu time    0.0004: real time    0.0004
    CHARGE:  cpu time    0.6469: real time    0.6474
    MIXING:  cpu time    0.0252: real time    0.0252
    --------------------------------------------
      LOOP:  cpu time    9.9112: real time    9.9198

 eigenvalue-minimisations  :   413
 total energy-change (2. order) : 0.6238679E-01  (-0.2293074E-01)
 number of electron     152.9999995 magnetization       1.0000000
 augmentation part       92.4512503 magnetization       0.0772536

 Broyden mixing:
  rms(total) = 0.57141E-01    rms(broyden)= 0.57136E-01
  rms(prec ) = 0.75640E-01
  weight for this iteration     100.00

 eigenvalues of (default mixing * dielectric matrix)
  average eigenvalue GAMMA=   1.0450
  2.1030  1.1096  0.7708  0.7708  0.4706

 Free energy of the ion-electron system (eV)
  ---------------------------------------------------
  alpha Z        PSCENC =        41.16232785
  Ewald energy   TEWEN  =     16439.67063756
  -Hartree energ DENC   =    -33389.04923596
  -exchange      EXHF   =         0.00000000
  -V(xc)+E(xc)   XCENC  =       615.24571754
  PAW double counting   =     17613.64497898   -19010.23752708
  entropy T*S    EENTRO =         0.00855713
  eigenvalues    EBANDS =     -1021.68090379
  atomic energy  EATOM  =     18662.21924712
  Solvation  Ediel_sol  =         0.00000000
  ---------------------------------------------------
  free energy    TOTEN  =       -49.01620065 eV

  energy without entropy =      -49.02475778  energy(sigma->0) =      -49.01905303


--------------------------------------------------------------------------------------------------------




--------------------------------------- Iteration      1(  11)  ---------------------------------------


    POTLOK:  cpu time    1.1696: real time    1.1709
    SETDIJ:  cpu time    0.0160: real time    0.0160
    EDDIAG:  cpu time    1.0856: real time    1.0866
  RMM-DIIS:  cpu time    6.9470: real time    6.9516
    ORTHCH:  cpu time    0.0568: real time    0.0568
       DOS:  cpu time    0.0004: real time    0.0004
    CHARGE:  cpu time    0.6879: real time    0.6884
    MIXING:  cpu time    0.0257: real time    0.0257
    --------------------------------------------
      LOOP:  cpu time    9.9890: real time    9.9965

 eigenvalue-minimisations  :   427
 total energy-change (2. order) : 0.1019433E-01  (-0.7041315E-02)
 number of electron     152.9999995 magnetization       1.0000000
 augmentation part       92.3829326 magnetization       0.0815483

 Broyden mixing:
  rms(total) = 0.39183E-01    rms(broyden)= 0.39180E-01
  rms(prec ) = 0.51269E-01
  weight for this iteration     100.00

 eigenvalues of (default mixing * dielectric matrix)
  average eigenvalue GAMMA=   1.0387
  2.1461  1.4477  0.7683  0.7683  0.6274  0.4741

 Free energy of the ion-electron system (eV)
  ---------------------------------------------------
  alpha Z        PSCENC =        41.16232785
  Ewald energy   TEWEN  =     16439.67063756
  -Hartree energ DENC   =    -33396.77285820
  -exchange      EXHF   =         0.00000000
  -V(xc)+E(xc)   XCENC  =       615.37256943
  PAW double counting   =     17661.05517230   -19059.76511870
  entropy T*S    EENTRO =         0.00882298
  eigenvalues    EBANDS =     -1011.95680666
  atomic energy  EATOM  =     18662.21924712
  Solvation  Ediel_sol  =         0.00000000
  ---------------------------------------------------
  free energy    TOTEN  =       -49.00600632 eV

  energy without entropy =      -49.01482929  energy(sigma->0) =      -49.00894731


--------------------------------------------------------------------------------------------------------




--------------------------------------- Iteration      1(  12)  ---------------------------------------


    POTLOK:  cpu time    1.1711: real time    1.1732
    SETDIJ:  cpu time    0.0159: real time    0.0159
    EDDIAG:  cpu time    1.0821: real time    1.0833
  RMM-DIIS:  cpu time    7.1928: real time    7.1978
    ORTHCH:  cpu time    0.0563: real time    0.0569
       DOS:  cpu time    0.0004: real time    0.0004
    CHARGE:  cpu time    0.6877: real time    0.6879
    MIXING:  cpu time    0.0269: real time    0.0269
    --------------------------------------------
      LOOP:  cpu time   10.2332: real time   10.2424

 eigenvalue-minimisations  :   423
 total energy-change (2. order) : 0.2283185E-02  (-0.1945713E-02)
 number of electron     152.9999995 magnetization       1.0000000
 augmentation part       92.3849754 magnetization       0.0812731

 Broyden mixing:
  rms(total) = 0.18045E-01    rms(broyden)= 0.18044E-01
  rms(prec ) = 0.29941E-01
  weight for this iteration     100.00

 eigenvalues of (default mixing * dielectric matrix)
  average eigenvalue GAMMA=   1.0755
  2.3715  1.6565  1.0679  0.7160  0.7160  0.5424  0.4583

 Free energy of the ion-electron system (eV)
  ---------------------------------------------------
  alpha Z        PSCENC =        41.16232785
  Ewald energy   TEWEN  =     16439.67063756
  -Hartree energ DENC   =    -33399.56154232
  -exchange      EXHF   =         0.00000000
  -V(xc)+E(xc)   XCENC  =       615.40605668
  PAW double counting   =     17669.41476310   -19068.43639253
  entropy T*S    EENTRO =         0.00861265
  eigenvalues    EBANDS =     -1008.88743324
  atomic energy  EATOM  =     18662.21924712
  Solvation  Ediel_sol  =         0.00000000
  ---------------------------------------------------
  free energy    TOTEN  =       -49.00372313 eV

  energy without entropy =      -49.01233578  energy(sigma->0) =      -49.00659401


--------------------------------------------------------------------------------------------------------




--------------------------------------- Iteration      1(  13)  ---------------------------------------


    POTLOK:  cpu time    1.1723: real time    1.1755
    SETDIJ:  cpu time    0.0162: real time    0.0163
    EDDIAG:  cpu time    1.0833: real time    1.0846
  RMM-DIIS:  cpu time    7.1138: real time    7.1183
    ORTHCH:  cpu time    0.0566: real time    0.0567
       DOS:  cpu time    0.0004: real time    0.0004
    CHARGE:  cpu time    0.6882: real time    0.6887
    MIXING:  cpu time    0.0284: real time    0.0284
    --------------------------------------------
      LOOP:  cpu time   10.1593: real time   10.1689

 eigenvalue-minimisations  :   442
 total energy-change (2. order) : 0.9649998E-03  (-0.5664381E-03)
 number of electron     152.9999995 magnetization       1.0000000
 augmentation part       92.3958273 magnetization       0.0814250

 Broyden mixing:
  rms(total) = 0.94283E-02    rms(broyden)= 0.94280E-02
  rms(prec ) = 0.19469E-01
  weight for this iteration     100.00

 eigenvalues of (default mixing * dielectric matrix)
  average eigenvalue GAMMA=   1.1120
  2.4017  1.8831  1.3651  0.7690  0.7690  0.7322  0.5281  0.4475

 Free energy of the ion-electron system (eV)
  ---------------------------------------------------
  alpha Z        PSCENC =        41.16232785
  Ewald energy   TEWEN  =     16439.67063756
  -Hartree energ DENC   =    -33403.58487092
  -exchange      EXHF   =         0.00000000
  -V(xc)+E(xc)   XCENC  =       615.42049375
  PAW double counting   =     17674.79677486   -19073.88785907
  entropy T*S    EENTRO =         0.00864700
  eigenvalues    EBANDS =     -1004.80815628
  atomic energy  EATOM  =     18662.21924712
  Solvation  Ediel_sol  =         0.00000000
  ---------------------------------------------------
  free energy    TOTEN  =       -49.00275813 eV

  energy without entropy =      -49.01140513  energy(sigma->0) =      -49.00564047


--------------------------------------------------------------------------------------------------------




--------------------------------------- Iteration      1(  14)  ---------------------------------------


    POTLOK:  cpu time    1.1692: real time    1.1711
    SETDIJ:  cpu time    0.0161: real time    0.0161
    EDDIAG:  cpu time    1.0824: real time    1.0833
  RMM-DIIS:  cpu time    6.8724: real time    6.8780
    ORTHCH:  cpu time    0.0569: real time    0.0570
       DOS:  cpu time    0.0004: real time    0.0004
    CHARGE:  cpu time    0.6880: real time    0.6885
    MIXING:  cpu time    0.0280: real time    0.0280
    --------------------------------------------
      LOOP:  cpu time    9.9134: real time    9.9224

 eigenvalue-minimisations  :   415
 total energy-change (2. order) :-0.1253332E-02  (-0.3358481E-03)
 number of electron     152.9999995 magnetization       1.0000000
 augmentation part       92.4047686 magnetization       0.0814132

 Broyden mixing:
  rms(total) = 0.11230E-01    rms(broyden)= 0.11230E-01
  rms(prec ) = 0.17074E-01
  weight for this iteration     100.00

 eigenvalues of (default mixing * dielectric matrix)
  average eigenvalue GAMMA=   1.1391
  2.3863  2.3863  1.3569  0.9947  0.7577  0.7577  0.6618  0.4996  0.4511

 Free energy of the ion-electron system (eV)
  ---------------------------------------------------
  alpha Z        PSCENC =        41.16232785
  Ewald energy   TEWEN  =     16439.67063756
  -Hartree energ DENC   =    -33408.65860432
  -exchange      EXHF   =         0.00000000
  -V(xc)+E(xc)   XCENC  =       615.45460404
  PAW double counting   =     17667.39672781   -19066.18470206
  entropy T*S    EENTRO =         0.00861855
  eigenvalues    EBANDS =     -1000.07286801
  atomic energy  EATOM  =     18662.21924712
  Solvation  Ediel_sol  =         0.00000000
  ---------------------------------------------------
  free energy    TOTEN  =       -49.00401146 eV

  energy without entropy =      -49.01263001  energy(sigma->0) =      -49.00688431


--------------------------------------------------------------------------------------------------------




--------------------------------------- Iteration      1(  15)  ---------------------------------------


    POTLOK:  cpu time    1.1708: real time    1.1722
    SETDIJ:  cpu time    0.0160: real time    0.0160
    EDDIAG:  cpu time    1.0829: real time    1.0836
  RMM-DIIS:  cpu time    6.7422: real time    6.7469
    ORTHCH:  cpu time    0.0594: real time    0.0594
       DOS:  cpu time    0.0004: real time    0.0004
    CHARGE:  cpu time    0.6873: real time    0.6879
    MIXING:  cpu time    0.0290: real time    0.0290
    --------------------------------------------
      LOOP:  cpu time    9.7880: real time    9.7954

 eigenvalue-minimisations  :   401
 total energy-change (2. order) :-0.1045511E-02  (-0.1551443E-03)
 number of electron     152.9999995 magnetization       1.0000000
 augmentation part       92.3982277 magnetization       0.0816580

 Broyden mixing:
  rms(total) = 0.53808E-02    rms(broyden)= 0.53805E-02
  rms(prec ) = 0.98014E-02
  weight for this iteration     100.00

 eigenvalues of (default mixing * dielectric matrix)
  average eigenvalue GAMMA=   1.1813
  2.6816  2.6816  1.3525  1.3525  0.7538  0.7538  0.7597  0.5541  0.4520  0.4715

 Free energy of the ion-electron system (eV)
  ---------------------------------------------------
  alpha Z        PSCENC =        41.16232785
  Ewald energy   TEWEN  =     16439.67063756
  -Hartree energ DENC   =    -33411.98903725
  -exchange      EXHF   =         0.00000000
  -V(xc)+E(xc)   XCENC  =       615.49024732
  PAW double counting   =     17662.67166747   -19061.37681767
  entropy T*S    EENTRO =         0.00861686
  eigenvalues    EBANDS =      -996.86194624
  atomic energy  EATOM  =     18662.21924712
  Solvation  Ediel_sol  =         0.00000000
  ---------------------------------------------------
  free energy    TOTEN  =       -49.00505697 eV

  energy without entropy =      -49.01367384  energy(sigma->0) =      -49.00792926


--------------------------------------------------------------------------------------------------------




--------------------------------------- Iteration      1(  16)  ---------------------------------------


    POTLOK:  cpu time    1.1690: real time    1.1697
    SETDIJ:  cpu time    0.0160: real time    0.0160
    EDDIAG:  cpu time    1.0858: real time    1.0865
  RMM-DIIS:  cpu time    6.3657: real time    6.3701
    ORTHCH:  cpu time    0.0585: real time    0.0585
       DOS:  cpu time    0.0004: real time    0.0004
    CHARGE:  cpu time    0.6897: real time    0.6901
    MIXING:  cpu time    0.0299: real time    0.0299
    --------------------------------------------
      LOOP:  cpu time    9.4148: real time    9.4210

 eigenvalue-minimisations  :   395
 total energy-change (2. order) :-0.1512617E-02  (-0.8693731E-04)
 number of electron     152.9999995 magnetization       1.0000000
 augmentation part       92.3943004 magnetization       0.0818803

 Broyden mixing:
  rms(total) = 0.46558E-02    rms(broyden)= 0.46556E-02
  rms(prec ) = 0.72066E-02
  weight for this iteration     100.00

 eigenvalues of (default mixing * dielectric matrix)
  average eigenvalue GAMMA=   1.2242
  3.2228  2.6033  1.5244  1.5244  0.8617  0.7663  0.7663  0.7338  0.4484  0.5076
  0.5076

 Free energy of the ion-electron system (eV)
  ---------------------------------------------------
  alpha Z        PSCENC =        41.16232785
  Ewald energy   TEWEN  =     16439.67063756
  -Hartree energ DENC   =    -33414.71168738
  -exchange      EXHF   =         0.00000000
  -V(xc)+E(xc)   XCENC  =       615.51759031
  PAW double counting   =     17658.44486717   -19057.08289041
  entropy T*S    EENTRO =         0.00864694
  eigenvalues    EBANDS =      -994.23530875
  atomic energy  EATOM  =     18662.21924712
  Solvation  Ediel_sol  =         0.00000000
  ---------------------------------------------------
  free energy    TOTEN  =       -49.00656959 eV

  energy without entropy =      -49.01521653  energy(sigma->0) =      -49.00945190


--------------------------------------------------------------------------------------------------------




--------------------------------------- Iteration      1(  17)  ---------------------------------------


    POTLOK:  cpu time    1.1701: real time    1.1714
    SETDIJ:  cpu time    0.0173: real time    0.0174
    EDDIAG:  cpu time    1.0845: real time    1.0854
  RMM-DIIS:  cpu time    6.5149: real time    6.5192
    ORTHCH:  cpu time    0.0581: real time    0.0582
       DOS:  cpu time    0.0004: real time    0.0004
    CHARGE:  cpu time    0.6896: real time    0.6899
    MIXING:  cpu time    0.0309: real time    0.0309
    --------------------------------------------
      LOOP:  cpu time    9.5657: real time    9.5728

 eigenvalue-minimisations  :   397
 total energy-change (2. order) :-0.1717828E-02  (-0.4880073E-04)
 number of electron     152.9999995 magnetization       1.0000000
 augmentation part       92.3956939 magnetization       0.0818031

 Broyden mixing:
  rms(total) = 0.23207E-02    rms(broyden)= 0.23206E-02
  rms(prec ) = 0.40042E-02
  weight for this iteration     100.00

 eigenvalues of (default mixing * dielectric matrix)
  average eigenvalue GAMMA=   1.3395
  4.4023  2.5693  2.1559  1.2809  1.2809  0.7680  0.7680  0.7467  0.6454  0.4496
  0.5182  0.4886

 Free energy of the ion-electron system (eV)
  ---------------------------------------------------
  alpha Z        PSCENC =        41.16232785
  Ewald energy   TEWEN  =     16439.67063756
  -Hartree energ DENC   =    -33416.64536629
  -exchange      EXHF   =         0.00000000
  -V(xc)+E(xc)   XCENC  =       615.52525842
  PAW double counting   =     17656.69815331   -19055.30775630
  entropy T*S    EENTRO =         0.00864728
  eigenvalues    EBANDS =      -992.33943638
  atomic energy  EATOM  =     18662.21924712
  Solvation  Ediel_sol  =         0.00000000
  ---------------------------------------------------
  free energy    TOTEN  =       -49.00828742 eV

  energy without entropy =      -49.01693470  energy(sigma->0) =      -49.01116985


--------------------------------------------------------------------------------------------------------




--------------------------------------- Iteration      1(  18)  ---------------------------------------


    POTLOK:  cpu time    1.1715: real time    1.1730
    SETDIJ:  cpu time    0.0162: real time    0.0162
    EDDIAG:  cpu time    1.0828: real time    1.0836
  RMM-DIIS:  cpu time    7.0602: real time    7.0653
    ORTHCH:  cpu time    0.0581: real time    0.0581
       DOS:  cpu time    0.0004: real time    0.0004
    CHARGE:  cpu time    0.6887: real time    0.6891
    MIXING:  cpu time    0.0322: real time    0.0322
    --------------------------------------------
      LOOP:  cpu time   10.1099: real time   10.1178

 eigenvalue-minimisations  :   414
 total energy-change (2. order) :-0.9048184E-03  (-0.2194762E-04)
 number of electron     152.9999995 magnetization       1.0000000
 augmentation part       92.3946355 magnetization       0.0819205

 Broyden mixing:
  rms(total) = 0.14461E-02    rms(broyden)= 0.14461E-02
  rms(prec ) = 0.26130E-02
  weight for this iteration     100.00

 eigenvalues of (default mixing * dielectric matrix)
  average eigenvalue GAMMA=   1.3687
  5.0689  2.6710  2.2002  1.3403  1.3403  0.8386  0.8386  0.7333  0.7333  0.5871
  0.5137  0.4497  0.4781

 Free energy of the ion-electron system (eV)
  ---------------------------------------------------
  alpha Z        PSCENC =        41.16232785
  Ewald energy   TEWEN  =     16439.67063756
  -Hartree energ DENC   =    -33417.67908061
  -exchange      EXHF   =         0.00000000
  -V(xc)+E(xc)   XCENC  =       615.52836186
  PAW double counting   =     17656.58771506   -19055.21732496
  entropy T*S    EENTRO =         0.00864761
  eigenvalues    EBANDS =      -991.28972373
  atomic energy  EATOM  =     18662.21924712
  Solvation  Ediel_sol  =         0.00000000
  ---------------------------------------------------
  free energy    TOTEN  =       -49.00919224 eV

  energy without entropy =      -49.01783985  energy(sigma->0) =      -49.01207477


--------------------------------------------------------------------------------------------------------




--------------------------------------- Iteration      1(  19)  ---------------------------------------


    POTLOK:  cpu time    1.1717: real time    1.1723
    SETDIJ:  cpu time    0.0163: real time    0.0163
    EDDIAG:  cpu time    1.0846: real time    1.0854
  RMM-DIIS:  cpu time    7.6386: real time    7.6439
    ORTHCH:  cpu time    0.0580: real time    0.0580
       DOS:  cpu time    0.0004: real time    0.0004
    CHARGE:  cpu time    0.6885: real time    0.6890
    MIXING:  cpu time    0.0338: real time    0.0338
    --------------------------------------------
      LOOP:  cpu time   10.6919: real time   10.6992

 eigenvalue-minimisations  :   466
 total energy-change (2. order) :-0.7801225E-03  (-0.1166323E-04)
 number of electron     152.9999995 magnetization       1.0000000
 augmentation part       92.3941541 magnetization       0.0819433

 Broyden mixing:
  rms(total) = 0.11136E-02    rms(broyden)= 0.11136E-02
  rms(prec ) = 0.19172E-02
  weight for this iteration     100.00

 eigenvalues of (default mixing * dielectric matrix)
  average eigenvalue GAMMA=   1.4381
  5.8943  2.7534  2.1626  1.6197  1.6197  1.0955  0.8425  0.7490  0.7490  0.6570
  0.5519  0.4490  0.5121  0.4780

 Free energy of the ion-electron system (eV)
  ---------------------------------------------------
  alpha Z        PSCENC =        41.16232785
  Ewald energy   TEWEN  =     16439.67063756
  -Hartree energ DENC   =    -33418.18742987
  -exchange      EXHF   =         0.00000000
  -V(xc)+E(xc)   XCENC  =       615.52841345
  PAW double counting   =     17656.66525286   -19055.30549375
  entropy T*S    EENTRO =         0.00864452
  eigenvalues    EBANDS =      -990.77157210
  atomic energy  EATOM  =     18662.21924712
  Solvation  Ediel_sol  =         0.00000000
  ---------------------------------------------------
  free energy    TOTEN  =       -49.00997236 eV

  energy without entropy =      -49.01861688  energy(sigma->0) =      -49.01285387


--------------------------------------------------------------------------------------------------------




--------------------------------------- Iteration      1(  20)  ---------------------------------------


    POTLOK:  cpu time    1.1735: real time    1.1776
    SETDIJ:  cpu time    0.0160: real time    0.0160
    EDDIAG:  cpu time    1.0844: real time    1.0858
  RMM-DIIS:  cpu time    6.4794: real time    6.4850
    ORTHCH:  cpu time    0.0583: real time    0.0583
       DOS:  cpu time    0.0004: real time    0.0004
    CHARGE:  cpu time    0.6885: real time    0.6889
    MIXING:  cpu time    0.0352: real time    0.0353
    --------------------------------------------
      LOOP:  cpu time    9.5358: real time    9.5473

 eigenvalue-minimisations  :   400
 total energy-change (2. order) :-0.5267435E-03  (-0.4168017E-05)
 number of electron     152.9999995 magnetization       1.0000000
 augmentation part       92.3948826 magnetization       0.0819579

 Broyden mixing:
  rms(total) = 0.70279E-03    rms(broyden)= 0.70277E-03
  rms(prec ) = 0.12472E-02
  weight for this iteration     100.00

 eigenvalues of (default mixing * dielectric matrix)
  average eigenvalue GAMMA=   1.4634
  6.3801  2.7972  2.1827  2.1827  1.3040  1.3040  0.8598  0.8598  0.7342  0.7342
  0.6296  0.4493  0.5266  0.5266  0.4802

 Free energy of the ion-electron system (eV)
  ---------------------------------------------------
  alpha Z        PSCENC =        41.16232785
  Ewald energy   TEWEN  =     16439.67063756
  -Hartree energ DENC   =    -33418.29321127
  -exchange      EXHF   =         0.00000000
  -V(xc)+E(xc)   XCENC  =       615.52679450
  PAW double counting   =     17656.88657440   -19055.52779615
  entropy T*S    EENTRO =         0.00864312
  eigenvalues    EBANDS =      -990.66371623
  atomic energy  EATOM  =     18662.21924712
  Solvation  Ediel_sol  =         0.00000000
  ---------------------------------------------------
  free energy    TOTEN  =       -49.01049910 eV

  energy without entropy =      -49.01914222  energy(sigma->0) =      -49.01338014


--------------------------------------------------------------------------------------------------------




--------------------------------------- Iteration      1(  21)  ---------------------------------------


    POTLOK:  cpu time    1.1713: real time    1.1736
    SETDIJ:  cpu time    0.0156: real time    0.0156
    EDDIAG:  cpu time    1.0848: real time    1.0857
  RMM-DIIS:  cpu time    6.6995: real time    6.7043
    ORTHCH:  cpu time    0.0582: real time    0.0582
       DOS:  cpu time    0.0004: real time    0.0004
    CHARGE:  cpu time    0.6890: real time    0.6896
    MIXING:  cpu time    0.0368: real time    0.0368
    --------------------------------------------
      LOOP:  cpu time    9.7557: real time    9.7641

 eigenvalue-minimisations  :   398
 total energy-change (2. order) :-0.3999728E-03  (-0.3654185E-05)
 number of electron     152.9999995 magnetization       1.0000000
 augmentation part       92.3962091 magnetization       0.0819325

 Broyden mixing:
  rms(total) = 0.72654E-03    rms(broyden)= 0.72651E-03
  rms(prec ) = 0.10519E-02
  weight for this iteration     100.00

 eigenvalues of (default mixing * dielectric matrix)
  average eigenvalue GAMMA=   1.5067
  6.6622  3.2428  2.5042  2.1000  1.4650  1.4650  0.9511  0.9511  0.7474  0.7474
  0.6755  0.6280  0.4493  0.5272  0.5115  0.4794

 Free energy of the ion-electron system (eV)
  ---------------------------------------------------
  alpha Z        PSCENC =        41.16232785
  Ewald energy   TEWEN  =     16439.67063756
  -Hartree energ DENC   =    -33418.25941661
  -exchange      EXHF   =         0.00000000
  -V(xc)+E(xc)   XCENC  =       615.52443699
  PAW double counting   =     17657.06258245   -19055.69620599
  entropy T*S    EENTRO =         0.00863898
  eigenvalues    EBANDS =      -990.70314742
  atomic energy  EATOM  =     18662.21924712
  Solvation  Ediel_sol  =         0.00000000
  ---------------------------------------------------
  free energy    TOTEN  =       -49.01089908 eV

  energy without entropy =      -49.01953806  energy(sigma->0) =      -49.01377874


--------------------------------------------------------------------------------------------------------




--------------------------------------- Iteration      1(  22)  ---------------------------------------


    POTLOK:  cpu time    1.1703: real time    1.1713
    SETDIJ:  cpu time    0.0160: real time    0.0160
    EDDIAG:  cpu time    1.0850: real time    1.0864
  RMM-DIIS:  cpu time    6.6332: real time    6.6386
    ORTHCH:  cpu time    0.0579: real time    0.0580
       DOS:  cpu time    0.0004: real time    0.0004
    CHARGE:  cpu time    0.6882: real time    0.6889
    MIXING:  cpu time    0.0385: real time    0.0385
    --------------------------------------------
      LOOP:  cpu time    9.6894: real time    9.6979

 eigenvalue-minimisations  :   404
 total energy-change (2. order) :-0.2417936E-03  (-0.1971625E-05)
 number of electron     152.9999995 magnetization       1.0000000
 augmentation part       92.3955794 magnetization       0.0819249

 Broyden mixing:
  rms(total) = 0.40831E-03    rms(broyden)= 0.40827E-03
  rms(prec ) = 0.63698E-03
  weight for this iteration     100.00

 eigenvalues of (default mixing * dielectric matrix)
  average eigenvalue GAMMA=   1.5411
  7.0187  3.9554  2.4910  2.0569  1.6985  1.2742  1.2742  0.8660  0.8660  0.7514
  0.7514  0.6548  0.5750  0.4491  0.5310  0.4801  0.5047

 Free energy of the ion-electron system (eV)
  ---------------------------------------------------
  alpha Z        PSCENC =        41.16232785
  Ewald energy   TEWEN  =     16439.67063756
  -Hartree energ DENC   =    -33418.36810655
  -exchange      EXHF   =         0.00000000
  -V(xc)+E(xc)   XCENC  =       615.52427694
  PAW double counting   =     17657.31561176   -19055.95806959
  entropy T*S    EENTRO =         0.00864278
  eigenvalues    EBANDS =      -990.58570873
  atomic energy  EATOM  =     18662.21924712
  Solvation  Ediel_sol  =         0.00000000
  ---------------------------------------------------
  free energy    TOTEN  =       -49.01114087 eV

  energy without entropy =      -49.01978365  energy(sigma->0) =      -49.01402180


--------------------------------------------------------------------------------------------------------




--------------------------------------- Iteration      1(  23)  ---------------------------------------


    POTLOK:  cpu time    1.1718: real time    1.1729
    SETDIJ:  cpu time    0.0162: real time    0.0163
    EDDIAG:  cpu time    1.0832: real time    1.0841
  RMM-DIIS:  cpu time    6.6866: real time    6.6920
    ORTHCH:  cpu time    0.0600: real time    0.0600
       DOS:  cpu time    0.0004: real time    0.0004
    CHARGE:  cpu time    0.6877: real time    0.6882
    MIXING:  cpu time    0.0407: real time    0.0406
    --------------------------------------------
      LOOP:  cpu time    9.7464: real time    9.7544

 eigenvalue-minimisations  :   401
 total energy-change (2. order) :-0.1175572E-03  (-0.7935269E-06)
 number of electron     152.9999995 magnetization       1.0000000
 augmentation part       92.3948479 magnetization       0.0819287

 Broyden mixing:
  rms(total) = 0.27150E-03    rms(broyden)= 0.27149E-03
  rms(prec ) = 0.40694E-03
  weight for this iteration     100.00

 eigenvalues of (default mixing * dielectric matrix)
  average eigenvalue GAMMA=   1.5630
  7.3628  4.2519  2.4728  2.1419  1.8683  1.3336  1.3336  0.9654  0.9654  0.7618
  0.7618  0.7066  0.6728  0.4492  0.5689  0.4798  0.5190  0.5190

 Free energy of the ion-electron system (eV)
  ---------------------------------------------------
  alpha Z        PSCENC =        41.16232785
  Ewald energy   TEWEN  =     16439.67063756
  -Hartree energ DENC   =    -33418.45915061
  -exchange      EXHF   =         0.00000000
  -V(xc)+E(xc)   XCENC  =       615.52486558
  PAW double counting   =     17657.35012939   -19055.99846100
  entropy T*S    EENTRO =         0.00864241
  eigenvalues    EBANDS =      -990.48949673
  atomic energy  EATOM  =     18662.21924712
  Solvation  Ediel_sol  =         0.00000000
  ---------------------------------------------------
  free energy    TOTEN  =       -49.01125843 eV

  energy without entropy =      -49.01990084  energy(sigma->0) =      -49.01413923


--------------------------------------------------------------------------------------------------------




--------------------------------------- Iteration      1(  24)  ---------------------------------------


    POTLOK:  cpu time    1.1691: real time    1.1705
    SETDIJ:  cpu time    0.0167: real time    0.0167
    EDDIAG:  cpu time    1.0863: real time    1.0872
  RMM-DIIS:  cpu time    6.6285: real time    6.6330
    ORTHCH:  cpu time    0.0609: real time    0.0610
       DOS:  cpu time    0.0004: real time    0.0004
    CHARGE:  cpu time    0.6895: real time    0.6896
    MIXING:  cpu time    0.0422: real time    0.0422
    --------------------------------------------
      LOOP:  cpu time    9.6935: real time    9.7006

 eigenvalue-minimisations  :   397
 total energy-change (2. order) :-0.1113418E-03  (-0.8706494E-06)
 number of electron     152.9999995 magnetization       1.0000000
 augmentation part       92.3949400 magnetization       0.0819442

 Broyden mixing:
  rms(total) = 0.16325E-03    rms(broyden)= 0.16322E-03
  rms(prec ) = 0.25772E-03
  weight for this iteration     100.00

 eigenvalues of (default mixing * dielectric matrix)
  average eigenvalue GAMMA=   1.5846
  7.6807  4.5720  2.4338  2.4338  1.8764  1.4192  1.4192  0.9454  0.9454  0.9194
  0.7686  0.7686  0.7577  0.6242  0.4492  0.5734  0.4796  0.5138  0.5271

 Free energy of the ion-electron system (eV)
  ---------------------------------------------------
  alpha Z        PSCENC =        41.16232785
  Ewald energy   TEWEN  =     16439.67063756
  -Hartree energ DENC   =    -33418.47010175
  -exchange      EXHF   =         0.00000000
  -V(xc)+E(xc)   XCENC  =       615.52486820
  PAW double counting   =     17657.23284057   -19055.87723031
  entropy T*S    EENTRO =         0.00864321
  eigenvalues    EBANDS =      -990.48260222
  atomic energy  EATOM  =     18662.21924712
  Solvation  Ediel_sol  =         0.00000000
  ---------------------------------------------------
  free energy    TOTEN  =       -49.01136977 eV

  energy without entropy =      -49.02001298  energy(sigma->0) =      -49.01425084


--------------------------------------------------------------------------------------------------------




--------------------------------------- Iteration      1(  25)  ---------------------------------------


    POTLOK:  cpu time    1.1712: real time    1.1729
    SETDIJ:  cpu time    0.0162: real time    0.0162
    EDDIAG:  cpu time    1.0859: real time    1.0868
  RMM-DIIS:  cpu time    6.7614: real time    6.7657
    ORTHCH:  cpu time    0.0603: real time    0.0603
       DOS:  cpu time    0.0004: real time    0.0004
    CHARGE:  cpu time    0.6875: real time    0.6881
    MIXING:  cpu time    0.0451: real time    0.0451
    --------------------------------------------
      LOOP:  cpu time    9.8281: real time    9.8355

 eigenvalue-minimisations  :   394
 total energy-change (2. order) :-0.5854727E-04  (-0.4766986E-06)
 number of electron     152.9999995 magnetization       1.0000000
 augmentation part       92.3952920 magnetization       0.0819446

 Broyden mixing:
  rms(total) = 0.14144E-03    rms(broyden)= 0.14142E-03
  rms(prec ) = 0.19734E-03
  weight for this iteration     100.00

 eigenvalues of (default mixing * dielectric matrix)
  average eigenvalue GAMMA=   1.6282
  7.9295  5.0428  2.6322  2.6322  1.8362  1.8362  1.2711  1.2711  0.9960  0.9960
  0.7693  0.7693  0.7149  0.7149  0.6176  0.4492  0.5667  0.4792  0.5197  0.5197

 Free energy of the ion-electron system (eV)
  ---------------------------------------------------
  alpha Z        PSCENC =        41.16232785
  Ewald energy   TEWEN  =     16439.67063756
  -Hartree energ DENC   =    -33418.45412509
  -exchange      EXHF   =         0.00000000
  -V(xc)+E(xc)   XCENC  =       615.52453111
  PAW double counting   =     17657.13520798   -19055.77422041
  entropy T*S    EENTRO =         0.00864313
  eigenvalues    EBANDS =      -990.50367757
  atomic energy  EATOM  =     18662.21924712
  Solvation  Ediel_sol  =         0.00000000
  ---------------------------------------------------
  free energy    TOTEN  =       -49.01142832 eV

  energy without entropy =      -49.02007145  energy(sigma->0) =      -49.01430936


--------------------------------------------------------------------------------------------------------




--------------------------------------- Iteration      1(  26)  ---------------------------------------


    POTLOK:  cpu time    1.1695: real time    1.1705
    SETDIJ:  cpu time    0.0163: real time    0.0163
    EDDIAG:  cpu time    1.0858: real time    1.0867
  RMM-DIIS:  cpu time    6.3532: real time    6.3582
    ORTHCH:  cpu time    0.0596: real time    0.0596
       DOS:  cpu time    0.0004: real time    0.0004
    CHARGE:  cpu time    0.6871: real time    0.6876
    MIXING:  cpu time    0.0478: real time    0.0478
    --------------------------------------------
      LOOP:  cpu time    9.4196: real time    9.4271

 eigenvalue-minimisations  :   393
 total energy-change (2. order) :-0.3224247E-04  (-0.3114596E-06)
 number of electron     152.9999995 magnetization       1.0000000
 augmentation part       92.3952910 magnetization       0.0819446

 Broyden mixing:
  rms(total) = 0.64701E-04    rms(broyden)= 0.64692E-04
  rms(prec ) = 0.99507E-04
  weight for this iteration     100.00

 eigenvalues of (default mixing * dielectric matrix)
  average eigenvalue GAMMA=   1.6468
  8.1307  5.3859  3.0832  2.5222  1.9140  1.9140  1.3230  1.3230  1.0169  1.0169
  0.8172  0.8172  0.7586  0.7586  0.6368  0.6368  0.4492  0.4792  0.5593  0.5196
  0.5196

 Free energy of the ion-electron system (eV)
  ---------------------------------------------------
  alpha Z        PSCENC =        41.16232785
  Ewald energy   TEWEN  =     16439.67063756
  -Hartree energ DENC   =    -33418.45436341
  -exchange      EXHF   =         0.00000000
  -V(xc)+E(xc)   XCENC  =       615.52448366
  PAW double counting   =     17657.10505789   -19055.74336337
  entropy T*S    EENTRO =         0.00864308
  eigenvalues    EBANDS =      -990.50413095
  atomic energy  EATOM  =     18662.21924712
  Solvation  Ediel_sol  =         0.00000000
  ---------------------------------------------------
  free energy    TOTEN  =       -49.01146056 eV

  energy without entropy =      -49.02010364  energy(sigma->0) =      -49.01434159


--------------------------------------------------------------------------------------------------------




--------------------------------------- Iteration      1(  27)  ---------------------------------------


    POTLOK:  cpu time    1.1715: real time    1.1737
    SETDIJ:  cpu time    0.0160: real time    0.0160
    EDDIAG:  cpu time    1.0860: real time    1.0869
  RMM-DIIS:  cpu time    4.6179: real time    4.6210
    ORTHCH:  cpu time    0.0596: real time    0.0597
       DOS:  cpu time    0.0004: real time    0.0004
    CHARGE:  cpu time    0.6873: real time    0.6877
    MIXING:  cpu time    0.0517: real time    0.0518
    --------------------------------------------
      LOOP:  cpu time    7.6905: real time    7.6971

 eigenvalue-minimisations  :   272
 total energy-change (2. order) :-0.1318339E-04  (-0.1068028E-06)
 number of electron     152.9999995 magnetization       1.0000000
 augmentation part       92.3951506 magnetization       0.0819401

 Broyden mixing:
  rms(total) = 0.57478E-04    rms(broyden)= 0.57473E-04
  rms(prec ) = 0.82399E-04
  weight for this iteration     100.00

 eigenvalues of (default mixing * dielectric matrix)
  average eigenvalue GAMMA=   1.6343
  8.1829  5.6018  3.2413  2.5091  1.9251  1.9251  1.2497  1.2497  1.2286  1.0665
  1.0665  0.7651  0.7651  0.7608  0.4492  0.6697  0.4795  0.5190  0.5190  0.5880
  0.5880  0.6043

 Free energy of the ion-electron system (eV)
  ---------------------------------------------------
  alpha Z        PSCENC =        41.16232785
  Ewald energy   TEWEN  =     16439.67063756
  -Hartree energ DENC   =    -33418.45898707
  -exchange      EXHF   =         0.00000000
  -V(xc)+E(xc)   XCENC  =       615.52457924
  PAW double counting   =     17657.10882554   -19055.74854032
  entropy T*S    EENTRO =         0.00864292
  eigenvalues    EBANDS =      -990.49820659
  atomic energy  EATOM  =     18662.21924712
  Solvation  Ediel_sol  =         0.00000000
  ---------------------------------------------------
  free energy    TOTEN  =       -49.01147374 eV

  energy without entropy =      -49.02011666  energy(sigma->0) =      -49.01435472


--------------------------------------------------------------------------------------------------------




--------------------------------------- Iteration      1(  28)  ---------------------------------------


    POTLOK:  cpu time    1.1720: real time    1.1739
    SETDIJ:  cpu time    0.0159: real time    0.0159
    EDDIAG:  cpu time    1.0860: real time    1.0868
  RMM-DIIS:  cpu time    4.5242: real time    4.5270
    ORTHCH:  cpu time    0.0593: real time    0.0593
       DOS:  cpu time    0.0004: real time    0.0004
    CHARGE:  cpu time    0.6878: real time    0.6884
[...]
     66      -4.9299      1.00000
     67      -4.8885      1.00000
     68      -4.8718      1.00000
     69      -4.8392      1.00000
     70      -4.8287      1.00000
     71      -4.8084      1.00000
     72      -4.7850      1.00000
     73      -4.7202      1.00000
     74      -4.5423      1.00000
     75      -4.2131      1.00000
     76      -4.1150      1.00000
     77      -3.5152      1.00000
     78      -3.0173     -0.00000
     79      -2.8933     -0.00000
     80      -2.5205     -0.00000
     81      -2.3940     -0.00000
     82      -1.9521     -0.00000
     83      -1.9139     -0.00000
     84      -1.7223     -0.00000
     85      -1.4059     -0.00000
     86      -1.0609     -0.00000
     87      -0.9130     -0.00000
     88      -0.6893      0.00000
     89      -0.4082      0.00000
     90      -0.1475      0.00000
     91       0.1462      0.00000
     92       0.2481      0.00000

 spin component 2

 k-point     1 :       0.0000    0.0000    0.0000
  band No.  band energies     occupation 
      1     -28.5650      1.00000
      2     -13.8451      1.00000
      3     -11.3294      1.00000
      4     -11.2037      1.00000
      5     -11.0262      1.00000
      6     -10.1075      1.00000
      7      -8.5828      1.00000
      8      -8.1543      1.00000
      9      -7.6790      1.00000
     10      -7.4940      1.00000
     11      -7.3966      1.00000
     12      -7.2700      1.00000
     13      -7.2424      1.00000
     14      -7.1170      1.00000
     15      -7.0079      1.00000
     16      -6.9197      1.00000
     17      -6.8068      1.00000
     18      -6.7470      1.00000
     19      -6.7073      1.00000
     20      -6.6250      1.00000
     21      -6.6113      1.00000
     22      -6.5440      1.00000
     23      -6.5032      1.00000
     24      -6.4590      1.00000
     25      -6.4016      1.00000
     26      -6.3631      1.00000
     27      -6.3498      1.00000
     28      -6.2757      1.00000
     29      -6.2533      1.00000
     30      -6.1918      1.00000
     31      -6.1285      1.00000
     32      -6.1019      1.00000
     33      -6.0363      1.00000
     34      -6.0122      1.00000
     35      -5.9203      1.00000
     36      -5.7929      1.00000
     37      -5.7458      1.00000
     38      -5.7034      1.00000
     39      -5.6381      1.00000
     40      -5.6306      1.00000
     41      -5.5555      1.00000
     42      -5.5159      1.00000
     43      -5.4941      1.00000
     44      -5.4595      1.00000
     45      -5.4252      1.00000
     46      -5.4039      1.00000
     47      -5.3523      1.00000
     48      -5.3478      1.00000
     49      -5.3175      1.00000
     50      -5.2953      1.00000
     51      -5.2795      1.00000
     52      -5.2559      1.00000
     53      -5.2322      1.00000
     54      -5.1961      1.00000
     55      -5.1749      1.00000
     56      -5.1532      1.00000
     57      -5.1400      1.00000
     58      -5.1308      1.00000
     59      -5.0922      1.00000
     60      -5.0644      1.00000
     61      -5.0332      1.00000
     62      -4.9906      1.00000
     63      -4.9732      1.00000
     64      -4.9677      1.00000
     65      -4.9107      1.00000
     66      -4.9043      1.00000
     67      -4.8624      1.00000
     68      -4.8204      1.00000
     69      -4.8102      1.00000
     70      -4.7973      1.00000
     71      -4.7741      1.00000
     72      -4.7649      1.00000
     73      -4.6919      1.00000
     74      -4.4978      1.00000
     75      -4.1547      1.02532
     76      -4.0741      0.97468
     77      -3.3043     -0.00000
     78      -2.9666     -0.00000
     79      -2.8444     -0.00000
     80      -2.4509     -0.00000
     81      -2.3074     -0.00000
     82      -1.9145     -0.00000
     83      -1.8454     -0.00000
     84      -1.6553     -0.00000
     85      -1.2925     -0.00000
     86      -0.9424      0.00000
     87      -0.8269      0.00000
     88      -0.6079      0.00000
     89      -0.3071      0.00000
     90      -0.2061      0.00000
     91      -0.0401      0.00000
     92       0.2054      0.00000


--------------------------------------------------------------------------------------------------------


 soft charge-density along one line, spin component           1
         0         1         2         3         4         5         6         7         8         9
 total charge-density along one line
 
 soft charge-density along one line, spin component           2
         0         1         2         3         4         5         6         7         8         9
 total charge-density along one line
 
 pseudopotential strength for first ion, spin component:           1
-10.485  -0.002  -0.013  -0.006  -0.010   0.995   0.001   0.012
 -0.002 -10.471  -0.009   0.005   0.011   0.001   0.984   0.007
 -0.013  -0.009 -10.454   0.003  -0.010   0.012   0.007   0.970
 -0.006   0.005   0.003 -10.458  -0.003   0.004  -0.006  -0.002
 -0.010   0.011  -0.010  -0.003 -10.471   0.008  -0.008   0.009
  0.995   0.001   0.012   0.004   0.008   6.310  -0.001  -0.010
  0.001   0.984   0.007  -0.006  -0.008  -0.001   6.314  -0.005
  0.012   0.007   0.970  -0.002   0.009  -0.010  -0.005   6.326
  0.004  -0.006  -0.002   0.972   0.002  -0.002   0.006   0.001
  0.008  -0.008   0.009   0.002   0.985  -0.005   0.005  -0.007
 -0.006   0.002  -0.004   0.000  -0.004   0.004   0.000  -0.000
 -0.012   0.004  -0.007   0.000  -0.008   0.008   0.001  -0.001
 -0.013   0.000   0.005  -0.000   0.009   0.009   0.001  -0.003
 -0.000  -0.007  -0.001  -0.013  -0.000   0.000   0.004   0.001
 -0.006  -0.000   0.008  -0.001  -0.013   0.002   0.000  -0.006
 -0.014   0.000   0.005  -0.000   0.010   0.009   0.001  -0.003
 -0.000  -0.007  -0.001  -0.013  -0.000   0.001   0.004   0.001
 -0.006  -0.000   0.009  -0.001  -0.014   0.001   0.001  -0.006
 pseudopotential strength for first ion, spin component:           2
-10.448  -0.002  -0.006  -0.014   0.003   0.965   0.001   0.005
 -0.002 -10.459  -0.010   0.004   0.009   0.001   0.973   0.007
 -0.006  -0.010 -10.442   0.001  -0.007   0.005   0.007   0.960
 -0.014   0.004   0.001 -10.444  -0.006   0.011  -0.004  -0.001
  0.003   0.009  -0.007  -0.006 -10.456  -0.003  -0.007   0.006
  0.965   0.001   0.005   0.011  -0.003   6.328  -0.000  -0.003
  0.001   0.973   0.007  -0.004  -0.007  -0.000   6.320  -0.005
  0.005   0.007   0.960  -0.001   0.006  -0.003  -0.005   6.330
  0.011  -0.004  -0.001   0.961   0.004  -0.007   0.003   0.001
 -0.003  -0.007   0.006   0.004   0.971   0.001   0.004  -0.004
 -0.002   0.003  -0.002  -0.000  -0.002   0.000   0.000  -0.002
 -0.004   0.005  -0.003  -0.000  -0.004   0.001   0.001  -0.003
 -0.014   0.000   0.005   0.001   0.008   0.012  -0.000  -0.004
  0.001  -0.008   0.000  -0.014   0.000  -0.000   0.006  -0.001
 -0.009   0.001   0.009   0.001  -0.015   0.006  -0.000  -0.007
 -0.016   0.001   0.006   0.001   0.009   0.013  -0.001  -0.005
  0.001  -0.008   0.001  -0.015   0.000  -0.000   0.006  -0.002
 -0.010   0.001   0.010   0.001  -0.016   0.007  -0.000  -0.009
 total augmentation occupancy for first ion, spin component:           1
  1.934   0.004  -0.007  -0.001  -0.006  -0.014   0.000   0.007   0.002   0.003  -0.013   0.013   0.037   0.005   0.026  -0.021
  0.004   1.927  -0.005   0.005  -0.000   0.000  -0.018   0.005  -0.001  -0.002  -0.001  -0.002   0.011   0.039  -0.000  -0.001
 -0.007  -0.005   1.947   0.003  -0.004   0.007   0.005  -0.028  -0.004   0.003  -0.005   0.009  -0.006   0.000  -0.020   0.006
 -0.001   0.005   0.003   1.937  -0.005   0.002  -0.001  -0.004  -0.022   0.001   0.003   0.002   0.009   0.061   0.002  -0.000
 -0.006  -0.000  -0.004  -0.005   1.938   0.003  -0.002   0.003   0.001  -0.017  -0.010   0.007  -0.009   0.002   0.036   0.011
 -0.014   0.000   0.007   0.002   0.003   0.013   0.000   0.002   0.001   0.001  -0.025  -0.000   0.022   0.002   0.005  -0.001
  0.000  -0.018   0.005  -0.001  -0.002   0.000   0.007   0.000   0.001  -0.001   0.017  -0.001   0.002   0.011   0.003  -0.000
  0.007   0.005  -0.028  -0.004   0.003   0.002   0.000   0.006  -0.000   0.001  -0.033   0.004  -0.004  -0.001  -0.008   0.000
  0.002  -0.001  -0.004  -0.022   0.001   0.001   0.001  -0.000   0.008  -0.001  -0.003   0.001   0.001   0.019  -0.002  -0.000
  0.003  -0.002   0.003   0.001  -0.017   0.001  -0.001   0.001  -0.001   0.011  -0.015   0.000  -0.018  -0.003   0.020   0.001
 -0.013  -0.001  -0.005   0.003  -0.010  -0.025   0.017  -0.033  -0.003  -0.015   1.609  -0.111   0.099   0.011   0.186  -0.014
  0.013  -0.002   0.009   0.002   0.007  -0.000  -0.001   0.004   0.001   0.000  -0.111   0.013  -0.015   0.001  -0.026   0.001
  0.037   0.011  -0.006   0.009  -0.009   0.022   0.002  -0.004   0.001  -0.018   0.099  -0.015   0.173   0.008  -0.036  -0.011
  0.005   0.039   0.000   0.061   0.002   0.002   0.011  -0.001   0.019  -0.003   0.011   0.001   0.008   0.083  -0.007  -0.001
  0.026  -0.000  -0.020   0.002   0.036   0.005   0.003  -0.008  -0.002   0.020   0.186  -0.026  -0.036  -0.007   0.130   0.001
 -0.021  -0.001   0.006  -0.000   0.011  -0.001  -0.000   0.000  -0.000   0.001  -0.014   0.001  -0.011  -0.001   0.001   0.001
 -0.000  -0.012  -0.001  -0.023   0.000  -0.000  -0.001   0.000  -0.001   0.000  -0.000  -0.000  -0.001  -0.005   0.000   0.000
 -0.012  -0.000   0.011  -0.001  -0.021   0.000  -0.000   0.001   0.000  -0.001  -0.026   0.003   0.001   0.000  -0.010   0.000
 total augmentation occupancy for first ion, spin component:           2
  0.015  -0.001   0.002  -0.005   0.008  -0.002  -0.000  -0.002   0.001  -0.002   0.034   0.006  -0.009   0.006  -0.016  -0.001
 -0.001   0.000  -0.001   0.001  -0.001  -0.000   0.002   0.000   0.001   0.000  -0.003  -0.001   0.002  -0.002   0.002   0.000
  0.002  -0.001   0.001  -0.001   0.001  -0.002   0.000   0.002   0.000  -0.001   0.005   0.000  -0.000   0.004  -0.000   0.000
 -0.005   0.001  -0.001   0.004  -0.003   0.001   0.001   0.000   0.002   0.000  -0.012  -0.002   0.002  -0.006   0.007   0.000
  0.008  -0.001   0.001  -0.003   0.003  -0.002   0.000  -0.001   0.000   0.002   0.017   0.003  -0.002   0.003  -0.011  -0.000
 -0.002  -0.000  -0.002   0.001  -0.002   0.001  -0.000   0.000  -0.000   0.000  -0.008  -0.001   0.001  -0.002   0.004   0.000
 -0.000   0.002   0.000   0.001   0.000  -0.000  -0.000   0.000  -0.000  -0.000   0.000   0.000   0.000   0.000  -0.000  -0.000
 -0.002   0.000   0.002   0.000  -0.001   0.000   0.000  -0.000  -0.000   0.000  -0.002  -0.000   0.000  -0.000   0.001   0.000
  0.001   0.001   0.000   0.002   0.000  -0.000  -0.000  -0.000  -0.000  -0.000   0.002   0.000  -0.001   0.000  -0.001  -0.000
 -0.002   0.000  -0.001   0.000   0.002   0.000  -0.000   0.000  -0.000  -0.000  -0.003  -0.000   0.001  -0.001   0.002   0.000
  0.034  -0.003   0.005  -0.012   0.017  -0.008   0.000  -0.002   0.002  -0.003   0.093   0.005  -0.015   0.018  -0.041  -0.000
  0.006  -0.001   0.000  -0.002   0.003  -0.001   0.000  -0.000   0.000  -0.000   0.005   0.001  -0.001   0.001  -0.002  -0.000
 -0.009   0.002  -0.000   0.002  -0.002   0.001   0.000   0.000  -0.001   0.001  -0.015  -0.001   0.003  -0.002   0.004   0.000
  0.006  -0.002   0.004  -0.006   0.003  -0.002   0.000  -0.000   0.000  -0.001   0.018   0.001  -0.002   0.003  -0.006  -0.000
 -0.016   0.002  -0.000   0.007  -0.011   0.004  -0.000   0.001  -0.001   0.002  -0.041  -0.002   0.004  -0.006   0.014   0.000
 -0.001   0.000   0.000   0.000  -0.000   0.000  -0.000   0.000  -0.000   0.000  -0.000  -0.000   0.000  -0.000   0.000   0.000
  0.000  -0.000   0.000  -0.001   0.000   0.000  -0.000  -0.000   0.000   0.000  -0.000   0.000   0.000   0.000   0.000  -0.000
 -0.001   0.000   0.000   0.001  -0.001   0.000   0.000   0.000  -0.000   0.000  -0.000  -0.000   0.000  -0.000   0.000   0.000


------------------------ aborting loop because EDIFF is reached ----------------------------------------


    CHARGE:  cpu time    0.6871: real time    0.6876
    FORLOC:  cpu time    0.0654: real time    0.0654
    FORNL :  cpu time    1.5367: real time    1.5373
    STRESS:  cpu time    6.0026: real time    6.0054
    FORCOR:  cpu time    1.1769: real time    1.1774
    FORHAR:  cpu time    0.1899: real time    0.1903
    MIXING:  cpu time    0.1184: real time    0.1185
    OFIELD:  cpu time    0.0001: real time    0.0001

  FORCE on cell =-STRESS in cart. coord.  units (eV):
  Direction    XX          YY          ZZ          XY          YZ          ZX
  --------------------------------------------------------------------------------------
  Alpha Z    41.16233    41.16233    41.16233
  Ewald   10301.87970  7668.36343 -1530.58843  -808.78116   306.83182   283.90566
  Hartree 15398.94426 13134.74658  4884.77418  -721.17191   275.65367   220.10599
  E(xc)    -876.22820  -877.76675  -879.55146    -0.12007     0.03732     0.24666
  Local  -27094.93099-22234.69580 -4792.72511  1528.96756  -582.21510  -498.58780
  n-local  -329.45191  -321.23159  -327.38800    -1.13905    -0.29373     0.12052
  augment  1222.39167  1226.43463  1232.86508     0.41591    -0.29693    -1.28612
  Kinetic  1335.39177  1363.15079  1370.68062     0.76427    -0.24999    -3.98041
  Fock        0.00000     0.00000     0.00000     0.00000     0.00000     0.00000
  -------------------------------------------------------------------------------------
  Total      -0.84138     0.16363    -0.77081    -1.06444    -0.53295     0.52450
  in kB      -0.39942     0.07768    -0.36592    -0.50531    -0.25300     0.24899
  external pressure =       -0.23 kB  Pullay stress =        0.00 kB


 VOLUME and BASIS-vectors are now :
 -----------------------------------------------------------------------------
  energy-cutoff  :      600.00
  volume of cell :     3375.00
      direct lattice vectors                 reciprocal lattice vectors
    15.000000000  0.000000000  0.000000000     0.066666667  0.000000000  0.000000000
     0.000000000 15.000000000  0.000000000     0.000000000  0.066666667  0.000000000
     0.000000000  0.000000000 15.000000000     0.000000000  0.000000000  0.066666667

  length of vectors
    15.000000000 15.000000000 15.000000000     0.066666667  0.066666667  0.066666667


 FORCES acting on ions
    electron-ion (+dipol)            ewald-force                    non-local-force                 convergence-correction
 -----------------------------------------------------------------------------------------------
   0.111E+04 0.667E+03 -.387E+02   -.110E+04 -.664E+03 0.392E+02   -.515E+01 -.269E+01 -.691E+00   0.242E-04 0.253E-04 0.299E-05
   0.443E+03 -.333E+03 0.956E+03   -.441E+03 0.330E+03 -.956E+03   -.194E+01 0.258E+01 -.305E-01   0.177E-04 -.240E-04 0.399E-04
   0.290E+03 0.128E+04 -.211E+03   -.288E+03 -.127E+04 0.208E+03   -.151E+01 -.899E+01 0.271E+01   0.168E-04 0.248E-04 0.142E-05
   -.852E+03 -.156E+03 0.915E+03   0.850E+03 0.155E+03 -.911E+03   0.272E+01 0.744E+00 -.395E+01   -.174E-04 -.514E-05 0.454E-04
   -.839E+03 0.102E+04 0.196E+03   0.835E+03 -.101E+04 -.194E+03   0.436E+01 -.641E+01 -.196E+01   -.750E-05 0.233E-04 0.116E-04
   -.123E+03 0.519E+03 -.952E+03   0.123E+03 -.516E+03 0.951E+03   0.611E+00 -.353E+01 -.854E-01   0.755E-06 0.248E-04 -.243E-04
   0.203E+03 0.639E+03 0.120E+04   -.202E+03 -.635E+03 -.120E+04   -.118E+01 -.395E+01 -.596E+01   0.116E-04 0.183E-04 0.446E-04
   0.124E+04 -.367E+03 0.196E+03   -.123E+04 0.365E+03 -.193E+03   -.907E+01 0.251E+01 -.350E+01   0.801E-05 -.129E-04 0.288E-05
   0.628E+03 -.190E+03 -.120E+04   -.625E+03 0.189E+03 0.119E+04   -.352E+01 0.718E+00 0.648E+01   0.203E-04 -.147E-04 -.360E-04
   0.446E+03 -.126E+04 -.150E+03   -.444E+03 0.125E+04 0.149E+03   -.267E+01 0.718E+01 0.167E+01   0.116E-04 -.200E-04 0.173E-05
   -.519E+03 -.106E+04 0.654E+03   0.515E+03 0.105E+04 -.648E+03   0.423E+01 0.636E+01 -.621E+01   -.112E-06 -.127E-04 0.211E-04
   -.873E+03 0.267E+02 -.457E+03   0.871E+03 -.276E+02 0.453E+03   0.135E+01 0.985E+00 0.402E+01   -.170E-05 0.283E-05 -.541E-05
   -.548E+03 -.762E+03 -.874E+03   0.546E+03 0.758E+03 0.871E+03   0.306E+01 0.398E+01 0.274E+01   0.861E-06 -.359E-04 -.262E-04
   -.121E+03 -.274E+02 -.112E+03   0.101E+03 0.281E+02 0.111E+03   0.201E+02 -.881E+00 0.108E+01   0.527E-06 -.573E-06 -.109E-05
   -.431E+03 0.377E+01 -.117E+03   0.491E+03 -.586E+01 0.123E+03   -.598E+02 0.217E+01 -.553E+01   -.148E-05 0.468E-06 -.400E-05
 -----------------------------------------------------------------------------------------------
   0.484E+02 -.786E+00 0.923E+01   -.455E-12 0.160E-12 -.711E-12   -.484E+02 0.785E+00 -.923E+01   0.842E-04 -.614E-05 0.746E-04
 
 
 POSITION                                       TOTAL-FORCE (eV/Angst)
 -----------------------------------------------------------------------------------
      4.34683      6.25175      8.35883         0.189859      0.213816     -0.176327
      5.69083      8.21716      7.30853        -0.383700      0.065608      0.182118
      5.91828      4.38404      8.43046         0.076653     -0.140703      0.244149
      7.98132      7.58274      7.21457         0.122148      0.157332      0.015359
      8.22821      5.26428      7.93861         0.136442     -0.078975      0.056789
      6.71617      6.57983      9.22642         0.211755     -0.544914     -0.314492
      6.23993      5.93184      6.70371        -0.066929      0.229772      0.120877
      3.41527      8.59778      8.16059        -0.070595      0.013973     -0.184622
      4.99084      8.12036      9.78470         0.096318      0.244305      0.102812
      5.29837     10.25790      8.51715        -0.047173     -0.098883      0.047425
      7.39048     10.03310      7.22200        -0.071377     -0.142081      0.051761
      9.31551      7.22154      9.16061        -0.228811      0.000048     -0.037254
      7.23720      8.87286      9.28811         0.231927      0.154828     -0.164695
     11.06810      7.39231      9.68578        -0.398458     -0.152942      0.075626
     12.21620      7.35426      9.79058         0.201943      0.078818     -0.019525
 -----------------------------------------------------------------------------------
    total drift:                                0.004881     -0.000930     -0.001903


--------------------------------------------------------------------------------------------------------



  FREE ENERGIE OF THE ION-ELECTRON SYSTEM (eV)
  ---------------------------------------------------
  free  energy   TOTEN  =       -49.01148827 eV

  energy  without entropy=      -49.02013113  energy(sigma->0) =      -49.01436922
 


--------------------------------------------------------------------------------------------------------


    POTLOK:  cpu time    1.1901: real time    1.1906


--------------------------------------------------------------------------------------------------------


     LOOP+:  cpu time  353.8682: real time  354.1893
    4ORBIT:  cpu time    0.0000: real time    0.0000

 total amount of memory used by VASP MPI-rank0   158680. kBytes
=======================================================================

   base      :      30000. kBytes
   nonl-proj :      12601. kBytes
   fftplans  :      27994. kBytes
   grid      :      74150. kBytes
   one-center:         93. kBytes
   wavefun   :      13842. kBytes
 
  
  
 General timing and accounting informations for this job:
 ========================================================
  
                  Total CPU time used (sec):      357.862
                            User time (sec):      345.443
                          System time (sec):       12.419
                         Elapsed time (sec):      358.224
  
                   Maximum memory used (kb):      283808.
                   Average memory used (kb):           0.
  
                          Minor page faults:       308044
                          Major page faults:            0
                 Voluntary context switches:          850
