 vasp.5.4.4.18Apr17-6-g9f103f2a35 (build May 08 2019 13:49:07) complex          
  
 executed on             LinuxIFC date 2019.11.13  14:04:41
 running on   24 total cores
 distrk:  each k-point on   24 cores,    1 groups
 distr:  one band on NCORES_PER_BAND=   6 cores,    4 groups


--------------------------------------------------------------------------------------------------------


 INCAR:
 POTCAR:    PAW_PBE Cu 22Jun2005                  
 POTCAR:    PAW_PBE C 08Apr2002                   
 POTCAR:    PAW_PBE O 08Apr2002                   
 POTCAR:    PAW_PBE Cu 22Jun2005                  
   VRHFIN =Cu: d10 p1                                                           
   LEXCH  = PE                                                                  
   EATOM  =  1390.9808 eV,  102.2342 Ry                                         
                                                                                
   TITEL  = PAW_PBE Cu 22Jun2005                                                
   LULTRA =        F    use ultrasoft PP ?                                      
   IUNSCR =        1    unscreen: 0-lin 1-nonlin 2-no                           
   RPACOR =    2.000    partial core radius                                     
   POMASS =   63.546; ZVAL   =   11.000    mass and valenz                      
   RCORE  =    2.300    outmost cutoff radius                                   
   RWIGS  =    2.200; RWIGS  =    1.164    wigner-seitz radius (au A)           
   ENMAX  =  295.446; ENMIN  =  221.585 eV                                      
   ICORE  =        3    local potential                                         
   LCOR   =        T    correct aug charges                                     
   LPAW   =        T    paw PP                                                  
   EAUG   =  586.980                                                            
   DEXC   =    0.000                                                            
   RMAX   =    2.344    core radius for proj-oper                               
   RAUG   =    1.300    factor for augmentation sphere                          
   RDEP   =    2.302    radius for radial grids                                 
   RDEPT  =    1.771    core radius for aug-charge                              
                                                                                
   Atomic configuration                                                         
    9 entries                                                                   
     n  l   j            E        occ.                                          
     1  0  0.50     -8850.2468   2.0000                                         
     2  0  0.50     -1062.3498   2.0000                                         
     2  1  1.50      -916.8226   6.0000                                         
     3  0  0.50      -114.6929   2.0000                                         
     3  1  1.50       -72.1325   6.0000                                         
     3  2  2.50        -5.0394  10.0000                                         
     4  0  0.50        -4.6097   1.0000                                         
     4  1  0.50        -4.0817   0.0000                                         
     4  3  2.50        -1.3606   0.0000                                         
   Description                                                                  
     l       E           TYP  RCUT    TYP  RCUT                                 
     2     -5.0393973     23  2.200                                             
     2     10.8846608     23  2.200                                             
     0     -4.6097109     23  2.200                                             
     0      8.2520465     23  2.200                                             
     1     -2.7211652     23  2.200                                             
     1     21.7055443     23  2.200                                             
     3      2.7211652     23  2.300                                             
  local pseudopotential read in
  partial core-charges read in
  partial kinetic energy density read in
  atomic valenz-charges read in
  non local Contribution for L=           2  read in
    real space projection operators read in
  non local Contribution for L=           2  read in
    real space projection operators read in
  non local Contribution for L=           0  read in
    real space projection operators read in
  non local Contribution for L=           0  read in
    real space projection operators read in
  non local Contribution for L=           1  read in
    real space projection operators read in
  non local Contribution for L=           1  read in
    real space projection operators read in
    PAW grid and wavefunctions read in
 
   number of l-projection  operators is LMAX  =           6
   number of lm-projection operators is LMMAX =          18
 
 POTCAR:    PAW_PBE C 08Apr2002                   
   VRHFIN =C: s2p2                                                              
   LEXCH  = PE                                                                  
   EATOM  =   147.1560 eV,   10.8157 Ry                                         
                                                                                
   TITEL  = PAW_PBE C 08Apr2002                                                 
   LULTRA =        F    use ultrasoft PP ?                                      
   IUNSCR =        1    unscreen: 0-lin 1-nonlin 2-no                           
   RPACOR =    1.200    partial core radius                                     
   POMASS =   12.011; ZVAL   =    4.000    mass and valenz                      
   RCORE  =    1.500    outmost cutoff radius                                   
   RWIGS  =    1.630; RWIGS  =    0.863    wigner-seitz radius (au A)           
   ENMAX  =  400.000; ENMIN  =  300.000 eV                                      
   ICORE  =        2    local potential                                         
   LCOR   =        T    correct aug charges                                     
   LPAW   =        T    paw PP                                                  
   EAUG   =  644.873                                                            
   DEXC   =    0.000                                                            
   RMAX   =    1.529    core radius for proj-oper                               
   RAUG   =    1.300    factor for augmentation sphere                          
   RDEP   =    1.501    radius for radial grids                                 
   RDEPT  =    1.300    core radius for aug-charge                              
                                                                                
   Atomic configuration                                                         
    4 entries                                                                   
     n  l   j            E        occ.                                          
     1  0  0.50      -273.3789   2.0000                                         
     2  0  0.50       -13.7508   2.0000                                         
     2  1  0.50        -5.2854   2.0000                                         
     3  2  1.50        -5.4423   0.0000                                         
   Description                                                                  
     l       E           TYP  RCUT    TYP  RCUT                                 
     0    -13.7508458     23  1.200                                             
     0     -8.2022199     23  1.200                                             
     1     -5.2854383     23  1.500                                             
     1     34.0145650     23  1.500                                             
     2     -5.4423304      7  1.500                                             
  local pseudopotential read in
  partial core-charges read in
  partial kinetic energy density read in
  atomic valenz-charges read in
  non local Contribution for L=           0  read in
    real space projection operators read in
  non local Contribution for L=           0  read in
    real space projection operators read in
  non local Contribution for L=           1  read in
    real space projection operators read in
  non local Contribution for L=           1  read in
    real space projection operators read in
    PAW grid and wavefunctions read in
 
   number of l-projection  operators is LMAX  =           4
   number of lm-projection operators is LMMAX =           8
 
 POTCAR:    PAW_PBE O 08Apr2002                   
   VRHFIN =O: s2p4                                                              
   LEXCH  = PE                                                                  
   EATOM  =   432.3788 eV,   31.7789 Ry                                         
                                                                                
   TITEL  = PAW_PBE O 08Apr2002                                                 
   LULTRA =        F    use ultrasoft PP ?                                      
   IUNSCR =        1    unscreen: 0-lin 1-nonlin 2-no                           
   RPACOR =    1.200    partial core radius                                     
   POMASS =   16.000; ZVAL   =    6.000    mass and valenz                      
   RCORE  =    1.520    outmost cutoff radius                                   
   RWIGS  =    1.550; RWIGS  =    0.820    wigner-seitz radius (au A)           
   ENMAX  =  400.000; ENMIN  =  300.000 eV                                      
   ICORE  =        2    local potential                                         
   LCOR   =        T    correct aug charges                                     
   LPAW   =        T    paw PP                                                  
   EAUG   =  605.392                                                            
   DEXC   =    0.000                                                            
   RMAX   =    1.553    core radius for proj-oper                               
   RAUG   =    1.300    factor for augmentation sphere                          
   RDEP   =    1.550    radius for radial grids                                 
   RDEPT  =    1.329    core radius for aug-charge                              
                                                                                
   Atomic configuration                                                         
    4 entries                                                                   
     n  l   j            E        occ.                                          
     1  0  0.50      -514.6923   2.0000                                         
     2  0  0.50       -23.9615   2.0000                                         
     2  1  0.50        -9.0305   4.0000                                         
     3  2  1.50        -9.5241   0.0000                                         
   Description                                                                  
     l       E           TYP  RCUT    TYP  RCUT                                 
     0    -23.9615318     23  1.200                                             
     0     -9.5240782     23  1.200                                             
     1     -9.0304911     23  1.520                                             
     1      8.1634956     23  1.520                                             
     2     -9.5240782      7  1.500                                             
  local pseudopotential read in
  partial core-charges read in
  partial kinetic energy density read in
  kinetic energy density of atom read in
  atomic valenz-charges read in
  non local Contribution for L=           0  read in
    real space projection operators read in
  non local Contribution for L=           0  read in
    real space projection operators read in
  non local Contribution for L=           1  read in
    real space projection operators read in
  non local Contribution for L=           1  read in
    real space projection operators read in
    PAW grid and wavefunctions read in
 
   number of l-projection  operators is LMAX  =           4
   number of lm-projection operators is LMMAX =           8
 
  PAW_PBE Cu 22Jun2005                  :
 energy of atom  1       EATOM=-1390.9808
 kinetic energy error for atom=    0.0033 (will be added to EATOM!!)
  PAW_PBE C 08Apr2002                   :
 energy of atom  2       EATOM= -147.1560
 kinetic energy error for atom=    0.0057 (will be added to EATOM!!)
  PAW_PBE O 08Apr2002                   :
 energy of atom  3       EATOM= -432.3788
 kinetic energy error for atom=    0.0168 (will be added to EATOM!!)
 
 
 POSCAR: Cu13 C1 O1                              
  positions in cartesian coordinates
  No initial velocities read in
 exchange correlation table for  LEXCH =        8
   RHO(1)=    0.500       N(1)  =     2000
   RHO(2)=  100.500       N(2)  =     4000
 


--------------------------------------------------------------------------------------------------------


 ion  position               nearest neighbor table
   1  0.294  0.423  0.560-   9 2.34   2 2.42   7 2.44   6 2.45   8 2.46   3 2.57
   2  0.378  0.546  0.496-  10 2.34   4 2.39   7 2.42   1 2.42  13 2.43   9 2.53   8 2.58  11 2.63
                             6 2.68
   3  0.406  0.294  0.571-   6 2.35   7 2.38   5 2.44   1 2.57
   4  0.528  0.500  0.471-   2 2.39  12 2.41   7 2.41   5 2.42  13 2.58  11 2.64   6 2.75
   5  0.552  0.351  0.528-   4 2.42   3 2.44   6 2.49   7 2.54  12 2.67
   6  0.445  0.437  0.621-   9 2.35   3 2.35  13 2.37   1 2.45   5 2.49   2 2.68   7 2.71   4 2.75

   7  0.410  0.395  0.449-   3 2.38   4 2.41   2 2.42   1 2.44   5 2.54   6 2.71
   8  0.219  0.569  0.557-   9 2.31   1 2.46  10 2.48   2 2.58
   9  0.331  0.538  0.658-   8 2.31   1 2.34   6 2.35  10 2.39  13 2.51   2 2.53
  10  0.344  0.675  0.577-   2 2.34   9 2.39   8 2.48  13 2.49
  11  0.495  0.673  0.467-  13 2.48   2 2.63   4 2.64
  12  0.629  0.497  0.595-  14 1.84   4 2.41  13 2.61   5 2.67
  13  0.483  0.590  0.610-   6 2.37   2 2.43  11 2.48  10 2.49   9 2.51   4 2.58  12 2.61
  14  0.747  0.497  0.628-  15 1.18  12 1.84
  15  0.823  0.491  0.649-  14 1.18
 

IMPORTANT INFORMATION: All symmetrisations will be switched off!
NOSYMM: (Re-)initialisation of all symmetry stuff for point group C_1.

 
 

Automatic generation of k-mesh.
 generate k-points for:    1    1    1
Space group operators:
 irot       det(A)        alpha          n_x          n_y          n_z        tau_x        tau_y        tau_z
    1     1.000000     0.000000     1.000000     0.000000     0.000000     0.000000     0.000000     0.000000
 
 Subroutine IBZKPT returns following result:
 ===========================================
 
 Found      1 irreducible k-points:
 
 Following reciprocal coordinates:
            Coordinates               Weight
  0.000000  0.000000  0.000000      1.000000
 
 Following cartesian coordinates:
            Coordinates               Weight
  0.000000  0.000000  0.000000      1.000000
 


--------------------------------------------------------------------------------------------------------




 Dimension of arrays:
   k-points           NKPTS =      1   k-points in BZ     NKDIM =      1   number of bands    NBANDS=     92
   number of dos      NEDOS =    301   number of ions     NIONS =     15
   non local maximal  LDIM  =      6   non local SUM 2l+1 LMDIM =     18
   total plane-waves  NPLWV = ******
   max r-space proj   IRMAX =      1   max aug-charges    IRDMAX=  15028
   dimension x,y,z NGX =   120 NGY =  120 NGZ =  120
   dimension x,y,z NGXF=   240 NGYF=  240 NGZF=  240
   support grid    NGXF=   240 NGYF=  240 NGZF=  240
   ions per type =              13   1   1
   NGX,Y,Z   is equivalent  to a cutoff of  13.30, 13.30, 13.30 a.u.
   NGXF,Y,Z  is equivalent  to a cutoff of  26.60, 26.60, 26.60 a.u.

 SYSTEM =  CuCO                                    
 POSCAR =  Cu13 C1 O1                              

 Startparameter for this run:
   NWRITE =      2    write-flag & timer
   PREC   = accura    normal or accurate (medium, high low for compatibility)
   ISTART =      0    job   : 0-new  1-cont  2-samecut
   ICHARG =      2    charge: 1-file 2-atom 10-const
   ISPIN  =      2    spin polarized calculation?
   LNONCOLLINEAR =      F non collinear calculations
   LSORBIT =      F    spin-orbit coupling
   INIWAV =      1    electr: 0-lowe 1-rand  2-diag
   LASPH  =      F    aspherical Exc in radial PAW
   METAGGA=      F    non-selfconsistent MetaGGA calc.

 Electronic Relaxation 1
   ENCUT  =  600.0 eV  44.10 Ry    6.64 a.u.  29.96 29.96 29.96*2*pi/ulx,y,z
   ENINI  =  600.0     initial cutoff
   ENAUG  =  644.9 eV  augmentation charge cutoff
   NELM   =    300;   NELMIN=  3; NELMDL= -5     # of ELM steps 
   EDIFF  = 0.1E-06   stopping-criterion for ELM
   LREAL  =      F    real-space projection
   NLSPLINE    = F    spline interpolate recip. space projectors
   LCOMPAT=      F    compatible to vasp.4.4
   GGA_COMPAT  = T    GGA compatible to vasp.4.4-vasp.4.6
   LMAXPAW     = -100 max onsite density
   LMAXMIX     =    2 max onsite mixed and CHGCAR
   VOSKOWN=      0    Vosko Wilk Nusair interpolation
   ROPT   =    0.00000   0.00000   0.00000
 Ionic relaxation
   EDIFFG = -.1E-02   stopping-criterion for IOM
   NSW    =      0    number of steps for IOM
   NBLOCK =      1;   KBLOCK =      1    inner block; outer block 
   IBRION =     -1    ionic relax: 0-MD 1-quasi-New 2-CG
   NFREE  =      0    steps in history (QN), initial steepest desc. (CG)
   ISIF   =      2    stress and relaxation
   IWAVPR =     10    prediction:  0-non 1-charg 2-wave 3-comb
   ISYM   =      0    0-nonsym 1-usesym 2-fastsym
   LCORR  =      T    Harris-Foulkes like correction to forces

   POTIM  = 0.5000    time-step for ionic-motion
   TEIN   =    0.0    initial temperature
   TEBEG  =    0.0;   TEEND  =   0.0 temperature during run
   SMASS  =  -3.00    Nose mass-parameter (am)
   estimated Nose-frequenzy (Omega)   =  0.10E-29 period in steps =****** mass=  -0.514E-26a.u.
   SCALEE = 1.0000    scale energy and forces
   NPACO  =    256;   APACO  = 16.0  distance and # of slots for P.C.
   PSTRESS=    0.0 pullay stress

  Mass of Ions in am
   POMASS =  63.55 12.01 16.00
  Ionic Valenz
   ZVAL   =  11.00  4.00  6.00
  Atomic Wigner-Seitz radii
   RWIGS  =  -1.00 -1.00 -1.00
  virtual crystal weights 
   VCA    =   1.00  1.00  1.00
   NELECT =     153.0000    total number of electrons
   NUPDOWN=       1.0000    fix difference up-down

 DOS related values:
   EMIN   =  10.00;   EMAX   =-10.00  energy-range for DOS
   EFERMI =   0.00
   ISMEAR =     1;   SIGMA  =   0.10  broadening in eV -4-tet -1-fermi 0-gaus

 Electronic relaxation 2 (details)
   IALGO  =     68    algorithm
   LDIAG  =      T    sub-space diagonalisation (order eigenvalues)
   LSUBROT=      F    optimize rotation matrix (better conditioning)
   TURBO    =      0    0=normal 1=particle mesh
   IRESTART =      0    0=no restart 2=restart with 2 vectors
   NREBOOT  =      0    no. of reboots
   NMIN     =      0    reboot dimension
   EREF     =   0.00    reference energy to select bands
   IMIX   =      4    mixing-type and parameters
     AMIX     =   0.40;   BMIX     =  1.00
     AMIX_MAG =   1.60;   BMIX_MAG =  1.00
     AMIN     =   0.10
     WC   =   100.;   INIMIX=   1;  MIXPRE=   1;  MAXMIX= -45

 Intra band minimization:
   WEIMIN = 0.0000     energy-eigenvalue tresh-hold
   EBREAK =  0.27E-09  absolut break condition
   DEPER  =   0.30     relativ break condition  

   TIME   =   0.40     timestep for ELM

  volume/ion in A,a.u.               =     225.00      1518.37
  Fermi-wavevector in a.u.,A,eV,Ry     =   0.583733  1.103095  4.636102  0.340744
  Thomas-Fermi vector in A             =   1.629149
 
 Write flags
   LWAVE        =      F    write WAVECAR
   LDOWNSAMPLE  =      F    k-point downsampling of WAVECAR
   LCHARG       =      F    write CHGCAR
   LVTOT        =      F    write LOCPOT, total local potential
   LVHAR        =      F    write LOCPOT, Hartree potential only
   LELF         =      F    write electronic localiz. function (ELF)
   LORBIT       =      0    0 simple, 1 ext, 2 COOP (PROOUT), +10 PAW based schemes


 Dipole corrections
   LMONO  =      F    monopole corrections only (constant potential shift)
   LDIPOL =      F    correct potential (dipole corrections)
   IDIPOL =      0    1-x, 2-y, 3-z, 4-all directions 
   EPSILON=  1.0000000 bulk dielectric constant

 Exchange correlation treatment:
   GGA     =    PE    GGA type
   LEXCH   =     8    internal setting for exchange type
   VOSKOWN=      0    Vosko Wilk Nusair interpolation
   LHFCALC =     F    Hartree Fock is set to
   LHFONE  =     F    Hartree Fock one center treatment
   AEXX    =    0.0000 exact exchange contribution

 Linear response parameters
   LEPSILON=     F    determine dielectric tensor
   LRPA    =     F    only Hartree local field effects (RPA)
   LNABLA  =     F    use nabla operator in PAW spheres
   LVEL    =     F    velocity operator in full k-point grid
   LINTERFAST=   F  fast interpolation
   KINTER  =     0    interpolate to denser k-point grid
   CSHIFT  =0.1000    complex shift for real part using Kramers Kronig
   OMEGAMAX=  -1.0    maximum frequency
   DEG_THRESHOLD= 0.2000000E-02 threshold for treating states as degnerate
   RTIME   =   -0.100 relaxation time in fs
  (WPLASMAI=    0.000 imaginary part of plasma frequency in eV, 0.658/RTIME)
   DFIELD  = 0.0000000 0.0000000 0.0000000 field for delta impulse in time
 
 Orbital magnetization related:
   ORBITALMAG=     F  switch on orbital magnetization
   LCHIMAG   =     F  perturbation theory with respect to B field
   DQ        =  0.001000  dq finite difference perturbation B field
   LLRAUG    =     F  two centre corrections for induced B field



--------------------------------------------------------------------------------------------------------


 Static calculation
 charge density and potential will be updated during run
 spin polarized calculation
 RMM-DIIS sequential band-by-band and
  variant of blocked Davidson during initial phase
 perform sub-space diagonalisation
    before iterative eigenvector-optimisation
 modified Broyden-mixing scheme, WC =      100.0
 initial mixing is a Kerker type mixing with AMIX =  0.4000 and BMIX =      1.0000
 Hartree-type preconditioning will be used
 using additional bands           15
 reciprocal scheme for non local part
 use partial core corrections
 calculate Harris-corrections to forces 
   (improved forces if not selfconsistent)
 use gradient corrections 
 use of overlap-Matrix (Vanderbilt PP)
 Methfessel and Paxton  Order N= 1 SIGMA  =   0.10


--------------------------------------------------------------------------------------------------------


  energy-cutoff  :      600.00
  volume of cell :     3375.00
      direct lattice vectors                 reciprocal lattice vectors
    15.000000000  0.000000000  0.000000000     0.066666667  0.000000000  0.000000000
     0.000000000 15.000000000  0.000000000     0.000000000  0.066666667  0.000000000
     0.000000000  0.000000000 15.000000000     0.000000000  0.000000000  0.066666667

  length of vectors
    15.000000000 15.000000000 15.000000000     0.066666667  0.066666667  0.066666667


 
 k-points in units of 2pi/SCALE and weight: read from INCAR                         
   0.00000000  0.00000000  0.00000000       1.000
 
 k-points in reciprocal lattice and weights: read from INCAR                         
   0.00000000  0.00000000  0.00000000       1.000
 
 position of ions in fractional coordinates (direct lattice) 
   0.29403800  0.42286667  0.55976133
   0.37755467  0.54555067  0.49569000
   0.40601733  0.29356600  0.57090333
   0.52845667  0.50012667  0.47059533
   0.55224333  0.35131467  0.52828600
   0.44461667  0.43704533  0.62073333
   0.40950667  0.39460533  0.44873067
   0.21881867  0.56869467  0.55717200
   0.33126800  0.53819600  0.65775867
   0.34411667  0.67459333  0.57654467
   0.49512467  0.67266000  0.46712733
   0.62937333  0.49733267  0.59520467
   0.48290800  0.59022800  0.61008800
   0.74745333  0.49655200  0.62771133
   0.82273333  0.49103733  0.64911600
 
 position of ions in cartesian coordinates  (Angst):
   4.41057000  6.34300000  8.39642000
   5.66332000  8.18326000  7.43535000
   6.09026000  4.40349000  8.56355000
   7.92685000  7.50190000  7.05893000
   8.28365000  5.26972000  7.92429000
   6.66925000  6.55568000  9.31100000
   6.14260000  5.91908000  6.73096000
   3.28228000  8.53042000  8.35758000
   4.96902000  8.07294000  9.86638000
   5.16175000 10.11890000  8.64817000
   7.42687000 10.08990000  7.00691000
   9.44060000  7.45999000  8.92807000
   7.24362000  8.85342000  9.15132000
  11.21180000  7.44828000  9.41567000
  12.34100000  7.36556000  9.73674000
 


--------------------------------------------------------------------------------------------------------


 k-point  1 :   0.0000 0.0000 0.0000  plane waves:  112451

 maximum and minimum number of plane-waves per node :     18753    18726

 maximum number of plane-waves:    112451
 maximum index in each direction: 
   IXMAX=   29   IYMAX=   29   IZMAX=   29
   IXMIN=  -29   IYMIN=  -29   IZMIN=  -29


 parallel 3D FFT for wavefunctions:
    minimum data exchange during FFTs selected (reduces bandwidth)
 parallel 3D FFT for charge:
    minimum data exchange during FFTs selected (reduces bandwidth)


 total amount of memory used by VASP MPI-rank0   158680. kBytes
=======================================================================

   base      :      30000. kBytes
   nonl-proj :      12601. kBytes
   fftplans  :      27994. kBytes
   grid      :      74150. kBytes
   one-center:         93. kBytes
   wavefun   :      13842. kBytes
 
     INWAV:  cpu time    0.0000: real time    0.0001
 Broyden mixing: mesh for mixing (old mesh)
   NGX = 59   NGY = 59   NGZ = 59
  (NGX  =240   NGY  =240   NGZ  =240)
  gives a total of 205379 points

 initial charge density was supplied:
 charge density of overlapping atoms calculated
 number of electron     153.0000000 magnetization       1.0000000
 keeping initial charge density in first step


--------------------------------------------------------------------------------------------------------


 Maximum index for augmentation-charges          710 (set IRDMAX)


--------------------------------------------------------------------------------------------------------


 First call to EWALD:  gamma=   0.118
 Maximum number of real-space cells 3x 3x 3
 Maximum number of reciprocal cells 3x 3x 3

    FEWALD:  cpu time    0.0020: real time    0.0024


--------------------------------------- Iteration      1(   1)  ---------------------------------------


    POTLOK:  cpu time    1.1691: real time    1.1767
    SETDIJ:  cpu time    0.0168: real time    0.0168
     EDDAV:  cpu time    7.4063: real time    7.4259
       DOS:  cpu time    0.0013: real time    0.0013
    --------------------------------------------
      LOOP:  cpu time    8.5936: real time    8.6207

 eigenvalue-minimisations  :   376
 total energy-change (2. order) : 0.1117844E+04  (-0.4461698E+04)
 number of electron     153.0000000 magnetization       1.0000000
 augmentation part      153.0000000 magnetization       1.0000000

 Free energy of the ion-electron system (eV)
  ---------------------------------------------------
  alpha Z        PSCENC =        41.16232785
  Ewald energy   TEWEN  =     16234.14130717
  -Hartree energ DENC   =    -33259.24947080
  -exchange      EXHF   =         0.00000000
  -V(xc)+E(xc)   XCENC  =       623.25077685
  PAW double counting   =     16421.75059358   -17800.06104309
  entropy T*S    EENTRO =        -0.00496372
  eigenvalues    EBANDS =       194.63572043
  atomic energy  EATOM  =     18662.21924712
  Solvation  Ediel_sol  =         0.00000000
  ---------------------------------------------------
  free energy    TOTEN  =      1117.84449538 eV

  energy without entropy =     1117.84945910  energy(sigma->0) =     1117.84614995


--------------------------------------------------------------------------------------------------------




--------------------------------------- Iteration      1(   2)  ---------------------------------------


     EDDAV:  cpu time    7.3013: real time    7.3226
       DOS:  cpu time    0.0005: real time    0.0005
    --------------------------------------------
      LOOP:  cpu time    7.3018: real time    7.3231

 eigenvalue-minimisations  :   368
 total energy-change (2. order) :-0.1030074E+04  (-0.9809410E+03)
 number of electron     153.0000000 magnetization       1.0000000
 augmentation part      153.0000000 magnetization       1.0000000

 Free energy of the ion-electron system (eV)
  ---------------------------------------------------
  alpha Z        PSCENC =        41.16232785
  Ewald energy   TEWEN  =     16234.14130717
  -Hartree energ DENC   =    -33259.24947080
  -exchange      EXHF   =         0.00000000
  -V(xc)+E(xc)   XCENC  =       623.25077685
  PAW double counting   =     16421.75059358   -17800.06104309
  entropy T*S    EENTRO =         0.00679397
  eigenvalues    EBANDS =      -835.44998719
  atomic energy  EATOM  =     18662.21924712
  Solvation  Ediel_sol  =         0.00000000
  ---------------------------------------------------
  free energy    TOTEN  =        87.77054545 eV

  energy without entropy =       87.76375148  energy(sigma->0) =       87.76828079


--------------------------------------------------------------------------------------------------------




--------------------------------------- Iteration      1(   3)  ---------------------------------------


     EDDAV:  cpu time   11.6925: real time   11.6977
       DOS:  cpu time    0.0005: real time    0.0005
    --------------------------------------------
      LOOP:  cpu time   11.6930: real time   11.6982

 eigenvalue-minimisations  :   664
 total energy-change (2. order) :-0.1217809E+03  (-0.1131129E+03)
 number of electron     153.0000000 magnetization       1.0000000
 augmentation part      153.0000000 magnetization       1.0000000

 Free energy of the ion-electron system (eV)
  ---------------------------------------------------
  alpha Z        PSCENC =        41.16232785
  Ewald energy   TEWEN  =     16234.14130717
  -Hartree energ DENC   =    -33259.24947080
  -exchange      EXHF   =         0.00000000
  -V(xc)+E(xc)   XCENC  =       623.25077685
  PAW double counting   =     16421.75059358   -17800.06104309
  entropy T*S    EENTRO =         0.00936448
  eigenvalues    EBANDS =      -957.23346430
  atomic energy  EATOM  =     18662.21924712
  Solvation  Ediel_sol  =         0.00000000
  ---------------------------------------------------
  free energy    TOTEN  =       -34.01036116 eV

  energy without entropy =      -34.01972563  energy(sigma->0) =      -34.01348265


--------------------------------------------------------------------------------------------------------




--------------------------------------- Iteration      1(   4)  ---------------------------------------


     EDDAV:  cpu time   10.1281: real time   10.1334
       DOS:  cpu time    0.0006: real time    0.0006
    --------------------------------------------
      LOOP:  cpu time   10.1288: real time   10.1340

 eigenvalue-minimisations  :   560
 total energy-change (2. order) :-0.2139222E+02  (-0.2107237E+02)
 number of electron     153.0000000 magnetization       1.0000000
 augmentation part      153.0000000 magnetization       1.0000000

 Free energy of the ion-electron system (eV)
  ---------------------------------------------------
  alpha Z        PSCENC =        41.16232785
  Ewald energy   TEWEN  =     16234.14130717
  -Hartree energ DENC   =    -33259.24947080
  -exchange      EXHF   =         0.00000000
  -V(xc)+E(xc)   XCENC  =       623.25077685
  PAW double counting   =     16421.75059358   -17800.06104309
  entropy T*S    EENTRO =         0.00748359
  eigenvalues    EBANDS =      -978.62380255
  atomic energy  EATOM  =     18662.21924712
  Solvation  Ediel_sol  =         0.00000000
  ---------------------------------------------------
  free energy    TOTEN  =       -55.40258029 eV

  energy without entropy =      -55.41006388  energy(sigma->0) =      -55.40507482


--------------------------------------------------------------------------------------------------------




--------------------------------------- Iteration      1(   5)  ---------------------------------------


     EDDAV:  cpu time   12.2847: real time   12.2905
       DOS:  cpu time    0.0006: real time    0.0006
    CHARGE:  cpu time    0.6586: real time    0.6589
    MIXING:  cpu time    0.0233: real time    0.0233
    --------------------------------------------
      LOOP:  cpu time   12.9673: real time   12.9733

 eigenvalue-minimisations  :   704
 total energy-change (2. order) :-0.1486503E+01  (-0.1368629E+01)
 number of electron     152.9999996 magnetization       1.0000000
 augmentation part       87.4458907 magnetization       0.3814108

 Broyden mixing:
  rms(total) = 0.23822E+01    rms(broyden)= 0.23821E+01
  rms(prec ) = 0.27349E+01
  weight for this iteration     100.00

 Free energy of the ion-electron system (eV)
  ---------------------------------------------------
  alpha Z        PSCENC =        41.16232785
  Ewald energy   TEWEN  =     16234.14130717
  -Hartree energ DENC   =    -33259.24947080
  -exchange      EXHF   =         0.00000000
  -V(xc)+E(xc)   XCENC  =       623.25077685
  PAW double counting   =     16421.75059358   -17800.06104309
  entropy T*S    EENTRO =         0.01016344
  eigenvalues    EBANDS =      -980.11298530
  atomic energy  EATOM  =     18662.21924712
  Solvation  Ediel_sol  =         0.00000000
  ---------------------------------------------------
  free energy    TOTEN  =       -56.88908319 eV

  energy without entropy =      -56.89924663  energy(sigma->0) =      -56.89247100


--------------------------------------------------------------------------------------------------------




--------------------------------------- Iteration      1(   6)  ---------------------------------------


    POTLOK:  cpu time    1.1593: real time    1.1622
    SETDIJ:  cpu time    0.0162: real time    0.0162
    EDDIAG:  cpu time    1.0895: real time    1.0900
  RMM-DIIS:  cpu time    7.1549: real time    7.1576
    ORTHCH:  cpu time    0.0586: real time    0.0586
       DOS:  cpu time    0.0004: real time    0.0004
    CHARGE:  cpu time    0.6341: real time    0.6345
    MIXING:  cpu time    0.0232: real time    0.0231
    --------------------------------------------
      LOOP:  cpu time   10.1362: real time   10.1426

 eigenvalue-minimisations  :   424
 total energy-change (2. order) : 0.2401375E+00  (-0.1236259E+02)
 number of electron     152.9999997 magnetization       1.0000000
 augmentation part       95.7201294 magnetization       0.0842825

 Broyden mixing:
  rms(total) = 0.16091E+01    rms(broyden)= 0.16089E+01
  rms(prec ) = 0.18575E+01
  weight for this iteration     100.00

 eigenvalues of (default mixing * dielectric matrix)
  average eigenvalue GAMMA=   0.6067
  0.6067

 Free energy of the ion-electron system (eV)
  ---------------------------------------------------
  alpha Z        PSCENC =        41.16232785
  Ewald energy   TEWEN  =     16234.14130717
  -Hartree energ DENC   =    -33006.05249737
  -exchange      EXHF   =         0.00000000
  -V(xc)+E(xc)   XCENC  =       610.96737477
  PAW double counting   =     16685.40103860   -18009.18273042
  entropy T*S    EENTRO =         0.00611773
  eigenvalues    EBANDS =     -1275.31113117
  atomic energy  EATOM  =     18662.21924712
  Solvation  Ediel_sol  =         0.00000000
  ---------------------------------------------------
  free energy    TOTEN  =       -56.64894573 eV

  energy without entropy =      -56.65506345  energy(sigma->0) =      -56.65098497


--------------------------------------------------------------------------------------------------------




--------------------------------------- Iteration      1(   7)  ---------------------------------------


    POTLOK:  cpu time    1.1597: real time    1.1610
    SETDIJ:  cpu time    0.0161: real time    0.0161
    EDDIAG:  cpu time    1.0899: real time    1.0905
  RMM-DIIS:  cpu time    6.5411: real time    6.5446
    ORTHCH:  cpu time    0.0593: real time    0.0594
       DOS:  cpu time    0.0005: real time    0.0005
    CHARGE:  cpu time    0.6443: real time    0.6443
    MIXING:  cpu time    0.0234: real time    0.0234
    --------------------------------------------
      LOOP:  cpu time    9.5344: real time    9.5398

 eigenvalue-minimisations  :   379
 total energy-change (2. order) : 0.7733044E+01  (-0.2616417E+01)
 number of electron     152.9999996 magnetization       1.0000000
 augmentation part       92.9383151 magnetization       0.1079025

 Broyden mixing:
  rms(total) = 0.40368E+00    rms(broyden)= 0.40366E+00
  rms(prec ) = 0.50135E+00
  weight for this iteration     100.00

 eigenvalues of (default mixing * dielectric matrix)
  average eigenvalue GAMMA=   0.9288
  1.1836  0.6739

 Free energy of the ion-electron system (eV)
  ---------------------------------------------------
  alpha Z        PSCENC =        41.16232785
  Ewald energy   TEWEN  =     16234.14130717
  -Hartree energ DENC   =    -33140.49720150
  -exchange      EXHF   =         0.00000000
  -V(xc)+E(xc)   XCENC  =       615.36514010
  PAW double counting   =     17018.99830650   -18392.13428851
  entropy T*S    EENTRO =         0.00714591
  eigenvalues    EBANDS =     -1088.17788653
  atomic energy  EATOM  =     18662.21924712
  Solvation  Ediel_sol  =         0.00000000
  ---------------------------------------------------
  free energy    TOTEN  =       -48.91590189 eV

  energy without entropy =      -48.92304780  energy(sigma->0) =      -48.91828386


--------------------------------------------------------------------------------------------------------




--------------------------------------- Iteration      1(   8)  ---------------------------------------


    POTLOK:  cpu time    1.1608: real time    1.1618
    SETDIJ:  cpu time    0.0160: real time    0.0160
    EDDIAG:  cpu time    1.0897: real time    1.0905
  RMM-DIIS:  cpu time    6.7029: real time    6.7067
    ORTHCH:  cpu time    0.0584: real time    0.0584
       DOS:  cpu time    0.0006: real time    0.0005
    CHARGE:  cpu time    0.6554: real time    0.6557
    MIXING:  cpu time    0.0241: real time    0.0241
    --------------------------------------------
      LOOP:  cpu time    9.7077: real time    9.7137

 eigenvalue-minimisations  :   424
 total energy-change (2. order) : 0.2325928E+00  (-0.4976929E+00)
 number of electron     152.9999997 magnetization       1.0000000
 augmentation part       92.0411482 magnetization       0.1109879

 Broyden mixing:
  rms(total) = 0.35087E+00    rms(broyden)= 0.35084E+00
  rms(prec ) = 0.39774E+00
  weight for this iteration     100.00

 eigenvalues of (default mixing * dielectric matrix)
  average eigenvalue GAMMA=   0.8822
  1.2904  0.6781  0.6781

 Free energy of the ion-electron system (eV)
  ---------------------------------------------------
  alpha Z        PSCENC =        41.16232785
  Ewald energy   TEWEN  =     16234.14130717
  -Hartree energ DENC   =    -33192.45006707
  -exchange      EXHF   =         0.00000000
  -V(xc)+E(xc)   XCENC  =       615.88874319
  PAW double counting   =     17372.97039873   -18766.50710004
  entropy T*S    EENTRO =         0.00734061
  eigenvalues    EBANDS =     -1016.11550660
  atomic energy  EATOM  =     18662.21924712
  Solvation  Ediel_sol  =         0.00000000
  ---------------------------------------------------
  free energy    TOTEN  =       -48.68330905 eV

  energy without entropy =      -48.69064966  energy(sigma->0) =      -48.68575592


--------------------------------------------------------------------------------------------------------




--------------------------------------- Iteration      1(   9)  ---------------------------------------


    POTLOK:  cpu time    1.1620: real time    1.1633
    SETDIJ:  cpu time    0.0158: real time    0.0158
    EDDIAG:  cpu time    1.0899: real time    1.0909
  RMM-DIIS:  cpu time    6.8299: real time    6.8435
    ORTHCH:  cpu time    0.0583: real time    0.0583
       DOS:  cpu time    0.0003: real time    0.0003
    CHARGE:  cpu time    0.6547: real time    0.6550
    MIXING:  cpu time    0.0250: real time    0.0250
    --------------------------------------------
      LOOP:  cpu time    9.8360: real time    9.8521

 eigenvalue-minimisations  :   413
 total energy-change (2. order) : 0.7771815E-01  (-0.1117720E+00)
 number of electron     152.9999997 magnetization       1.0000000
 augmentation part       92.2552463 magnetization       0.0994893

 Broyden mixing:
  rms(total) = 0.19264E+00    rms(broyden)= 0.19263E+00
  rms(prec ) = 0.22913E+00
  weight for this iteration     100.00

 eigenvalues of (default mixing * dielectric matrix)
  average eigenvalue GAMMA=   1.0118
  2.0290  0.7691  0.7691  0.4799

 Free energy of the ion-electron system (eV)
  ---------------------------------------------------
  alpha Z        PSCENC =        41.16232785
  Ewald energy   TEWEN  =     16234.14130717
  -Hartree energ DENC   =    -33188.98283004
  -exchange      EXHF   =         0.00000000
  -V(xc)+E(xc)   XCENC  =       615.47024965
  PAW double counting   =     17454.41942638   -18849.15664606
  entropy T*S    EENTRO =         0.00686437
  eigenvalues    EBANDS =     -1017.88553733
  atomic energy  EATOM  =     18662.21924712
  Solvation  Ediel_sol  =         0.00000000
  ---------------------------------------------------
  free energy    TOTEN  =       -48.60559090 eV

  energy without entropy =      -48.61245527  energy(sigma->0) =      -48.60787903


--------------------------------------------------------------------------------------------------------




--------------------------------------- Iteration      1(  10)  ---------------------------------------


    POTLOK:  cpu time    1.1619: real time    1.1646
    SETDIJ:  cpu time    0.0161: real time    0.0161
    EDDIAG:  cpu time    1.0888: real time    1.0897
  RMM-DIIS:  cpu time    7.8195: real time    7.8328
    ORTHCH:  cpu time    0.0582: real time    0.0582
       DOS:  cpu time    0.0004: real time    0.0004
    CHARGE:  cpu time    0.6579: real time    0.6583
    MIXING:  cpu time    0.0251: real time    0.0251
    --------------------------------------------
      LOOP:  cpu time   10.8280: real time   10.8452

 eigenvalue-minimisations  :   423
 total energy-change (2. order) : 0.6643793E-01  (-0.2148672E-01)
 number of electron     152.9999997 magnetization       1.0000000
 augmentation part       92.4692602 magnetization       0.0876792

 Broyden mixing:
  rms(total) = 0.72200E-01    rms(broyden)= 0.72197E-01
  rms(prec ) = 0.93284E-01
  weight for this iteration     100.00

 eigenvalues of (default mixing * dielectric matrix)
  average eigenvalue GAMMA=   1.0365
  2.1056  1.0995  0.7491  0.7491  0.4791

 Free energy of the ion-electron system (eV)
  ---------------------------------------------------
  alpha Z        PSCENC =        41.16232785
  Ewald energy   TEWEN  =     16234.14130717
  -Hartree energ DENC   =    -33185.85945566
  -exchange      EXHF   =         0.00000000
  -V(xc)+E(xc)   XCENC  =       614.96646991
  PAW double counting   =     17561.44075160   -18957.66365563
  entropy T*S    EENTRO =         0.00672702
  eigenvalues    EBANDS =     -1018.95287235
  atomic energy  EATOM  =     18662.21924712
  Solvation  Ediel_sol  =         0.00000000
  ---------------------------------------------------
  free energy    TOTEN  =       -48.53915298 eV

  energy without entropy =      -48.54588000  energy(sigma->0) =      -48.54139532


--------------------------------------------------------------------------------------------------------




--------------------------------------- Iteration      1(  11)  ---------------------------------------


    POTLOK:  cpu time    1.1600: real time    1.1616
    SETDIJ:  cpu time    0.0157: real time    0.0157
    EDDIAG:  cpu time    1.0911: real time    1.0918
  RMM-DIIS:  cpu time    7.1663: real time    7.1730
    ORTHCH:  cpu time    0.0553: real time    0.0553
       DOS:  cpu time    0.0004: real time    0.0004
    CHARGE:  cpu time    0.6505: real time    0.6507
    MIXING:  cpu time    0.0255: real time    0.0259
    --------------------------------------------
      LOOP:  cpu time   10.1650: real time   10.1745

 eigenvalue-minimisations  :   439
 total energy-change (2. order) : 0.1577151E-01  (-0.6859306E-02)
 number of electron     152.9999997 magnetization       1.0000000
 augmentation part       92.4040029 magnetization       0.0913279

 Broyden mixing:
  rms(total) = 0.30530E-01    rms(broyden)= 0.30526E-01
  rms(prec ) = 0.43453E-01
  weight for this iteration     100.00

 eigenvalues of (default mixing * dielectric matrix)
  average eigenvalue GAMMA=   1.0433
  2.1935  1.3924  0.7625  0.7127  0.7127  0.4862

 Free energy of the ion-electron system (eV)
  ---------------------------------------------------
  alpha Z        PSCENC =        41.16232785
  Ewald energy   TEWEN  =     16234.14130717
  -Hartree energ DENC   =    -33193.43309062
  -exchange      EXHF   =         0.00000000
  -V(xc)+E(xc)   XCENC  =       615.07296182
  PAW double counting   =     17610.95316085   -19009.35483707
  entropy T*S    EENTRO =         0.00675420
  eigenvalues    EBANDS =     -1009.29121278
  atomic energy  EATOM  =     18662.21924712
  Solvation  Ediel_sol  =         0.00000000
  ---------------------------------------------------
  free energy    TOTEN  =       -48.52338147 eV

  energy without entropy =      -48.53013566  energy(sigma->0) =      -48.52563287


--------------------------------------------------------------------------------------------------------




--------------------------------------- Iteration      1(  12)  ---------------------------------------


    POTLOK:  cpu time    1.1601: real time    1.1607
    SETDIJ:  cpu time    0.0160: real time    0.0160
    EDDIAG:  cpu time    1.0891: real time    1.0896
  RMM-DIIS:  cpu time    6.9315: real time    6.9397
    ORTHCH:  cpu time    0.0552: real time    0.0552
       DOS:  cpu time    0.0004: real time    0.0004
    CHARGE:  cpu time    0.6534: real time    0.6539
    MIXING:  cpu time    0.0267: real time    0.0267
    --------------------------------------------
      LOOP:  cpu time    9.9323: real time    9.9420

 eigenvalue-minimisations  :   435
 total energy-change (2. order) : 0.1828220E-02  (-0.1966575E-02)
 number of electron     152.9999997 magnetization       1.0000000
 augmentation part       92.3909633 magnetization       0.0915197

 Broyden mixing:
  rms(total) = 0.22082E-01    rms(broyden)= 0.22081E-01
  rms(prec ) = 0.33235E-01
  weight for this iteration     100.00

 eigenvalues of (default mixing * dielectric matrix)
  average eigenvalue GAMMA=   1.0781
  2.3727  1.6842  1.0667  0.6999  0.6999  0.4670  0.5563

 Free energy of the ion-electron system (eV)
  ---------------------------------------------------
  alpha Z        PSCENC =        41.16232785
  Ewald energy   TEWEN  =     16234.14130717
  -Hartree energ DENC   =    -33197.51922272
  -exchange      EXHF   =         0.00000000
  -V(xc)+E(xc)   XCENC  =       615.12334294
  PAW double counting   =     17623.79039952   -19022.76712967
  entropy T*S    EENTRO =         0.00664279
  eigenvalues    EBANDS =     -1004.67846823
  atomic energy  EATOM  =     18662.21924712
  Solvation  Ediel_sol  =         0.00000000
  ---------------------------------------------------
  free energy    TOTEN  =       -48.52155325 eV

  energy without entropy =      -48.52819604  energy(sigma->0) =      -48.52376751


--------------------------------------------------------------------------------------------------------




--------------------------------------- Iteration      1(  13)  ---------------------------------------


    POTLOK:  cpu time    1.1593: real time    1.1617
    SETDIJ:  cpu time    0.0163: real time    0.0163
    EDDIAG:  cpu time    1.0876: real time    1.0881
  RMM-DIIS:  cpu time    6.8399: real time    6.8461
    ORTHCH:  cpu time    0.0555: real time    0.0555
       DOS:  cpu time    0.0004: real time    0.0004
    CHARGE:  cpu time    0.6535: real time    0.6536
    MIXING:  cpu time    0.0274: real time    0.0276
    --------------------------------------------
      LOOP:  cpu time    9.8398: real time    9.8493

 eigenvalue-minimisations  :   426
 total energy-change (2. order) : 0.1196902E-02  (-0.5521641E-03)
 number of electron     152.9999997 magnetization       1.0000000
 augmentation part       92.3988983 magnetization       0.0922614

 Broyden mixing:
  rms(total) = 0.11190E-01    rms(broyden)= 0.11190E-01
  rms(prec ) = 0.20655E-01
  weight for this iteration     100.00

 eigenvalues of (default mixing * dielectric matrix)
  average eigenvalue GAMMA=   1.1127
  2.4526  1.8326  1.4201  0.7528  0.7528  0.7235  0.5142  0.4530

 Free energy of the ion-electron system (eV)
  ---------------------------------------------------
  alpha Z        PSCENC =        41.16232785
  Ewald energy   TEWEN  =     16234.14130717
  -Hartree energ DENC   =    -33201.15004662
  -exchange      EXHF   =         0.00000000
  -V(xc)+E(xc)   XCENC  =       615.14474127
  PAW double counting   =     17626.92473038   -19025.95920639
  entropy T*S    EENTRO =         0.00665801
  eigenvalues    EBANDS =     -1001.01011513
  atomic energy  EATOM  =     18662.21924712
  Solvation  Ediel_sol  =         0.00000000
  ---------------------------------------------------
  free energy    TOTEN  =       -48.52035634 eV

  energy without entropy =      -48.52701435  energy(sigma->0) =      -48.52257568


--------------------------------------------------------------------------------------------------------




--------------------------------------- Iteration      1(  14)  ---------------------------------------


    POTLOK:  cpu time    1.1592: real time    1.1612
    SETDIJ:  cpu time    0.0161: real time    0.0161
    EDDIAG:  cpu time    1.0889: real time    1.0893
  RMM-DIIS:  cpu time    6.9076: real time    6.9135
    ORTHCH:  cpu time    0.0561: real time    0.0561
       DOS:  cpu time    0.0004: real time    0.0004
    CHARGE:  cpu time    0.6537: real time    0.6538
    MIXING:  cpu time    0.0289: real time    0.0291
    --------------------------------------------
      LOOP:  cpu time    9.9109: real time    9.9194

 eigenvalue-minimisations  :   407
 total energy-change (2. order) :-0.1103384E-02  (-0.4301397E-03)
 number of electron     152.9999997 magnetization       1.0000000
 augmentation part       92.4143167 magnetization       0.0919960

 Broyden mixing:
  rms(total) = 0.11638E-01    rms(broyden)= 0.11637E-01
  rms(prec ) = 0.17564E-01
  weight for this iteration     100.00

 eigenvalues of (default mixing * dielectric matrix)
  average eigenvalue GAMMA=   1.1388
  2.3616  2.3616  1.3295  1.0712  0.7374  0.7374  0.6980  0.4934  0.4593

 Free energy of the ion-electron system (eV)
  ---------------------------------------------------
  alpha Z        PSCENC =        41.16232785
  Ewald energy   TEWEN  =     16234.14130717
  -Hartree energ DENC   =    -33205.88000930
  -exchange      EXHF   =         0.00000000
  -V(xc)+E(xc)   XCENC  =       615.17175800
  PAW double counting   =     17620.32090006   -19019.02732450
  entropy T*S    EENTRO =         0.00662093
  eigenvalues    EBANDS =      -996.63628704
  atomic energy  EATOM  =     18662.21924712
  Solvation  Ediel_sol  =         0.00000000
  ---------------------------------------------------
  free energy    TOTEN  =       -48.52145973 eV

  energy without entropy =      -48.52808065  energy(sigma->0) =      -48.52366670


--------------------------------------------------------------------------------------------------------




--------------------------------------- Iteration      1(  15)  ---------------------------------------


    POTLOK:  cpu time    1.1601: real time    1.1615
    SETDIJ:  cpu time    0.0161: real time    0.0161
    EDDIAG:  cpu time    1.0895: real time    1.0904
  RMM-DIIS:  cpu time    6.6491: real time    6.6700
    ORTHCH:  cpu time    0.0573: real time    0.0576
       DOS:  cpu time    0.0004: real time    0.0004
    CHARGE:  cpu time    0.6543: real time    0.6543
    MIXING:  cpu time    0.0289: real time    0.0289
    --------------------------------------------
      LOOP:  cpu time    9.6558: real time    9.6791

 eigenvalue-minimisations  :   407
 total energy-change (2. order) :-0.1328681E-02  (-0.1483839E-03)
 number of electron     152.9999997 magnetization       1.0000000
 augmentation part       92.4113136 magnetization       0.0923957

 Broyden mixing:
  rms(total) = 0.65428E-02    rms(broyden)= 0.65426E-02
  rms(prec ) = 0.10753E-01
  weight for this iteration     100.00

 eigenvalues of (default mixing * dielectric matrix)
  average eigenvalue GAMMA=   1.2008
  2.7154  2.7154  1.4060  1.4060  0.7458  0.7458  0.7409  0.5849  0.4860  0.4620

 Free energy of the ion-electron system (eV)
  ---------------------------------------------------
  alpha Z        PSCENC =        41.16232785
  Ewald energy   TEWEN  =     16234.14130717
  -Hartree energ DENC   =    -33209.39949662
  -exchange      EXHF   =         0.00000000
  -V(xc)+E(xc)   XCENC  =       615.20449399
  PAW double counting   =     17614.13028605   -19012.66979854
  entropy T*S    EENTRO =         0.00660633
  eigenvalues    EBANDS =      -993.31776175
  atomic energy  EATOM  =     18662.21924712
  Solvation  Ediel_sol  =         0.00000000
  ---------------------------------------------------
  free energy    TOTEN  =       -48.52278841 eV

  energy without entropy =      -48.52939474  energy(sigma->0) =      -48.52499052


--------------------------------------------------------------------------------------------------------




--------------------------------------- Iteration      1(  16)  ---------------------------------------


    POTLOK:  cpu time    1.1594: real time    1.1608
    SETDIJ:  cpu time    0.0162: real time    0.0162
    EDDIAG:  cpu time    1.0891: real time    1.0895
  RMM-DIIS:  cpu time    6.4492: real time    6.4518
    ORTHCH:  cpu time    0.0577: real time    0.0577
       DOS:  cpu time    0.0003: real time    0.0003
    CHARGE:  cpu time    0.6543: real time    0.6547
    MIXING:  cpu time    0.0298: real time    0.0298
    --------------------------------------------
      LOOP:  cpu time    9.4559: real time    9.4608

 eigenvalue-minimisations  :   399
 total energy-change (2. order) :-0.1483693E-02  (-0.1065542E-03)
 number of electron     152.9999997 magnetization       1.0000000
 augmentation part       92.4031483 magnetization       0.0926650

 Broyden mixing:
  rms(total) = 0.50396E-02    rms(broyden)= 0.50391E-02
  rms(prec ) = 0.74400E-02
  weight for this iteration     100.00

 eigenvalues of (default mixing * dielectric matrix)
  average eigenvalue GAMMA=   1.2448
  3.3001  2.6404  1.5405  1.5405  0.9672  0.7460  0.7460  0.7195  0.4564  0.5007
  0.5351

 Free energy of the ion-electron system (eV)
  ---------------------------------------------------
  alpha Z        PSCENC =        41.16232785
  Ewald energy   TEWEN  =     16234.14130717
  -Hartree energ DENC   =    -33212.19144536
  -exchange      EXHF   =         0.00000000
  -V(xc)+E(xc)   XCENC  =       615.23393785
  PAW double counting   =     17610.40484881   -19008.91280821
  entropy T*S    EENTRO =         0.00661610
  eigenvalues    EBANDS =      -990.58830342
  atomic energy  EATOM  =     18662.21924712
  Solvation  Ediel_sol  =         0.00000000
  ---------------------------------------------------
  free energy    TOTEN  =       -48.52427210 eV

  energy without entropy =      -48.53088820  energy(sigma->0) =      -48.52647747


--------------------------------------------------------------------------------------------------------




--------------------------------------- Iteration      1(  17)  ---------------------------------------


    POTLOK:  cpu time    1.1616: real time    1.1633
    SETDIJ:  cpu time    0.0159: real time    0.0159
    EDDIAG:  cpu time    1.0892: real time    1.0896
  RMM-DIIS:  cpu time    6.6554: real time    6.6583
    ORTHCH:  cpu time    0.0574: real time    0.0574
       DOS:  cpu time    0.0004: real time    0.0004
    CHARGE:  cpu time    0.6540: real time    0.6543
    MIXING:  cpu time    0.0311: real time    0.0311
    --------------------------------------------
      LOOP:  cpu time    9.6649: real time    9.6702

 eigenvalue-minimisations  :   411
 total energy-change (2. order) :-0.1730733E-02  (-0.4940782E-04)
 number of electron     152.9999997 magnetization       1.0000000
 augmentation part       92.4023773 magnetization       0.0926391

 Broyden mixing:
  rms(total) = 0.24296E-02    rms(broyden)= 0.24295E-02
  rms(prec ) = 0.39454E-02
  weight for this iteration     100.00

 eigenvalues of (default mixing * dielectric matrix)
  average eigenvalue GAMMA=   1.3438
  4.4258  2.5744  2.0673  1.3408  1.3408  0.7583  0.7583  0.6930  0.6930  0.5290
  0.4566  0.4886

 Free energy of the ion-electron system (eV)
  ---------------------------------------------------
  alpha Z        PSCENC =        41.16232785
  Ewald energy   TEWEN  =     16234.14130717
  -Hartree energ DENC   =    -33214.12360060
  -exchange      EXHF   =         0.00000000
  -V(xc)+E(xc)   XCENC  =       615.24632650
  PAW double counting   =     17608.85290787   -19007.36932985
  entropy T*S    EENTRO =         0.00662224
  eigenvalues    EBANDS =      -988.66181112
  atomic energy  EATOM  =     18662.21924712
  Solvation  Ediel_sol  =         0.00000000
  ---------------------------------------------------
  free energy    TOTEN  =       -48.52600283 eV

  energy without entropy =      -48.53262507  energy(sigma->0) =      -48.52821025


--------------------------------------------------------------------------------------------------------




--------------------------------------- Iteration      1(  18)  ---------------------------------------


    POTLOK:  cpu time    1.1604: real time    1.1609
    SETDIJ:  cpu time    0.0159: real time    0.0159
    EDDIAG:  cpu time    1.0914: real time    1.0918
  RMM-DIIS:  cpu time    6.9119: real time    6.9147
    ORTHCH:  cpu time    0.0581: real time    0.0581
       DOS:  cpu time    0.0005: real time    0.0005
    CHARGE:  cpu time    0.6544: real time    0.6546
    MIXING:  cpu time    0.0320: real time    0.0320
    --------------------------------------------
      LOOP:  cpu time    9.9246: real time    9.9284

 eigenvalue-minimisations  :   406
 total energy-change (2. order) :-0.8195193E-03  (-0.1724640E-04)
 number of electron     152.9999997 magnetization       1.0000000
 augmentation part       92.4028608 magnetization       0.0926742

 Broyden mixing:
  rms(total) = 0.14948E-02    rms(broyden)= 0.14948E-02
  rms(prec ) = 0.26391E-02
  weight for this iteration     100.00

 eigenvalues of (default mixing * dielectric matrix)
  average eigenvalue GAMMA=   1.3718
  5.0828  2.6514  2.2043  1.3486  1.3486  0.8287  0.8287  0.7467  0.7467  0.5918
  0.4570  0.5104  0.4881

 Free energy of the ion-electron system (eV)
  ---------------------------------------------------
  alpha Z        PSCENC =        41.16232785
  Ewald energy   TEWEN  =     16234.14130717
  -Hartree energ DENC   =    -33214.88548692
  -exchange      EXHF   =         0.00000000
  -V(xc)+E(xc)   XCENC  =       615.24705968
  PAW double counting   =     17608.65483512   -19007.17554276
  entropy T*S    EENTRO =         0.00661993
  eigenvalues    EBANDS =      -987.89718954
  atomic energy  EATOM  =     18662.21924712
  Solvation  Ediel_sol  =         0.00000000
  ---------------------------------------------------
  free energy    TOTEN  =       -48.52682235 eV

  energy without entropy =      -48.53344229  energy(sigma->0) =      -48.52902900


--------------------------------------------------------------------------------------------------------




--------------------------------------- Iteration      1(  19)  ---------------------------------------


    POTLOK:  cpu time    1.1611: real time    1.1631
    SETDIJ:  cpu time    0.0164: real time    0.0164
    EDDIAG:  cpu time    1.0914: real time    1.0925
  RMM-DIIS:  cpu time    6.9264: real time    6.9297
    ORTHCH:  cpu time    0.0573: real time    0.0573
       DOS:  cpu time    0.0004: real time    0.0004
    CHARGE:  cpu time    0.6547: real time    0.6550
    MIXING:  cpu time    0.0337: real time    0.0337
    --------------------------------------------
      LOOP:  cpu time    9.9414: real time    9.9480

 eigenvalue-minimisations  :   413
 total energy-change (2. order) :-0.7736397E-03  (-0.1003208E-04)
 number of electron     152.9999997 magnetization       1.0000000
 augmentation part       92.4045166 magnetization       0.0927187

 Broyden mixing:
  rms(total) = 0.11718E-02    rms(broyden)= 0.11717E-02
  rms(prec ) = 0.18945E-02
  weight for this iteration     100.00

 eigenvalues of (default mixing * dielectric matrix)
  average eigenvalue GAMMA=   1.4411
  5.8530  2.8250  2.1937  1.5740  1.5740  1.2407  0.7530  0.7530  0.7112  0.7112
  0.5540  0.4565  0.4880  0.4880

 Free energy of the ion-electron system (eV)
  ---------------------------------------------------
  alpha Z        PSCENC =        41.16232785
  Ewald energy   TEWEN  =     16234.14130717
  -Hartree energ DENC   =    -33215.28823216
  -exchange      EXHF   =         0.00000000
  -V(xc)+E(xc)   XCENC  =       615.24370853
  PAW double counting   =     17608.72076458   -19007.23280183
  entropy T*S    EENTRO =         0.00661738
  eigenvalues    EBANDS =      -987.50053463
  atomic energy  EATOM  =     18662.21924712
  Solvation  Ediel_sol  =         0.00000000
  ---------------------------------------------------
  free energy    TOTEN  =       -48.52759599 eV

  energy without entropy =      -48.53421338  energy(sigma->0) =      -48.52980179


--------------------------------------------------------------------------------------------------------




--------------------------------------- Iteration      1(  20)  ---------------------------------------


    POTLOK:  cpu time    1.1629: real time    1.1633
    SETDIJ:  cpu time    0.0162: real time    0.0162
    EDDIAG:  cpu time    1.0904: real time    1.0910
  RMM-DIIS:  cpu time    6.9147: real time    6.9185
    ORTHCH:  cpu time    0.0574: real time    0.0574
       DOS:  cpu time    0.0004: real time    0.0004
    CHARGE:  cpu time    0.6548: real time    0.6552
    MIXING:  cpu time    0.0351: real time    0.0351
    --------------------------------------------
      LOOP:  cpu time    9.9319: real time    9.9370

 eigenvalue-minimisations  :   420
 total energy-change (2. order) :-0.5533358E-03  (-0.5085024E-05)
 number of electron     152.9999997 magnetization       1.0000000
 augmentation part       92.4046905 magnetization       0.0927594

 Broyden mixing:
  rms(total) = 0.75853E-03    rms(broyden)= 0.75853E-03
  rms(prec ) = 0.12666E-02
  weight for this iteration     100.00

 eigenvalues of (default mixing * dielectric matrix)
  average eigenvalue GAMMA=   1.4708
  6.3108  2.8944  2.2574  2.1232  1.3288  1.3288  0.8563  0.8563  0.7438  0.7438
  0.6419  0.5358  0.4572  0.5047  0.4794

 Free energy of the ion-electron system (eV)
  ---------------------------------------------------
  alpha Z        PSCENC =        41.16232785
  Ewald energy   TEWEN  =     16234.14130717
  -Hartree energ DENC   =    -33215.47137558
  -exchange      EXHF   =         0.00000000
  -V(xc)+E(xc)   XCENC  =       615.24242433
  PAW double counting   =     17609.01983997   -19007.53879904
  entropy T*S    EENTRO =         0.00661601
  eigenvalues    EBANDS =      -987.30973717
  atomic energy  EATOM  =     18662.21924712
  Solvation  Ediel_sol  =         0.00000000
  ---------------------------------------------------
  free energy    TOTEN  =       -48.52814933 eV

  energy without entropy =      -48.53476534  energy(sigma->0) =      -48.53035467


--------------------------------------------------------------------------------------------------------




--------------------------------------- Iteration      1(  21)  ---------------------------------------


    POTLOK:  cpu time    1.1621: real time    1.1641
    SETDIJ:  cpu time    0.0158: real time    0.0158
    EDDIAG:  cpu time    1.0888: real time    1.0892
  RMM-DIIS:  cpu time    6.4483: real time    6.4553
    ORTHCH:  cpu time    0.0569: real time    0.0569
       DOS:  cpu time    0.0004: real time    0.0004
    CHARGE:  cpu time    0.6544: real time    0.6547
    MIXING:  cpu time    0.0364: real time    0.0364
    --------------------------------------------
      LOOP:  cpu time    9.4631: real time    9.4728

 eigenvalue-minimisations  :   399
 total energy-change (2. order) :-0.4144224E-03  (-0.3278572E-05)
 number of electron     152.9999997 magnetization       1.0000000
 augmentation part       92.4042052 magnetization       0.0927442

 Broyden mixing:
  rms(total) = 0.37694E-03    rms(broyden)= 0.37693E-03
  rms(prec ) = 0.69848E-03
  weight for this iteration     100.00

 eigenvalues of (default mixing * dielectric matrix)
  average eigenvalue GAMMA=   1.5357
  6.7183  3.4439  2.5474  2.1453  1.4549  1.4549  1.0849  0.7475  0.7475  0.8555
  0.7568  0.6389  0.5390  0.4572  0.4999  0.4794

 Free energy of the ion-electron system (eV)
  ---------------------------------------------------
  alpha Z        PSCENC =        41.16232785
  Ewald energy   TEWEN  =     16234.14130717
  -Hartree energ DENC   =    -33215.51795667
  -exchange      EXHF   =         0.00000000
  -V(xc)+E(xc)   XCENC  =       615.24293437
  PAW double counting   =     17609.34414521   -19007.87650863
  entropy T*S    EENTRO =         0.00661724
  eigenvalues    EBANDS =      -987.25067741
  atomic energy  EATOM  =     18662.21924712
  Solvation  Ediel_sol  =         0.00000000
  ---------------------------------------------------
  free energy    TOTEN  =       -48.52856375 eV

  energy without entropy =      -48.53518099  energy(sigma->0) =      -48.53076950


--------------------------------------------------------------------------------------------------------




--------------------------------------- Iteration      1(  22)  ---------------------------------------


    POTLOK:  cpu time    1.1622: real time    1.1626
    SETDIJ:  cpu time    0.0162: real time    0.0162
    EDDIAG:  cpu time    1.0827: real time    1.0835
  RMM-DIIS:  cpu time    6.8083: real time    6.8109
    ORTHCH:  cpu time    0.0569: real time    0.0568
       DOS:  cpu time    0.0004: real time    0.0004
    CHARGE:  cpu time    0.6544: real time    0.6546
    MIXING:  cpu time    0.0383: real time    0.0383
    --------------------------------------------
      LOOP:  cpu time    9.8192: real time    9.8232

 eigenvalue-minimisations  :   421
 total energy-change (2. order) :-0.2313680E-03  (-0.1763995E-05)
 number of electron     152.9999997 magnetization       1.0000000
 augmentation part       92.4038897 magnetization       0.0927308

 Broyden mixing:
  rms(total) = 0.33910E-03    rms(broyden)= 0.33908E-03
  rms(prec ) = 0.53831E-03
  weight for this iteration     100.00

 eigenvalues of (default mixing * dielectric matrix)
  average eigenvalue GAMMA=   1.5653
  7.1126  4.0337  2.5325  2.0890  1.7079  1.3104  1.3104  0.8717  0.8717  0.7445
  0.7445  0.6727  0.6342  0.5391  0.4569  0.4978  0.4802

 Free energy of the ion-electron system (eV)
  ---------------------------------------------------
  alpha Z        PSCENC =        41.16232785
  Ewald energy   TEWEN  =     16234.14130717
  -Hartree energ DENC   =    -33215.60414433
  -exchange      EXHF   =         0.00000000
  -V(xc)+E(xc)   XCENC  =       615.24248317
  PAW double counting   =     17609.47363557   -19008.00844512
  entropy T*S    EENTRO =         0.00661881
  eigenvalues    EBANDS =      -987.16182535
  atomic energy  EATOM  =     18662.21924712
  Solvation  Ediel_sol  =         0.00000000
  ---------------------------------------------------
  free energy    TOTEN  =       -48.52879512 eV

  energy without entropy =      -48.53541393  energy(sigma->0) =      -48.53100139


--------------------------------------------------------------------------------------------------------




--------------------------------------- Iteration      1(  23)  ---------------------------------------


    POTLOK:  cpu time    1.1609: real time    1.1629
    SETDIJ:  cpu time    0.0165: real time    0.0165
    EDDIAG:  cpu time    1.0838: real time    1.0850
  RMM-DIIS:  cpu time    6.9458: real time    6.9484
    ORTHCH:  cpu time    0.0578: real time    0.0578
       DOS:  cpu time    0.0004: real time    0.0004
    CHARGE:  cpu time    0.6538: real time    0.6540
    MIXING:  cpu time    0.0410: real time    0.0410
    --------------------------------------------
      LOOP:  cpu time    9.9599: real time    9.9660

 eigenvalue-minimisations  :   415
 total energy-change (2. order) :-0.9772586E-04  (-0.5540744E-06)
 number of electron     152.9999997 magnetization       1.0000000
 augmentation part       92.4039160 magnetization       0.0927321

 Broyden mixing:
  rms(total) = 0.21789E-03    rms(broyden)= 0.21789E-03
  rms(prec ) = 0.34513E-03
  weight for this iteration     100.00

 eigenvalues of (default mixing * dielectric matrix)
  average eigenvalue GAMMA=   1.5855
  7.4292  4.3430  2.4448  2.2182  1.9604  1.3588  1.3588  0.9768  0.9768  0.7491
  0.7491  0.7246  0.6772  0.5997  0.5365  0.4570  0.4997  0.4798

 Free energy of the ion-electron system (eV)
  ---------------------------------------------------
  alpha Z        PSCENC =        41.16232785
  Ewald energy   TEWEN  =     16234.14130717
  -Hartree energ DENC   =    -33215.65255059
  -exchange      EXHF   =         0.00000000
  -V(xc)+E(xc)   XCENC  =       615.24199049
  PAW double counting   =     17609.43424590   -19007.96547815
  entropy T*S    EENTRO =         0.00661826
  eigenvalues    EBANDS =      -987.11660088
  atomic energy  EATOM  =     18662.21924712
  Solvation  Ediel_sol  =         0.00000000
  ---------------------------------------------------
  free energy    TOTEN  =       -48.52889285 eV

  energy without entropy =      -48.53551110  energy(sigma->0) =      -48.53109893


--------------------------------------------------------------------------------------------------------




--------------------------------------- Iteration      1(  24)  ---------------------------------------


    POTLOK:  cpu time    1.1610: real time    1.1629
    SETDIJ:  cpu time    0.0163: real time    0.0163
    EDDIAG:  cpu time    1.0898: real time    1.0914
  RMM-DIIS:  cpu time    6.4844: real time    6.4871
    ORTHCH:  cpu time    0.0575: real time    0.0575
       DOS:  cpu time    0.0003: real time    0.0003
    CHARGE:  cpu time    0.6518: real time    0.6522
    MIXING:  cpu time    0.0453: real time    0.0452
    --------------------------------------------
      LOOP:  cpu time    9.5064: real time    9.5131

 eigenvalue-minimisations  :   397
 total energy-change (2. order) :-0.9925378E-04  (-0.7306287E-06)
 number of electron     152.9999997 magnetization       1.0000000
 augmentation part       92.4040993 magnetization       0.0927410

 Broyden mixing:
  rms(total) = 0.12301E-03    rms(broyden)= 0.12299E-03
  rms(prec ) = 0.21780E-03
  weight for this iteration     100.00

 eigenvalues of (default mixing * dielectric matrix)
  average eigenvalue GAMMA=   1.6363
  7.8188  4.7626  2.5832  2.5832  1.7609  1.7609  1.2913  1.2913  0.9074  0.9074
  0.7495  0.7495  0.7142  0.6482  0.5840  0.5414  0.4570  0.4986  0.4797

 Free energy of the ion-electron system (eV)
  ---------------------------------------------------
  alpha Z        PSCENC =        41.16232785
  Ewald energy   TEWEN  =     16234.14130717
  -Hartree energ DENC   =    -33215.66388652
  -exchange      EXHF   =         0.00000000
  -V(xc)+E(xc)   XCENC  =       615.24179206
  PAW double counting   =     17609.32702960   -19007.85347166
  entropy T*S    EENTRO =         0.00661845
  eigenvalues    EBANDS =      -987.10995617
  atomic energy  EATOM  =     18662.21924712
  Solvation  Ediel_sol  =         0.00000000
  ---------------------------------------------------
  free energy    TOTEN  =       -48.52899210 eV

  energy without entropy =      -48.53561055  energy(sigma->0) =      -48.53119825


--------------------------------------------------------------------------------------------------------




--------------------------------------- Iteration      1(  25)  ---------------------------------------


    POTLOK:  cpu time    1.1624: real time    1.1646
    SETDIJ:  cpu time    0.0162: real time    0.0162
    EDDIAG:  cpu time    1.0849: real time    1.0852
  RMM-DIIS:  cpu time    6.4674: real time    6.4701
    ORTHCH:  cpu time    0.0574: real time    0.0576
       DOS:  cpu time    0.0004: real time    0.0004
    CHARGE:  cpu time    0.6522: real time    0.6523
    MIXING:  cpu time    0.0456: real time    0.0456
    --------------------------------------------
      LOOP:  cpu time    9.4866: real time    9.4921

 eigenvalue-minimisations  :   388
 total energy-change (2. order) :-0.6295849E-04  (-0.6140967E-06)
 number of electron     152.9999997 magnetization       1.0000000
 augmentation part       92.4041981 magnetization       0.0927392

 Broyden mixing:
  rms(total) = 0.82420E-04    rms(broyden)= 0.82415E-04
  rms(prec ) = 0.12685E-03
  weight for this iteration     100.00

 eigenvalues of (default mixing * dielectric matrix)
  average eigenvalue GAMMA=   1.6598
  8.0331  5.1623  2.9274  2.5443  1.9030  1.9030  1.3079  1.3079  0.9840  0.9840
  0.7522  0.7522  0.7263  0.7263  0.6309  0.4570  0.4796  0.4989  0.5403  0.5747

 Free energy of the ion-electron system (eV)
  ---------------------------------------------------
  alpha Z        PSCENC =        41.16232785
  Ewald energy   TEWEN  =     16234.14130717
  -Hartree energ DENC   =    -33215.65477013
  -exchange      EXHF   =         0.00000000
  -V(xc)+E(xc)   XCENC  =       615.24189713
  PAW double counting   =     17609.24295523   -19007.76689750
  entropy T*S    EENTRO =         0.00661866
  eigenvalues    EBANDS =      -987.12174058
  atomic energy  EATOM  =     18662.21924712
  Solvation  Ediel_sol  =         0.00000000
  ---------------------------------------------------
  free energy    TOTEN  =       -48.52905506 eV

  energy without entropy =      -48.53567372  energy(sigma->0) =      -48.53126128


--------------------------------------------------------------------------------------------------------




--------------------------------------- Iteration      1(  26)  ---------------------------------------


    POTLOK:  cpu time    1.1603: real time    1.1609
    SETDIJ:  cpu time    0.0166: real time    0.0166
    EDDIAG:  cpu time    1.0873: real time    1.0877
  RMM-DIIS:  cpu time    5.3430: real time    5.3452
    ORTHCH:  cpu time    0.0570: real time    0.0570
       DOS:  cpu time    0.0004: real time    0.0004
    CHARGE:  cpu time    0.6518: real time    0.6521
    MIXING:  cpu time    0.0482: real time    0.0482
    --------------------------------------------
      LOOP:  cpu time    8.3646: real time    8.3681

 eigenvalue-minimisations  :   325
 total energy-change (2. order) :-0.2162836E-04  (-0.1997252E-06)
 number of electron     152.9999997 magnetization       1.0000000
 augmentation part       92.4042617 magnetization       0.0927421

 Broyden mixing:
  rms(total) = 0.71036E-04    rms(broyden)= 0.71035E-04
  rms(prec ) = 0.10093E-03
  weight for this iteration     100.00

 eigenvalues of (default mixing * dielectric matrix)
  average eigenvalue GAMMA=   1.6587
  8.1266  5.4338  3.1372  2.5525  2.0607  1.7511  1.3904  1.3904  1.0526  1.0526
  0.7527  0.7527  0.7787  0.7787  0.6328  0.6328  0.4570  0.4797  0.4990  0.5376
  0.5828

 Free energy of the ion-electron system (eV)
  ---------------------------------------------------
  alpha Z        PSCENC =        41.16232785
  Ewald energy   TEWEN  =     16234.14130717
  -Hartree energ DENC   =    -33215.65541076
  -exchange      EXHF   =         0.00000000
  -V(xc)+E(xc)   XCENC  =       615.24186131
  PAW double counting   =     17609.22107526   -19007.74460691
  entropy T*S    EENTRO =         0.00661860
  eigenvalues    EBANDS =      -987.12149631
  atomic energy  EATOM  =     18662.21924712
  Solvation  Ediel_sol  =         0.00000000
  ---------------------------------------------------
  free energy    TOTEN  =       -48.52907669 eV

  energy without entropy =      -48.53569528  energy(sigma->0) =      -48.53128289


--------------------------------------------------------------------------------------------------------




--------------------------------------- Iteration      1(  27)  ---------------------------------------


    POTLOK:  cpu time    1.1590: real time    1.1605
    SETDIJ:  cpu time    0.0162: real time    0.0162
    EDDIAG:  cpu time    1.0899: real time    1.0904
  RMM-DIIS:  cpu time    4.7303: real time    4.7327
    ORTHCH:  cpu time    0.0575: real time    0.0575
       DOS:  cpu time    0.0004: real time    0.0004
    CHARGE:  cpu time    0.6517: real time    0.6522
    MIXING:  cpu time    0.0520: real time    0.0520
    --------------------------------------------
      LOOP:  cpu time    7.7571: real time    7.7619

 eigenvalue-minimisations  :   272
 total energy-change (2. order) :-0.8873001E-05  (-0.7738518E-07)
 number of electron     152.9999997 magnetization       1.0000000
 augmentation part       92.4041269 magnetization       0.0927342

 Broyden mixing:
  rms(total) = 0.52667E-04    rms(broyden)= 0.52665E-04
  rms(prec ) = 0.74676E-04
  weight for this iteration     100.00

 eigenvalues of (default mixing * dielectric matrix)
  average eigenvalue GAMMA=   1.6509
  8.1850  5.7441  3.3083  2.5551  2.2391  1.5790  1.5790  1.2803  1.2803  0.9731
  0.9731  0.7501  0.7501  0.7393  0.7393  0.6321  0.5822  0.5396  0.4985  0.4799
  0.4569  0.4563

 Free energy of the ion-electron system (eV)
  ---------------------------------------------------
  alpha Z        PSCENC =        41.16232785
  Ewald energy   TEWEN  =     16234.14130717
  -Hartree energ DENC   =    -33215.66201488
  -exchange      EXHF   =         0.00000000
  -V(xc)+E(xc)   XCENC  =       615.24191559
  PAW double counting   =     17609.22953249   -19007.75452232
  entropy T*S    EENTRO =         0.00661844
  eigenvalues    EBANDS =      -987.11349702
  atomic energy  EATOM  =     18662.21924712
  Solvation  Ediel_sol  =         0.00000000
  ---------------------------------------------------
  free energy    TOTEN  =       -48.52908556 eV

  energy without entropy =      -48.53570400  energy(sigma->0) =      -48.53129171


--------------------------------------------------------------------------------------------------------




--------------------------------------- Iteration      1(  28)  ---------------------------------------


    POTLOK:  cpu time    1.1586: real time    1.1591
    SETDIJ:  cpu time    0.0163: real time    0.0165
    EDDIAG:  cpu time    1.0859: real time    1.0867
  RMM-DIIS:  cpu time    4.4929: real time    4.4948
    ORTHCH:  cpu time    0.0572: real time    0.0572
       DOS:  cpu time    0.0004: real time    0.0004
    CHARGE:  cpu time    0.6520: real time    0.6525
    MIXING:  cpu time    0.0561: real time    0.0561
[...]
     66      -4.9201      1.00000
     67      -4.8955      1.00000
     68      -4.8735      1.00000
     69      -4.8513      1.00000
     70      -4.8100      1.00000
     71      -4.7866      1.00000
     72      -4.7405      1.00000
     73      -4.7273      1.00000
     74      -4.5358      1.00000
     75      -4.1817      1.00000
     76      -4.0485      1.00000
     77      -3.5828      1.00000
     78      -3.0521     -0.00000
     79      -2.9759     -0.00000
     80      -2.5741     -0.00000
     81      -2.4754     -0.00000
     82      -1.9829     -0.00000
     83      -1.8223     -0.00000
     84      -1.7159     -0.00000
     85      -1.4552     -0.00000
     86      -1.2231     -0.00000
     87      -0.9327     -0.00000
     88      -0.6513      0.00000
     89      -0.4924      0.00000
     90      -0.2076      0.00000
     91       0.1489      0.00000
     92       0.2583      0.00000

 spin component 2

 k-point     1 :       0.0000    0.0000    0.0000
  band No.  band energies     occupation 
      1     -28.2665      1.00000
      2     -13.9461      1.00000
      3     -11.1940      1.00000
      4     -11.0485      1.00000
      5     -11.0315      1.00000
      6     -10.1304      1.00000
      7      -8.5437      1.00000
      8      -8.1254      1.00000
      9      -7.6923      1.00000
     10      -7.4703      1.00000
     11      -7.4110      1.00000
     12      -7.2849      1.00000
     13      -7.1625      1.00000
     14      -7.1014      1.00000
     15      -7.0556      1.00000
     16      -6.9580      1.00000
     17      -6.8677      1.00000
     18      -6.7424      1.00000
     19      -6.6859      1.00000
     20      -6.6689      1.00000
     21      -6.5820      1.00000
     22      -6.5601      1.00000
     23      -6.5394      1.00000
     24      -6.4384      1.00000
     25      -6.3815      1.00000
     26      -6.3683      1.00000
     27      -6.3447      1.00000
     28      -6.2955      1.00000
     29      -6.2111      1.00000
     30      -6.1969      1.00000
     31      -6.1229      1.00000
     32      -6.0763      1.00000
     33      -6.0379      1.00000
     34      -5.9558      1.00000
     35      -5.8923      1.00000
     36      -5.7717      1.00000
     37      -5.7202      1.00000
     38      -5.6538      1.00000
     39      -5.6164      1.00000
     40      -5.5948      1.00000
     41      -5.5010      1.00000
     42      -5.4810      1.00000
     43      -5.4502      1.00000
     44      -5.4388      1.00000
     45      -5.4199      1.00000
     46      -5.3798      1.00000
     47      -5.3124      1.00000
     48      -5.3066      1.00000
     49      -5.2857      1.00000
     50      -5.2701      1.00000
     51      -5.2537      1.00000
     52      -5.1916      1.00000
     53      -5.1693      1.00000
     54      -5.1633      1.00000
     55      -5.1432      1.00000
     56      -5.1143      1.00000
     57      -5.1079      1.00000
     58      -5.0860      1.00000
     59      -5.0635      1.00000
     60      -5.0374      1.00000
     61      -5.0120      1.00000
     62      -4.9868      1.00000
     63      -4.9616      1.00000
     64      -4.9137      1.00000
     65      -4.8959      1.00000
     66      -4.8801      1.00000
     67      -4.8673      1.00000
     68      -4.8437      1.00000
     69      -4.8182      1.00000
     70      -4.7783      1.00000
     71      -4.7469      1.00000
     72      -4.7146      1.00000
     73      -4.7005      1.00000
     74      -4.4908      1.00000
     75      -4.1322      1.00535
     76      -4.0022      0.99465
     77      -3.3748     -0.00000
     78      -3.0042     -0.00000
     79      -2.9297     -0.00000
     80      -2.5012     -0.00000
     81      -2.4185     -0.00000
     82      -1.9427     -0.00000
     83      -1.7563     -0.00000
     84      -1.6535     -0.00000
     85      -1.3577     -0.00000
     86      -1.0488      0.00000
     87      -0.8798      0.00000
     88      -0.5725      0.00000
     89      -0.3821      0.00000
     90      -0.1669      0.00000
     91      -0.1046      0.00000
     92       0.2114      0.00000


--------------------------------------------------------------------------------------------------------


 soft charge-density along one line, spin component           1
         0         1         2         3         4         5         6         7         8         9
 total charge-density along one line
 
 soft charge-density along one line, spin component           2
         0         1         2         3         4         5         6         7         8         9
 total charge-density along one line
 
 pseudopotential strength for first ion, spin component:           1
-10.575   0.005  -0.007  -0.006  -0.005   1.065  -0.004   0.008
  0.005 -10.562  -0.012   0.001   0.013  -0.004   1.055   0.009
 -0.007  -0.012 -10.546   0.003  -0.007   0.008   0.009   1.042
 -0.006   0.001   0.003 -10.551  -0.002   0.005  -0.003  -0.003
 -0.005   0.013  -0.007  -0.002 -10.554   0.004  -0.010   0.006
  1.065  -0.004   0.008   0.005   0.004   6.258   0.003  -0.008
 -0.004   1.055   0.009  -0.003  -0.010   0.003   6.263  -0.006
  0.008   0.009   1.042  -0.003   0.006  -0.008  -0.006   6.272
  0.005  -0.003  -0.003   1.045   0.002  -0.003   0.005   0.002
  0.004  -0.010   0.006   0.002   1.050  -0.003   0.006  -0.005
 -0.006   0.003  -0.003  -0.001  -0.003   0.006   0.000  -0.001
 -0.011   0.005  -0.005  -0.001  -0.005   0.011   0.001  -0.001
 -0.012  -0.001   0.004  -0.000   0.008   0.009   0.002  -0.004
 -0.000  -0.007  -0.001  -0.011  -0.000   0.001   0.006   0.001
 -0.006  -0.000   0.007  -0.001  -0.012   0.004   0.001  -0.006
 -0.012  -0.001   0.004  -0.001   0.009   0.010   0.003  -0.005
 -0.001  -0.006  -0.001  -0.011  -0.000   0.001   0.006   0.001
 -0.005  -0.001   0.008  -0.001  -0.013   0.004   0.001  -0.007
 pseudopotential strength for first ion, spin component:           2
-10.531   0.000  -0.001  -0.016   0.004   1.030  -0.001   0.002
  0.000 -10.549  -0.013   0.002   0.011  -0.001   1.044   0.010
 -0.001  -0.013 -10.533   0.002  -0.006   0.002   0.010   1.032
 -0.016   0.002   0.002 -10.534  -0.004   0.012  -0.002  -0.002
  0.004   0.011  -0.006  -0.004 -10.542  -0.003  -0.008   0.005
  1.030  -0.001   0.002   0.012  -0.003   6.281   0.001  -0.002
 -0.001   1.044   0.010  -0.002  -0.008   0.001   6.270  -0.006
  0.002   0.010   1.032  -0.002   0.005  -0.002  -0.006   6.278
  0.012  -0.002  -0.002   1.032   0.003  -0.008   0.002   0.001
 -0.003  -0.008   0.005   0.003   1.039   0.002   0.005  -0.004
 -0.002   0.003  -0.000  -0.001  -0.002   0.002   0.001  -0.002
 -0.004   0.006  -0.001  -0.001  -0.004   0.003   0.001  -0.003
 -0.013  -0.000   0.005   0.001   0.008   0.012   0.001  -0.006
  0.001  -0.008  -0.000  -0.012   0.000  -0.000   0.008  -0.000
 -0.009   0.001   0.008   0.000  -0.013   0.009  -0.000  -0.007
 -0.015  -0.000   0.006   0.001   0.009   0.014   0.001  -0.007
  0.001  -0.009   0.000  -0.014   0.000  -0.000   0.009  -0.001
 -0.010   0.001   0.009   0.001  -0.014   0.010  -0.000  -0.009
 total augmentation occupancy for first ion, spin component:           1
  1.933   0.006  -0.007   0.000  -0.002  -0.012  -0.002   0.005   0.002   0.000  -0.009   0.013   0.035   0.001   0.038  -0.018
  0.006   1.931  -0.007   0.008  -0.001  -0.002  -0.014   0.008  -0.000  -0.002   0.006  -0.003   0.004   0.046  -0.002  -0.001
 -0.007  -0.007   1.944   0.002  -0.003   0.005   0.008  -0.025  -0.004   0.002  -0.012   0.007  -0.014   0.003  -0.015   0.007
  0.000   0.008   0.002   1.937  -0.005   0.002  -0.000  -0.004  -0.018   0.002   0.002   0.002   0.008   0.064  -0.000   0.000
 -0.002  -0.001  -0.003  -0.005   1.943   0.000  -0.002   0.002   0.002  -0.016  -0.012   0.005  -0.021   0.004   0.034   0.013
 -0.012  -0.002   0.005   0.002   0.000   0.015   0.000   0.001   0.001   0.001  -0.016  -0.001   0.022   0.001   0.013  -0.001
 -0.002  -0.014   0.008  -0.000  -0.002   0.000   0.010   0.000   0.002  -0.001   0.022  -0.002   0.004   0.017   0.002  -0.000
  0.005   0.008  -0.025  -0.004   0.002   0.001   0.000   0.008  -0.001   0.001  -0.026   0.005  -0.008  -0.001  -0.007   0.001
  0.002  -0.000  -0.004  -0.018   0.002   0.001   0.002  -0.001   0.011  -0.001  -0.007   0.001   0.000   0.025  -0.000  -0.000
  0.000  -0.002   0.002   0.002  -0.016   0.001  -0.001   0.001  -0.001   0.014  -0.010   0.000  -0.023  -0.004   0.023   0.002
 -0.009   0.006  -0.012   0.002  -0.012  -0.016   0.022  -0.026  -0.007  -0.010   1.711  -0.126   0.159   0.011   0.197  -0.019
  0.013  -0.003   0.007   0.002   0.005  -0.001  -0.002   0.005   0.001   0.000  -0.126   0.015  -0.021  -0.000  -0.028   0.002
  0.035   0.004  -0.014   0.008  -0.021   0.022   0.004  -0.008   0.000  -0.023   0.159  -0.021   0.187   0.013  -0.034  -0.012
  0.001   0.046   0.003   0.064   0.004   0.001   0.017  -0.001   0.025  -0.004   0.011  -0.000   0.013   0.111  -0.010  -0.001
  0.038  -0.002  -0.015  -0.000   0.034   0.013   0.002  -0.007  -0.000   0.023   0.197  -0.028  -0.034  -0.010   0.153   0.001
 -0.018  -0.001   0.007   0.000   0.013  -0.001  -0.000   0.001  -0.000   0.002  -0.019   0.002  -0.012  -0.001   0.001   0.001
  0.000  -0.014  -0.001  -0.021  -0.000  -0.000  -0.001   0.000  -0.001   0.000  -0.001   0.000  -0.001  -0.007   0.000   0.000
 -0.014   0.000   0.009  -0.001  -0.018  -0.000  -0.000   0.001   0.000  -0.001  -0.026   0.003   0.001   0.000  -0.011   0.000
 total augmentation occupancy for first ion, spin component:           2
  0.018  -0.003   0.001  -0.006   0.005  -0.003   0.000  -0.001   0.001  -0.001   0.032   0.006  -0.010   0.009  -0.019  -0.001
 -0.003   0.001  -0.001   0.002  -0.001   0.000   0.001   0.000   0.000   0.001  -0.005  -0.001   0.003  -0.003   0.003   0.000
  0.001  -0.001   0.001  -0.001   0.000  -0.001   0.000   0.002  -0.000  -0.001   0.003  -0.000   0.000   0.004   0.000   0.000
 -0.006   0.002  -0.001   0.003  -0.002   0.001   0.000  -0.000   0.001  -0.000  -0.011  -0.002   0.003  -0.006   0.007   0.000
  0.005  -0.001   0.000  -0.002   0.001  -0.001   0.001  -0.001  -0.000   0.002   0.008   0.001  -0.001   0.002  -0.007  -0.000
 -0.003   0.000  -0.001   0.001  -0.001   0.001  -0.000   0.000  -0.000   0.000  -0.008  -0.001   0.001  -0.002   0.005   0.000
  0.000   0.001   0.000   0.000   0.001  -0.000  -0.000   0.000  -0.000  -0.000   0.001   0.000  -0.000   0.000  -0.001  -0.000
 -0.001   0.000   0.002  -0.000  -0.001   0.000   0.000  -0.000  -0.000   0.000  -0.001  -0.000   0.000  -0.000   0.001   0.000
  0.001   0.000  -0.000   0.001  -0.000  -0.000  -0.000  -0.000  -0.000  -0.000   0.002   0.000  -0.001   0.001  -0.001   0.000
 -0.001   0.001  -0.001  -0.000   0.002   0.000  -0.000   0.000  -0.000  -0.000  -0.001  -0.000   0.001  -0.001   0.001  -0.000
  0.032  -0.005   0.003  -0.011   0.008  -0.008   0.001  -0.001   0.002  -0.001   0.065   0.004  -0.015   0.020  -0.036  -0.000
  0.006  -0.001  -0.000  -0.002   0.001  -0.001   0.000  -0.000   0.000  -0.000   0.004   0.000  -0.001   0.001  -0.002  -0.000
 -0.010   0.003   0.000   0.003  -0.001   0.001  -0.000   0.000  -0.001   0.001  -0.015  -0.001   0.003  -0.003   0.005   0.000
  0.009  -0.003   0.004  -0.006   0.002  -0.002   0.000  -0.000   0.001  -0.001   0.020   0.001  -0.003   0.005  -0.008  -0.000
 -0.019   0.003   0.000   0.007  -0.007   0.005  -0.001   0.001  -0.001   0.001  -0.036  -0.002   0.005  -0.008   0.016   0.000
 -0.001   0.000   0.000   0.000  -0.000   0.000  -0.000   0.000   0.000  -0.000  -0.000  -0.000   0.000  -0.000   0.000   0.000
  0.000  -0.001   0.000  -0.001   0.000   0.000  -0.000  -0.000   0.000   0.000  -0.000   0.000   0.000  -0.000   0.000  -0.000
 -0.001   0.000   0.000   0.001  -0.001   0.000   0.000  -0.000  -0.000   0.000   0.000  -0.000   0.000  -0.000   0.000   0.000


------------------------ aborting loop because EDIFF is reached ----------------------------------------


    CHARGE:  cpu time    0.6531: real time    0.6534
    FORLOC:  cpu time    0.0657: real time    0.0657
    FORNL :  cpu time    1.5306: real time    1.5308
    STRESS:  cpu time    6.2170: real time    6.2191
    FORCOR:  cpu time    1.1640: real time    1.1715
    FORHAR:  cpu time    0.1882: real time    0.1882
    MIXING:  cpu time    0.1112: real time    0.1112
    OFIELD:  cpu time    0.0000: real time    0.0000

  FORCE on cell =-STRESS in cart. coord.  units (eV):
  Direction    XX          YY          ZZ          XY          YZ          ZX
  --------------------------------------------------------------------------------------
  Alpha Z    41.16233    41.16233    41.16233
  Ewald   10476.99707  7257.28883 -1500.16043  -847.93915   211.70443  -246.36928
  Hartree 15592.97232 12733.56368  4889.12955  -749.46871   185.79949  -294.57792
  E(xc)    -876.06762  -877.53423  -879.22103    -0.20376    -0.02966     0.34286
  Local  -27467.93680-21420.41408 -4823.93341  1596.10859  -396.85688   551.60311
  n-local  -329.74946  -321.09274  -328.46383    -0.74964     0.48414    -0.91778
  augment  1222.60768  1225.82289  1232.54227     0.27812    -0.56077    -1.69573
  Kinetic  1335.45106  1363.00523  1367.46947     1.89980     0.17906    -7.50615
  Fock        0.00000     0.00000     0.00000     0.00000     0.00000     0.00000
  -------------------------------------------------------------------------------------
  Total      -4.56343     1.80189    -1.47508    -0.07476     0.71981     0.87911
  in kB      -2.16635     0.85539    -0.70025    -0.03549     0.34171     0.41733
  external pressure =       -0.67 kB  Pullay stress =        0.00 kB


 VOLUME and BASIS-vectors are now :
 -----------------------------------------------------------------------------
  energy-cutoff  :      600.00
  volume of cell :     3375.00
      direct lattice vectors                 reciprocal lattice vectors
    15.000000000  0.000000000  0.000000000     0.066666667  0.000000000  0.000000000
     0.000000000 15.000000000  0.000000000     0.000000000  0.066666667  0.000000000
     0.000000000  0.000000000 15.000000000     0.000000000  0.000000000  0.066666667

  length of vectors
    15.000000000 15.000000000 15.000000000     0.066666667  0.066666667  0.066666667


 FORCES acting on ions
    electron-ion (+dipol)            ewald-force                    non-local-force                 convergence-correction
 -----------------------------------------------------------------------------------------------
   0.111E+04 0.730E+03 -.191E+02   -.110E+04 -.727E+03 0.193E+02   -.482E+01 -.384E+01 -.377E+00   0.109E-04 0.341E-04 0.415E-05
   0.439E+03 -.379E+03 0.914E+03   -.437E+03 0.376E+03 -.914E+03   -.189E+01 0.274E+01 -.192E+00   0.218E-04 -.852E-05 0.304E-05
   0.245E+03 0.129E+04 -.260E+03   -.242E+03 -.128E+04 0.258E+03   -.258E+01 -.855E+01 0.260E+01   0.304E-04 0.204E-06 0.770E-05
   -.766E+03 -.118E+03 0.966E+03   0.765E+03 0.117E+03 -.961E+03   0.188E+01 0.148E+01 -.454E+01   -.231E-04 0.847E-05 0.241E-04
   -.850E+03 0.962E+03 0.176E+03   0.845E+03 -.956E+03 -.174E+03   0.500E+01 -.571E+01 -.113E+01   0.222E-05 0.758E-05 0.846E-05
   -.226E+03 0.496E+03 -.989E+03   0.225E+03 -.494E+03 0.989E+03   0.249E+01 -.286E+01 0.132E+00   0.492E-05 0.299E-04 0.415E-05
   0.254E+03 0.680E+03 0.118E+04   -.253E+03 -.675E+03 -.117E+04   -.903E+00 -.484E+01 -.585E+01   0.236E-04 0.462E-04 0.203E-04
   0.125E+04 -.343E+03 0.138E+03   -.124E+04 0.341E+03 -.135E+03   -.925E+01 0.236E+01 -.347E+01   -.518E-05 -.118E-04 -.874E-05
   0.562E+03 -.186E+03 -.125E+04   -.559E+03 0.186E+03 0.125E+04   -.267E+01 0.627E+00 0.701E+01   0.326E-04 -.930E-05 -.346E-04
   0.426E+03 -.127E+04 -.169E+03   -.424E+03 0.126E+04 0.167E+03   -.163E+01 0.779E+01 0.893E+00   0.240E-04 -.156E-04 -.486E-05
   -.420E+03 -.997E+03 0.656E+03   0.416E+03 0.990E+03 -.649E+03   0.326E+01 0.678E+01 -.626E+01   -.985E-05 -.148E-04 0.166E-04
   -.862E+03 -.759E+02 -.340E+03   0.860E+03 0.745E+02 0.337E+03   0.168E+01 0.105E+01 0.289E+01   0.217E-04 -.514E-05 0.663E-05
   -.583E+03 -.786E+03 -.776E+03   0.580E+03 0.783E+03 0.773E+03   0.268E+01 0.407E+01 0.256E+01   -.410E-05 -.323E-04 -.172E-04
   -.133E+03 -.221E+02 -.526E+02   0.115E+03 0.237E+02 0.485E+02   0.194E+02 -.166E+01 0.505E+01   -.378E-05 0.541E-07 -.150E-05
   -.398E+03 0.169E+02 -.151E+03   0.452E+03 -.209E+02 0.166E+03   -.562E+02 0.409E+01 -.163E+02   0.457E-05 0.801E-06 -.246E-05
 -----------------------------------------------------------------------------------------------
   0.436E+02 -.356E+01 0.170E+02   -.227E-12 0.213E-12 -.102E-11   -.436E+02 0.356E+01 -.170E+02   0.131E-03 0.299E-04 0.258E-04
 
 
 POSITION                                       TOTAL-FORCE (eV/Angst)
 -----------------------------------------------------------------------------------
      4.41057      6.34300      8.39642        -0.313803     -0.671368     -0.196687
      5.66332      8.18326      7.43535        -0.308814      0.293204     -0.397633
      6.09026      4.40349      8.56355        -0.205761     -0.302451      0.036841
      7.92685      7.50190      7.05893         0.136401      0.466574      0.282306
      8.28365      5.26972      7.92429        -0.100091      0.286379      0.099772
      6.66925      6.55568      9.31100         0.911573     -0.311711     -0.439925
      6.14260      5.91908      6.73096         0.196653     -0.096995      0.206176
      3.28228      8.53042      8.35758        -0.037597      0.065356     -0.270269
      4.96902      8.07294      9.86638         0.262419      0.444723      0.567044
      5.16175     10.11890      8.64817         0.234654      0.532629     -0.166567
      7.42687     10.08990      7.00691        -0.504360     -0.719824      0.669903
      9.44060      7.45999      8.92807        -0.268529     -0.327481     -0.229743
      7.24362      8.85342      9.15132         0.344686      0.263935     -0.294775
     11.21180      7.44828      9.41567         1.722038     -0.058651      0.893969
     12.34100      7.36556      9.73674        -2.069469      0.135682     -0.760412
 -----------------------------------------------------------------------------------
    total drift:                                0.004271     -0.000947     -0.000623


--------------------------------------------------------------------------------------------------------



  FREE ENERGIE OF THE ION-ELECTRON SYSTEM (eV)
  ---------------------------------------------------
  free  energy   TOTEN  =       -48.52909700 eV

  energy  without entropy=      -48.53571554  energy(sigma->0) =      -48.53130318
 


--------------------------------------------------------------------------------------------------------


    POTLOK:  cpu time    1.1814: real time    1.1816


--------------------------------------------------------------------------------------------------------


     LOOP+:  cpu time  346.2623: real time  346.6110
    4ORBIT:  cpu time    0.0000: real time    0.0000

 total amount of memory used by VASP MPI-rank0   158680. kBytes
=======================================================================

   base      :      30000. kBytes
   nonl-proj :      12601. kBytes
   fftplans  :      27994. kBytes
   grid      :      74150. kBytes
   one-center:         93. kBytes
   wavefun   :      13842. kBytes
 
  
  
 General timing and accounting informations for this job:
 ========================================================
  
                  Total CPU time used (sec):      350.269
                            User time (sec):      337.481
                          System time (sec):       12.789
                         Elapsed time (sec):      350.659
  
                   Maximum memory used (kb):      281004.
                   Average memory used (kb):           0.
  
                          Minor page faults:       284562
                          Major page faults:            0
                 Voluntary context switches:          900
