 vasp.5.4.4.18Apr17-6-g9f103f2a35 (build May 08 2019 13:49:07) complex          
  
 executed on             LinuxIFC date 2019.11.13  14:36:55
 running on   24 total cores
 distrk:  each k-point on   24 cores,    1 groups
 distr:  one band on NCORES_PER_BAND=   6 cores,    4 groups


--------------------------------------------------------------------------------------------------------


 INCAR:
 POTCAR:    PAW_PBE Cu 22Jun2005                  
 POTCAR:    PAW_PBE C 08Apr2002                   
 POTCAR:    PAW_PBE O 08Apr2002                   
 POTCAR:    PAW_PBE Cu 22Jun2005                  
   VRHFIN =Cu: d10 p1                                                           
   LEXCH  = PE                                                                  
   EATOM  =  1390.9808 eV,  102.2342 Ry                                         
                                                                                
   TITEL  = PAW_PBE Cu 22Jun2005                                                
   LULTRA =        F    use ultrasoft PP ?                                      
   IUNSCR =        1    unscreen: 0-lin 1-nonlin 2-no                           
   RPACOR =    2.000    partial core radius                                     
   POMASS =   63.546; ZVAL   =   11.000    mass and valenz                      
   RCORE  =    2.300    outmost cutoff radius                                   
   RWIGS  =    2.200; RWIGS  =    1.164    wigner-seitz radius (au A)           
   ENMAX  =  295.446; ENMIN  =  221.585 eV                                      
   ICORE  =        3    local potential                                         
   LCOR   =        T    correct aug charges                                     
   LPAW   =        T    paw PP                                                  
   EAUG   =  586.980                                                            
   DEXC   =    0.000                                                            
   RMAX   =    2.344    core radius for proj-oper                               
   RAUG   =    1.300    factor for augmentation sphere                          
   RDEP   =    2.302    radius for radial grids                                 
   RDEPT  =    1.771    core radius for aug-charge                              
                                                                                
   Atomic configuration                                                         
    9 entries                                                                   
     n  l   j            E        occ.                                          
     1  0  0.50     -8850.2468   2.0000                                         
     2  0  0.50     -1062.3498   2.0000                                         
     2  1  1.50      -916.8226   6.0000                                         
     3  0  0.50      -114.6929   2.0000                                         
     3  1  1.50       -72.1325   6.0000                                         
     3  2  2.50        -5.0394  10.0000                                         
     4  0  0.50        -4.6097   1.0000                                         
     4  1  0.50        -4.0817   0.0000                                         
     4  3  2.50        -1.3606   0.0000                                         
   Description                                                                  
     l       E           TYP  RCUT    TYP  RCUT                                 
     2     -5.0393973     23  2.200                                             
     2     10.8846608     23  2.200                                             
     0     -4.6097109     23  2.200                                             
     0      8.2520465     23  2.200                                             
     1     -2.7211652     23  2.200                                             
     1     21.7055443     23  2.200                                             
     3      2.7211652     23  2.300                                             
  local pseudopotential read in
  partial core-charges read in
  partial kinetic energy density read in
  atomic valenz-charges read in
  non local Contribution for L=           2  read in
    real space projection operators read in
  non local Contribution for L=           2  read in
    real space projection operators read in
  non local Contribution for L=           0  read in
    real space projection operators read in
  non local Contribution for L=           0  read in
    real space projection operators read in
  non local Contribution for L=           1  read in
    real space projection operators read in
  non local Contribution for L=           1  read in
    real space projection operators read in
    PAW grid and wavefunctions read in
 
   number of l-projection  operators is LMAX  =           6
   number of lm-projection operators is LMMAX =          18
 
 POTCAR:    PAW_PBE C 08Apr2002                   
   VRHFIN =C: s2p2                                                              
   LEXCH  = PE                                                                  
   EATOM  =   147.1560 eV,   10.8157 Ry                                         
                                                                                
   TITEL  = PAW_PBE C 08Apr2002                                                 
   LULTRA =        F    use ultrasoft PP ?                                      
   IUNSCR =        1    unscreen: 0-lin 1-nonlin 2-no                           
   RPACOR =    1.200    partial core radius                                     
   POMASS =   12.011; ZVAL   =    4.000    mass and valenz                      
   RCORE  =    1.500    outmost cutoff radius                                   
   RWIGS  =    1.630; RWIGS  =    0.863    wigner-seitz radius (au A)           
   ENMAX  =  400.000; ENMIN  =  300.000 eV                                      
   ICORE  =        2    local potential                                         
   LCOR   =        T    correct aug charges                                     
   LPAW   =        T    paw PP                                                  
   EAUG   =  644.873                                                            
   DEXC   =    0.000                                                            
   RMAX   =    1.529    core radius for proj-oper                               
   RAUG   =    1.300    factor for augmentation sphere                          
   RDEP   =    1.501    radius for radial grids                                 
   RDEPT  =    1.300    core radius for aug-charge                              
                                                                                
   Atomic configuration                                                         
    4 entries                                                                   
     n  l   j            E        occ.                                          
     1  0  0.50      -273.3789   2.0000                                         
     2  0  0.50       -13.7508   2.0000                                         
     2  1  0.50        -5.2854   2.0000                                         
     3  2  1.50        -5.4423   0.0000                                         
   Description                                                                  
     l       E           TYP  RCUT    TYP  RCUT                                 
     0    -13.7508458     23  1.200                                             
     0     -8.2022199     23  1.200                                             
     1     -5.2854383     23  1.500                                             
     1     34.0145650     23  1.500                                             
     2     -5.4423304      7  1.500                                             
  local pseudopotential read in
  partial core-charges read in
  partial kinetic energy density read in
  atomic valenz-charges read in
  non local Contribution for L=           0  read in
    real space projection operators read in
  non local Contribution for L=           0  read in
    real space projection operators read in
  non local Contribution for L=           1  read in
    real space projection operators read in
  non local Contribution for L=           1  read in
    real space projection operators read in
    PAW grid and wavefunctions read in
 
   number of l-projection  operators is LMAX  =           4
   number of lm-projection operators is LMMAX =           8
 
 POTCAR:    PAW_PBE O 08Apr2002                   
   VRHFIN =O: s2p4                                                              
   LEXCH  = PE                                                                  
   EATOM  =   432.3788 eV,   31.7789 Ry                                         
                                                                                
   TITEL  = PAW_PBE O 08Apr2002                                                 
   LULTRA =        F    use ultrasoft PP ?                                      
   IUNSCR =        1    unscreen: 0-lin 1-nonlin 2-no                           
   RPACOR =    1.200    partial core radius                                     
   POMASS =   16.000; ZVAL   =    6.000    mass and valenz                      
   RCORE  =    1.520    outmost cutoff radius                                   
   RWIGS  =    1.550; RWIGS  =    0.820    wigner-seitz radius (au A)           
   ENMAX  =  400.000; ENMIN  =  300.000 eV                                      
   ICORE  =        2    local potential                                         
   LCOR   =        T    correct aug charges                                     
   LPAW   =        T    paw PP                                                  
   EAUG   =  605.392                                                            
   DEXC   =    0.000                                                            
   RMAX   =    1.553    core radius for proj-oper                               
   RAUG   =    1.300    factor for augmentation sphere                          
   RDEP   =    1.550    radius for radial grids                                 
   RDEPT  =    1.329    core radius for aug-charge                              
                                                                                
   Atomic configuration                                                         
    4 entries                                                                   
     n  l   j            E        occ.                                          
     1  0  0.50      -514.6923   2.0000                                         
     2  0  0.50       -23.9615   2.0000                                         
     2  1  0.50        -9.0305   4.0000                                         
     3  2  1.50        -9.5241   0.0000                                         
   Description                                                                  
     l       E           TYP  RCUT    TYP  RCUT                                 
     0    -23.9615318     23  1.200                                             
     0     -9.5240782     23  1.200                                             
     1     -9.0304911     23  1.520                                             
     1      8.1634956     23  1.520                                             
     2     -9.5240782      7  1.500                                             
  local pseudopotential read in
  partial core-charges read in
  partial kinetic energy density read in
  kinetic energy density of atom read in
  atomic valenz-charges read in
  non local Contribution for L=           0  read in
    real space projection operators read in
  non local Contribution for L=           0  read in
    real space projection operators read in
  non local Contribution for L=           1  read in
    real space projection operators read in
  non local Contribution for L=           1  read in
    real space projection operators read in
    PAW grid and wavefunctions read in
 
   number of l-projection  operators is LMAX  =           4
   number of lm-projection operators is LMMAX =           8
 
  PAW_PBE Cu 22Jun2005                  :
 energy of atom  1       EATOM=-1390.9808
 kinetic energy error for atom=    0.0033 (will be added to EATOM!!)
  PAW_PBE C 08Apr2002                   :
 energy of atom  2       EATOM= -147.1560
 kinetic energy error for atom=    0.0057 (will be added to EATOM!!)
  PAW_PBE O 08Apr2002                   :
 energy of atom  3       EATOM= -432.3788
 kinetic energy error for atom=    0.0168 (will be added to EATOM!!)
 
 
 POSCAR: Cu13 C1 O1                              
  positions in cartesian coordinates
  No initial velocities read in
 exchange correlation table for  LEXCH =        8
   RHO(1)=    0.500       N(1)  =     2000
   RHO(2)=  100.500       N(2)  =     4000
 


--------------------------------------------------------------------------------------------------------


 ion  position               nearest neighbor table
   1  0.289  0.416  0.554-   3 2.48   8 2.52   7 2.53   2 2.54   9 2.55   6 2.59
   2  0.375  0.549  0.494-  10 2.30  11 2.42   7 2.43   8 2.46   4 2.50   1 2.54   9 2.54  13 2.57
                             6 2.72
   3  0.396  0.291  0.561-   7 2.39   6 2.45   1 2.48   5 2.48
   4  0.534  0.503  0.478-  12 2.36   7 2.38   5 2.40   2 2.50  11 2.52   6 2.60  13 2.64
   5  0.547  0.352  0.530-   6 2.30   4 2.40   7 2.43   3 2.48  12 2.60
   6  0.450  0.436  0.614-   5 2.30  13 2.43   9 2.44   3 2.45   1 2.59   4 2.60   7 2.61   2 2.72
                            12 2.79
   7  0.417  0.400  0.447-   4 2.38   3 2.39   5 2.43   2 2.43   1 2.53   6 2.61
   8  0.222  0.570  0.552-   9 2.37   2 2.46   1 2.52  10 2.59
   9  0.335  0.542  0.659-   8 2.37  13 2.41   6 2.44  10 2.54   2 2.54   1 2.55
  10  0.353  0.682  0.566-   2 2.30  11 2.41  13 2.47   9 2.54   8 2.59
  11  0.486  0.664  0.479-  13 2.36  10 2.41   2 2.42   4 2.52
  12  0.628  0.487  0.603-  14 1.84   4 2.36   5 2.60  13 2.74   6 2.79
  13  0.482  0.594  0.620-  11 2.36   9 2.41   6 2.43  10 2.47   2 2.57   4 2.64  12 2.74
  14  0.746  0.488  0.639-  15 1.16  12 1.84
  15  0.821  0.498  0.651-  14 1.16
 

IMPORTANT INFORMATION: All symmetrisations will be switched off!
NOSYMM: (Re-)initialisation of all symmetry stuff for point group C_1.

 
 

Automatic generation of k-mesh.
 generate k-points for:    1    1    1
Space group operators:
 irot       det(A)        alpha          n_x          n_y          n_z        tau_x        tau_y        tau_z
    1     1.000000     0.000000     1.000000     0.000000     0.000000     0.000000     0.000000     0.000000
 
 Subroutine IBZKPT returns following result:
 ===========================================
 
 Found      1 irreducible k-points:
 
 Following reciprocal coordinates:
            Coordinates               Weight
  0.000000  0.000000  0.000000      1.000000
 
 Following cartesian coordinates:
            Coordinates               Weight
  0.000000  0.000000  0.000000      1.000000
 


--------------------------------------------------------------------------------------------------------




 Dimension of arrays:
   k-points           NKPTS =      1   k-points in BZ     NKDIM =      1   number of bands    NBANDS=     92
   number of dos      NEDOS =    301   number of ions     NIONS =     15
   non local maximal  LDIM  =      6   non local SUM 2l+1 LMDIM =     18
   total plane-waves  NPLWV = ******
   max r-space proj   IRMAX =      1   max aug-charges    IRDMAX=  15028
   dimension x,y,z NGX =   120 NGY =  120 NGZ =  120
   dimension x,y,z NGXF=   240 NGYF=  240 NGZF=  240
   support grid    NGXF=   240 NGYF=  240 NGZF=  240
   ions per type =              13   1   1
   NGX,Y,Z   is equivalent  to a cutoff of  13.30, 13.30, 13.30 a.u.
   NGXF,Y,Z  is equivalent  to a cutoff of  26.60, 26.60, 26.60 a.u.

 SYSTEM =  CuCO                                    
 POSCAR =  Cu13 C1 O1                              

 Startparameter for this run:
   NWRITE =      2    write-flag & timer
   PREC   = accura    normal or accurate (medium, high low for compatibility)
   ISTART =      0    job   : 0-new  1-cont  2-samecut
   ICHARG =      2    charge: 1-file 2-atom 10-const
   ISPIN  =      2    spin polarized calculation?
   LNONCOLLINEAR =      F non collinear calculations
   LSORBIT =      F    spin-orbit coupling
   INIWAV =      1    electr: 0-lowe 1-rand  2-diag
   LASPH  =      F    aspherical Exc in radial PAW
   METAGGA=      F    non-selfconsistent MetaGGA calc.

 Electronic Relaxation 1
   ENCUT  =  600.0 eV  44.10 Ry    6.64 a.u.  29.96 29.96 29.96*2*pi/ulx,y,z
   ENINI  =  600.0     initial cutoff
   ENAUG  =  644.9 eV  augmentation charge cutoff
   NELM   =    300;   NELMIN=  3; NELMDL= -5     # of ELM steps 
   EDIFF  = 0.1E-06   stopping-criterion for ELM
   LREAL  =      F    real-space projection
   NLSPLINE    = F    spline interpolate recip. space projectors
   LCOMPAT=      F    compatible to vasp.4.4
   GGA_COMPAT  = T    GGA compatible to vasp.4.4-vasp.4.6
   LMAXPAW     = -100 max onsite density
   LMAXMIX     =    2 max onsite mixed and CHGCAR
   VOSKOWN=      0    Vosko Wilk Nusair interpolation
   ROPT   =    0.00000   0.00000   0.00000
 Ionic relaxation
   EDIFFG = -.1E-02   stopping-criterion for IOM
   NSW    =      0    number of steps for IOM
   NBLOCK =      1;   KBLOCK =      1    inner block; outer block 
   IBRION =     -1    ionic relax: 0-MD 1-quasi-New 2-CG
   NFREE  =      0    steps in history (QN), initial steepest desc. (CG)
   ISIF   =      2    stress and relaxation
   IWAVPR =     10    prediction:  0-non 1-charg 2-wave 3-comb
   ISYM   =      0    0-nonsym 1-usesym 2-fastsym
   LCORR  =      T    Harris-Foulkes like correction to forces

   POTIM  = 0.5000    time-step for ionic-motion
   TEIN   =    0.0    initial temperature
   TEBEG  =    0.0;   TEEND  =   0.0 temperature during run
   SMASS  =  -3.00    Nose mass-parameter (am)
   estimated Nose-frequenzy (Omega)   =  0.10E-29 period in steps =****** mass=  -0.514E-26a.u.
   SCALEE = 1.0000    scale energy and forces
   NPACO  =    256;   APACO  = 16.0  distance and # of slots for P.C.
   PSTRESS=    0.0 pullay stress

  Mass of Ions in am
   POMASS =  63.55 12.01 16.00
  Ionic Valenz
   ZVAL   =  11.00  4.00  6.00
  Atomic Wigner-Seitz radii
   RWIGS  =  -1.00 -1.00 -1.00
  virtual crystal weights 
   VCA    =   1.00  1.00  1.00
   NELECT =     153.0000    total number of electrons
   NUPDOWN=       1.0000    fix difference up-down

 DOS related values:
   EMIN   =  10.00;   EMAX   =-10.00  energy-range for DOS
   EFERMI =   0.00
   ISMEAR =     1;   SIGMA  =   0.10  broadening in eV -4-tet -1-fermi 0-gaus

 Electronic relaxation 2 (details)
   IALGO  =     68    algorithm
   LDIAG  =      T    sub-space diagonalisation (order eigenvalues)
   LSUBROT=      F    optimize rotation matrix (better conditioning)
   TURBO    =      0    0=normal 1=particle mesh
   IRESTART =      0    0=no restart 2=restart with 2 vectors
   NREBOOT  =      0    no. of reboots
   NMIN     =      0    reboot dimension
   EREF     =   0.00    reference energy to select bands
   IMIX   =      4    mixing-type and parameters
     AMIX     =   0.40;   BMIX     =  1.00
     AMIX_MAG =   1.60;   BMIX_MAG =  1.00
     AMIN     =   0.10
     WC   =   100.;   INIMIX=   1;  MIXPRE=   1;  MAXMIX= -45

 Intra band minimization:
   WEIMIN = 0.0000     energy-eigenvalue tresh-hold
   EBREAK =  0.27E-09  absolut break condition
   DEPER  =   0.30     relativ break condition  

   TIME   =   0.40     timestep for ELM

  volume/ion in A,a.u.               =     225.00      1518.37
  Fermi-wavevector in a.u.,A,eV,Ry     =   0.583733  1.103095  4.636102  0.340744
  Thomas-Fermi vector in A             =   1.629149
 
 Write flags
   LWAVE        =      F    write WAVECAR
   LDOWNSAMPLE  =      F    k-point downsampling of WAVECAR
   LCHARG       =      F    write CHGCAR
   LVTOT        =      F    write LOCPOT, total local potential
   LVHAR        =      F    write LOCPOT, Hartree potential only
   LELF         =      F    write electronic localiz. function (ELF)
   LORBIT       =      0    0 simple, 1 ext, 2 COOP (PROOUT), +10 PAW based schemes


 Dipole corrections
   LMONO  =      F    monopole corrections only (constant potential shift)
   LDIPOL =      F    correct potential (dipole corrections)
   IDIPOL =      0    1-x, 2-y, 3-z, 4-all directions 
   EPSILON=  1.0000000 bulk dielectric constant

 Exchange correlation treatment:
   GGA     =    PE    GGA type
   LEXCH   =     8    internal setting for exchange type
   VOSKOWN=      0    Vosko Wilk Nusair interpolation
   LHFCALC =     F    Hartree Fock is set to
   LHFONE  =     F    Hartree Fock one center treatment
   AEXX    =    0.0000 exact exchange contribution

 Linear response parameters
   LEPSILON=     F    determine dielectric tensor
   LRPA    =     F    only Hartree local field effects (RPA)
   LNABLA  =     F    use nabla operator in PAW spheres
   LVEL    =     F    velocity operator in full k-point grid
   LINTERFAST=   F  fast interpolation
   KINTER  =     0    interpolate to denser k-point grid
   CSHIFT  =0.1000    complex shift for real part using Kramers Kronig
   OMEGAMAX=  -1.0    maximum frequency
   DEG_THRESHOLD= 0.2000000E-02 threshold for treating states as degnerate
   RTIME   =   -0.100 relaxation time in fs
  (WPLASMAI=    0.000 imaginary part of plasma frequency in eV, 0.658/RTIME)
   DFIELD  = 0.0000000 0.0000000 0.0000000 field for delta impulse in time
 
 Orbital magnetization related:
   ORBITALMAG=     F  switch on orbital magnetization
   LCHIMAG   =     F  perturbation theory with respect to B field
   DQ        =  0.001000  dq finite difference perturbation B field
   LLRAUG    =     F  two centre corrections for induced B field



--------------------------------------------------------------------------------------------------------


 Static calculation
 charge density and potential will be updated during run
 spin polarized calculation
 RMM-DIIS sequential band-by-band and
  variant of blocked Davidson during initial phase
 perform sub-space diagonalisation
    before iterative eigenvector-optimisation
 modified Broyden-mixing scheme, WC =      100.0
 initial mixing is a Kerker type mixing with AMIX =  0.4000 and BMIX =      1.0000
 Hartree-type preconditioning will be used
 using additional bands           15
 reciprocal scheme for non local part
 use partial core corrections
 calculate Harris-corrections to forces 
   (improved forces if not selfconsistent)
 use gradient corrections 
 use of overlap-Matrix (Vanderbilt PP)
 Methfessel and Paxton  Order N= 1 SIGMA  =   0.10


--------------------------------------------------------------------------------------------------------


  energy-cutoff  :      600.00
  volume of cell :     3375.00
      direct lattice vectors                 reciprocal lattice vectors
    15.000000000  0.000000000  0.000000000     0.066666667  0.000000000  0.000000000
     0.000000000 15.000000000  0.000000000     0.000000000  0.066666667  0.000000000
     0.000000000  0.000000000 15.000000000     0.000000000  0.000000000  0.066666667

  length of vectors
    15.000000000 15.000000000 15.000000000     0.066666667  0.066666667  0.066666667


 
 k-points in units of 2pi/SCALE and weight: read from INCAR                         
   0.00000000  0.00000000  0.00000000       1.000
 
 k-points in reciprocal lattice and weights: read from INCAR                         
   0.00000000  0.00000000  0.00000000       1.000
 
 position of ions in fractional coordinates (direct lattice) 
   0.28883200  0.41610800  0.55444667
   0.37456800  0.54895733  0.49387200
   0.39630200  0.29102867  0.56067533
   0.53405667  0.50288000  0.47826333
   0.54703000  0.35178933  0.53027733
   0.44966200  0.43573133  0.61376800
   0.41718333  0.39996600  0.44670600
   0.22245200  0.57039600  0.55191000
   0.33523333  0.54205133  0.65866600
   0.35308400  0.68237333  0.56609800
   0.48621333  0.66418267  0.47857667
   0.62835467  0.48660333  0.60327067
   0.48173267  0.59449600  0.61950067
   0.74562000  0.48828333  0.63918533
   0.82148667  0.49813000  0.65068000
 
 position of ions in cartesian coordinates  (Angst):
   4.33248000  6.24162000  8.31670000
   5.61852000  8.23436000  7.40808000
   5.94453000  4.36543000  8.41013000
   8.01085000  7.54320000  7.17395000
   8.20545000  5.27684000  7.95416000
   6.74493000  6.53597000  9.20652000
   6.25775000  5.99949000  6.70059000
   3.33678000  8.55594000  8.27865000
   5.02850000  8.13077000  9.87999000
   5.29626000 10.23560000  8.49147000
   7.29320000  9.96274000  7.17865000
   9.42532000  7.29905000  9.04906000
   7.22599000  8.91744000  9.29251000
  11.18430000  7.32425000  9.58778000
  12.32230000  7.47195000  9.76020000
 


--------------------------------------------------------------------------------------------------------


 k-point  1 :   0.0000 0.0000 0.0000  plane waves:  112451

 maximum and minimum number of plane-waves per node :     18753    18726

 maximum number of plane-waves:    112451
 maximum index in each direction: 
   IXMAX=   29   IYMAX=   29   IZMAX=   29
   IXMIN=  -29   IYMIN=  -29   IZMIN=  -29


 parallel 3D FFT for wavefunctions:
    minimum data exchange during FFTs selected (reduces bandwidth)
 parallel 3D FFT for charge:
    minimum data exchange during FFTs selected (reduces bandwidth)


 total amount of memory used by VASP MPI-rank0   158680. kBytes
=======================================================================

   base      :      30000. kBytes
   nonl-proj :      12601. kBytes
   fftplans  :      27994. kBytes
   grid      :      74150. kBytes
   one-center:         93. kBytes
   wavefun   :      13842. kBytes
 
     INWAV:  cpu time    0.0000: real time    0.0000
 Broyden mixing: mesh for mixing (old mesh)
   NGX = 59   NGY = 59   NGZ = 59
  (NGX  =240   NGY  =240   NGZ  =240)
  gives a total of 205379 points

 initial charge density was supplied:
 charge density of overlapping atoms calculated
 number of electron     153.0000000 magnetization       1.0000000
 keeping initial charge density in first step


--------------------------------------------------------------------------------------------------------


 Maximum index for augmentation-charges          711 (set IRDMAX)


--------------------------------------------------------------------------------------------------------


 First call to EWALD:  gamma=   0.118
 Maximum number of real-space cells 3x 3x 3
 Maximum number of reciprocal cells 3x 3x 3

    FEWALD:  cpu time    0.0016: real time    0.0023


--------------------------------------- Iteration      1(   1)  ---------------------------------------


    POTLOK:  cpu time    1.1867: real time    1.1901
    SETDIJ:  cpu time    0.0179: real time    0.0179
     EDDAV:  cpu time    7.5305: real time    7.5347
       DOS:  cpu time    0.0004: real time    0.0004
    --------------------------------------------
      LOOP:  cpu time    8.7354: real time    8.7432

 eigenvalue-minimisations  :   376
 total energy-change (2. order) : 0.1118370E+04  (-0.4461639E+04)
 number of electron     153.0000000 magnetization       1.0000000
 augmentation part      153.0000000 magnetization       1.0000000

 Free energy of the ion-electron system (eV)
  ---------------------------------------------------
  alpha Z        PSCENC =        41.16232785
  Ewald energy   TEWEN  =     16313.92864016
  -Hartree energ DENC   =    -33336.82587533
  -exchange      EXHF   =         0.00000000
  -V(xc)+E(xc)   XCENC  =       623.40913822
  PAW double counting   =     16421.75059358   -17800.06104309
  entropy T*S    EENTRO =         0.00131150
  eigenvalues    EBANDS =       192.78596048
  atomic energy  EATOM  =     18662.21924712
  Solvation  Ediel_sol  =         0.00000000
  ---------------------------------------------------
  free energy    TOTEN  =      1118.37030048 eV

  energy without entropy =     1118.36898898  energy(sigma->0) =     1118.36986331


--------------------------------------------------------------------------------------------------------




--------------------------------------- Iteration      1(   2)  ---------------------------------------


     EDDAV:  cpu time    7.3874: real time    7.3923
       DOS:  cpu time    0.0003: real time    0.0003
    --------------------------------------------
      LOOP:  cpu time    7.3877: real time    7.3927

 eigenvalue-minimisations  :   368
 total energy-change (2. order) :-0.1029055E+04  (-0.9779263E+03)
 number of electron     153.0000000 magnetization       1.0000000
 augmentation part      153.0000000 magnetization       1.0000000

 Free energy of the ion-electron system (eV)
  ---------------------------------------------------
  alpha Z        PSCENC =        41.16232785
  Ewald energy   TEWEN  =     16313.92864016
  -Hartree energ DENC   =    -33336.82587533
  -exchange      EXHF   =         0.00000000
  -V(xc)+E(xc)   XCENC  =       623.40913822
  PAW double counting   =     16421.75059358   -17800.06104309
  entropy T*S    EENTRO =         0.00694957
  eigenvalues    EBANDS =      -836.27455120
  atomic energy  EATOM  =     18662.21924712
  Solvation  Ediel_sol  =         0.00000000
  ---------------------------------------------------
  free energy    TOTEN  =        89.31542687 eV

  energy without entropy =       89.30847730  energy(sigma->0) =       89.31311035


--------------------------------------------------------------------------------------------------------




--------------------------------------- Iteration      1(   3)  ---------------------------------------


     EDDAV:  cpu time   11.1495: real time   11.1544
       DOS:  cpu time    0.0003: real time    0.0003
    --------------------------------------------
      LOOP:  cpu time   11.1499: real time   11.1548

 eigenvalue-minimisations  :   624
 total energy-change (2. order) :-0.1228983E+03  (-0.1149950E+03)
 number of electron     153.0000000 magnetization       1.0000000
 augmentation part      153.0000000 magnetization       1.0000000

 Free energy of the ion-electron system (eV)
  ---------------------------------------------------
  alpha Z        PSCENC =        41.16232785
  Ewald energy   TEWEN  =     16313.92864016
  -Hartree energ DENC   =    -33336.82587533
  -exchange      EXHF   =         0.00000000
  -V(xc)+E(xc)   XCENC  =       623.40913822
  PAW double counting   =     16421.75059358   -17800.06104309
  entropy T*S    EENTRO =         0.00705429
  eigenvalues    EBANDS =      -959.17292126
  atomic energy  EATOM  =     18662.21924712
  Solvation  Ediel_sol  =         0.00000000
  ---------------------------------------------------
  free energy    TOTEN  =       -33.58283847 eV

  energy without entropy =      -33.58989276  energy(sigma->0) =      -33.58518990


--------------------------------------------------------------------------------------------------------




--------------------------------------- Iteration      1(   4)  ---------------------------------------


     EDDAV:  cpu time   10.2511: real time   10.2567
       DOS:  cpu time    0.0003: real time    0.0003
    --------------------------------------------
      LOOP:  cpu time   10.2515: real time   10.2571

 eigenvalue-minimisations  :   560
 total energy-change (2. order) :-0.2211458E+02  (-0.2176582E+02)
 number of electron     153.0000000 magnetization       1.0000000
 augmentation part      153.0000000 magnetization       1.0000000

 Free energy of the ion-electron system (eV)
  ---------------------------------------------------
  alpha Z        PSCENC =        41.16232785
  Ewald energy   TEWEN  =     16313.92864016
  -Hartree energ DENC   =    -33336.82587533
  -exchange      EXHF   =         0.00000000
  -V(xc)+E(xc)   XCENC  =       623.40913822
  PAW double counting   =     16421.75059358   -17800.06104309
  entropy T*S    EENTRO =         0.00922420
  eigenvalues    EBANDS =      -981.28966773
  atomic energy  EATOM  =     18662.21924712
  Solvation  Ediel_sol  =         0.00000000
  ---------------------------------------------------
  free energy    TOTEN  =       -55.69741503 eV

  energy without entropy =      -55.70663923  energy(sigma->0) =      -55.70048977


--------------------------------------------------------------------------------------------------------




--------------------------------------- Iteration      1(   5)  ---------------------------------------


     EDDAV:  cpu time   12.1313: real time   12.1364
       DOS:  cpu time    0.0005: real time    0.0005
    CHARGE:  cpu time    0.6910: real time    0.6914
    MIXING:  cpu time    0.0247: real time    0.0248
    --------------------------------------------
      LOOP:  cpu time   12.8475: real time   12.8530

 eigenvalue-minimisations  :   688
 total energy-change (2. order) :-0.1596057E+01  (-0.1458183E+01)
 number of electron     153.0000002 magnetization       1.0000000
 augmentation part       87.4538393 magnetization       0.3794068

 Broyden mixing:
  rms(total) = 0.23708E+01    rms(broyden)= 0.23707E+01
  rms(prec ) = 0.27203E+01
  weight for this iteration     100.00

 Free energy of the ion-electron system (eV)
  ---------------------------------------------------
  alpha Z        PSCENC =        41.16232785
  Ewald energy   TEWEN  =     16313.92864016
  -Hartree energ DENC   =    -33336.82587533
  -exchange      EXHF   =         0.00000000
  -V(xc)+E(xc)   XCENC  =       623.40913822
  PAW double counting   =     16421.75059358   -17800.06104309
  entropy T*S    EENTRO =         0.00906514
  eigenvalues    EBANDS =      -982.88556605
  atomic energy  EATOM  =     18662.21924712
  Solvation  Ediel_sol  =         0.00000000
  ---------------------------------------------------
  free energy    TOTEN  =       -57.29347240 eV

  energy without entropy =      -57.30253755  energy(sigma->0) =      -57.29649412


--------------------------------------------------------------------------------------------------------




--------------------------------------- Iteration      1(   6)  ---------------------------------------


    POTLOK:  cpu time    1.1732: real time    1.1747
    SETDIJ:  cpu time    0.0180: real time    0.0180
    EDDIAG:  cpu time    1.1152: real time    1.1159
  RMM-DIIS:  cpu time    7.1252: real time    7.1279
    ORTHCH:  cpu time    0.0627: real time    0.0628
       DOS:  cpu time    0.0005: real time    0.0005
    CHARGE:  cpu time    0.6630: real time    0.6633
    MIXING:  cpu time    0.0260: real time    0.0260
    --------------------------------------------
      LOOP:  cpu time   10.1840: real time   10.1892

 eigenvalue-minimisations  :   423
 total energy-change (2. order) : 0.7090001E+00  (-0.1217887E+02)
 number of electron     153.0000003 magnetization       1.0000000
 augmentation part       95.7207686 magnetization       0.0870027

 Broyden mixing:
  rms(total) = 0.15723E+01    rms(broyden)= 0.15721E+01
  rms(prec ) = 0.18130E+01
  weight for this iteration     100.00

 eigenvalues of (default mixing * dielectric matrix)
  average eigenvalue GAMMA=   0.6112
  0.6112

 Free energy of the ion-electron system (eV)
  ---------------------------------------------------
  alpha Z        PSCENC =        41.16232785
  Ewald energy   TEWEN  =     16313.92864016
  -Hartree energ DENC   =    -33084.26751561
  -exchange      EXHF   =         0.00000000
  -V(xc)+E(xc)   XCENC  =       611.16735412
  PAW double counting   =     16696.08504638   -18019.84922499
  entropy T*S    EENTRO =         0.00715871
  eigenvalues    EBANDS =     -1277.03750606
  atomic energy  EATOM  =     18662.21924712
  Solvation  Ediel_sol  =         0.00000000
  ---------------------------------------------------
  free energy    TOTEN  =       -56.58447233 eV

  energy without entropy =      -56.59163104  energy(sigma->0) =      -56.58685856


--------------------------------------------------------------------------------------------------------




--------------------------------------- Iteration      1(   7)  ---------------------------------------


    POTLOK:  cpu time    1.1722: real time    1.1743
    SETDIJ:  cpu time    0.0194: real time    0.0194
    EDDIAG:  cpu time    1.1162: real time    1.1171
  RMM-DIIS:  cpu time    6.1983: real time    6.2008
    ORTHCH:  cpu time    0.0621: real time    0.0621
       DOS:  cpu time    0.0006: real time    0.0006
    CHARGE:  cpu time    0.6660: real time    0.6660
    MIXING:  cpu time    0.0260: real time    0.0260
    --------------------------------------------
      LOOP:  cpu time    9.2606: real time    9.2662

 eigenvalue-minimisations  :   374
 total energy-change (2. order) : 0.7333129E+01  (-0.2520934E+01)
 number of electron     153.0000002 magnetization       1.0000000
 augmentation part       92.8842923 magnetization       0.1095600

 Broyden mixing:
  rms(total) = 0.38711E+00    rms(broyden)= 0.38709E+00
  rms(prec ) = 0.47994E+00
  weight for this iteration     100.00

 eigenvalues of (default mixing * dielectric matrix)
  average eigenvalue GAMMA=   0.9377
  1.2088  0.6665

 Free energy of the ion-electron system (eV)
  ---------------------------------------------------
  alpha Z        PSCENC =        41.16232785
  Ewald energy   TEWEN  =     16313.92864016
  -Hartree energ DENC   =    -33219.80640795
  -exchange      EXHF   =         0.00000000
  -V(xc)+E(xc)   XCENC  =       615.60711527
  PAW double counting   =     17036.96454517   -18410.46209376
  entropy T*S    EENTRO =         0.00878904
  eigenvalues    EBANDS =     -1088.87350624
  atomic energy  EATOM  =     18662.21924712
  Solvation  Ediel_sol  =         0.00000000
  ---------------------------------------------------
  free energy    TOTEN  =       -49.25134334 eV

  energy without entropy =      -49.26013238  energy(sigma->0) =      -49.25427302


--------------------------------------------------------------------------------------------------------




--------------------------------------- Iteration      1(   8)  ---------------------------------------


    POTLOK:  cpu time    1.1727: real time    1.1740
    SETDIJ:  cpu time    0.0183: real time    0.0183
    EDDIAG:  cpu time    1.1161: real time    1.1167
  RMM-DIIS:  cpu time    8.0152: real time    8.0196
    ORTHCH:  cpu time    0.0626: real time    0.0627
       DOS:  cpu time    0.0005: real time    0.0005
    CHARGE:  cpu time    0.7053: real time    0.7058
    MIXING:  cpu time    0.0258: real time    0.0258
    --------------------------------------------
      LOOP:  cpu time   11.1165: real time   11.1234

 eigenvalue-minimisations  :   421
 total energy-change (2. order) : 0.2311311E+00  (-0.4305933E+00)
 number of electron     153.0000002 magnetization       1.0000000
 augmentation part       92.0578036 magnetization       0.1084021

 Broyden mixing:
  rms(total) = 0.32110E+00    rms(broyden)= 0.32108E+00
  rms(prec ) = 0.36315E+00
  weight for this iteration     100.00

 eigenvalues of (default mixing * dielectric matrix)
  average eigenvalue GAMMA=   0.9127
  1.3471  0.6955  0.6955

 Free energy of the ion-electron system (eV)
  ---------------------------------------------------
  alpha Z        PSCENC =        41.16232785
  Ewald energy   TEWEN  =     16313.92864016
  -Hartree energ DENC   =    -33269.70774142
  -exchange      EXHF   =         0.00000000
  -V(xc)+E(xc)   XCENC  =       616.04997539
  PAW double counting   =     17397.97812449   -18791.53139270
  entropy T*S    EENTRO =         0.00930260
  eigenvalues    EBANDS =     -1019.12869571
  atomic energy  EATOM  =     18662.21924712
  Solvation  Ediel_sol  =         0.00000000
  ---------------------------------------------------
  free energy    TOTEN  =       -49.02021222 eV

  energy without entropy =      -49.02951482  energy(sigma->0) =      -49.02331309


--------------------------------------------------------------------------------------------------------




--------------------------------------- Iteration      1(   9)  ---------------------------------------


    POTLOK:  cpu time    1.1747: real time    1.1767
    SETDIJ:  cpu time    0.0189: real time    0.0188
    EDDIAG:  cpu time    1.1175: real time    1.1181
  RMM-DIIS:  cpu time    6.7526: real time    6.7551
    ORTHCH:  cpu time    0.0576: real time    0.0576
       DOS:  cpu time    0.0004: real time    0.0004
    CHARGE:  cpu time    0.6724: real time    0.6726
    MIXING:  cpu time    0.0254: real time    0.0254
    --------------------------------------------
      LOOP:  cpu time    9.8194: real time    9.8248

 eigenvalue-minimisations  :   403
 total energy-change (2. order) : 0.5930734E-01  (-0.1049113E+00)
 number of electron     153.0000003 magnetization       1.0000000
 augmentation part       92.2689261 magnetization       0.0950680

 Broyden mixing:
  rms(total) = 0.18852E+00    rms(broyden)= 0.18852E+00
  rms(prec ) = 0.22407E+00
  weight for this iteration     100.00

 eigenvalues of (default mixing * dielectric matrix)
  average eigenvalue GAMMA=   1.0317
  2.0831  0.7773  0.7773  0.4890

 Free energy of the ion-electron system (eV)
  ---------------------------------------------------
  alpha Z        PSCENC =        41.16232785
  Ewald energy   TEWEN  =     16313.92864016
  -Hartree energ DENC   =    -33266.75138992
  -exchange      EXHF   =         0.00000000
  -V(xc)+E(xc)   XCENC  =       615.58897592
  PAW double counting   =     17492.46788786   -18887.38668820
  entropy T*S    EENTRO =         0.00934263
  eigenvalues    EBANDS =     -1020.19924829
  atomic energy  EATOM  =     18662.21924712
  Solvation  Ediel_sol  =         0.00000000
  ---------------------------------------------------
  free energy    TOTEN  =       -48.96090488 eV

  energy without entropy =      -48.97024751  energy(sigma->0) =      -48.96401909


--------------------------------------------------------------------------------------------------------




--------------------------------------- Iteration      1(  10)  ---------------------------------------


    POTLOK:  cpu time    1.1628: real time    1.1753
    SETDIJ:  cpu time    0.0179: real time    0.0179
    EDDIAG:  cpu time    1.1096: real time    1.1103
  RMM-DIIS:  cpu time    6.9530: real time    6.9664
    ORTHCH:  cpu time    0.0581: real time    0.0581
       DOS:  cpu time    0.0004: real time    0.0004
    CHARGE:  cpu time    0.6735: real time    0.6738
    MIXING:  cpu time    0.0256: real time    0.0256
    --------------------------------------------
      LOOP:  cpu time   10.0009: real time   10.0277

 eigenvalue-minimisations  :   420
 total energy-change (2. order) : 0.6488163E-01  (-0.2187991E-01)
 number of electron     153.0000002 magnetization       1.0000000
 augmentation part       92.4650792 magnetization       0.0818696

 Broyden mixing:
  rms(total) = 0.64890E-01    rms(broyden)= 0.64886E-01
  rms(prec ) = 0.84646E-01
  weight for this iteration     100.00

 eigenvalues of (default mixing * dielectric matrix)
  average eigenvalue GAMMA=   1.0533
  2.1088  1.1514  0.7643  0.7643  0.4776

 Free energy of the ion-electron system (eV)
  ---------------------------------------------------
  alpha Z        PSCENC =        41.16232785
  Ewald energy   TEWEN  =     16313.92864016
  -Hartree energ DENC   =    -33264.57846037
  -exchange      EXHF   =         0.00000000
  -V(xc)+E(xc)   XCENC  =       615.12861422
  PAW double counting   =     17599.04499340   -18995.54294782
  entropy T*S    EENTRO =         0.00928248
  eigenvalues    EBANDS =     -1020.26772028
  atomic energy  EATOM  =     18662.21924712
  Solvation  Ediel_sol  =         0.00000000
  ---------------------------------------------------
  free energy    TOTEN  =       -48.89602325 eV

  energy without entropy =      -48.90530573  energy(sigma->0) =      -48.89911741


--------------------------------------------------------------------------------------------------------




--------------------------------------- Iteration      1(  11)  ---------------------------------------


    POTLOK:  cpu time    1.1738: real time    1.1744
    SETDIJ:  cpu time    0.0180: real time    0.0180
    EDDIAG:  cpu time    1.1109: real time    1.1114
  RMM-DIIS:  cpu time    7.2137: real time    7.2167
    ORTHCH:  cpu time    0.0567: real time    0.0567
       DOS:  cpu time    0.0004: real time    0.0004
    CHARGE:  cpu time    0.6757: real time    0.6760
    MIXING:  cpu time    0.0265: real time    0.0265
    --------------------------------------------
      LOOP:  cpu time   10.2758: real time   10.2801

 eigenvalue-minimisations  :   429
 total energy-change (2. order) : 0.1293006E-01  (-0.7510706E-02)
 number of electron     153.0000002 magnetization       1.0000000
 augmentation part       92.3893728 magnetization       0.0843339

 Broyden mixing:
  rms(total) = 0.37580E-01    rms(broyden)= 0.37576E-01
  rms(prec ) = 0.49306E-01
  weight for this iteration     100.00

 eigenvalues of (default mixing * dielectric matrix)
  average eigenvalue GAMMA=   1.0398
  2.1527  1.4451  0.7652  0.7652  0.6276  0.4832

 Free energy of the ion-electron system (eV)
  ---------------------------------------------------
  alpha Z        PSCENC =        41.16232785
  Ewald energy   TEWEN  =     16313.92864016
  -Hartree energ DENC   =    -33272.76729881
  -exchange      EXHF   =         0.00000000
  -V(xc)+E(xc)   XCENC  =       615.26015038
  PAW double counting   =     17644.61023884   -19043.24793545
  entropy T*S    EENTRO =         0.00934622
  eigenvalues    EBANDS =     -1010.05780949
  atomic energy  EATOM  =     18662.21924712
  Solvation  Ediel_sol  =         0.00000000
  ---------------------------------------------------
  free energy    TOTEN  =       -48.88309319 eV

  energy without entropy =      -48.89243941  energy(sigma->0) =      -48.88620859


--------------------------------------------------------------------------------------------------------




--------------------------------------- Iteration      1(  12)  ---------------------------------------


    POTLOK:  cpu time    1.1714: real time    1.1738
    SETDIJ:  cpu time    0.0183: real time    0.0182
    EDDIAG:  cpu time    1.1138: real time    1.1145
  RMM-DIIS:  cpu time    7.7729: real time    7.7758
    ORTHCH:  cpu time    0.0567: real time    0.0567
       DOS:  cpu time    0.0005: real time    0.0005
    CHARGE:  cpu time    0.6745: real time    0.6751
    MIXING:  cpu time    0.0274: real time    0.0274
    --------------------------------------------
      LOOP:  cpu time   10.8354: real time   10.8421

 eigenvalue-minimisations  :   425
 total energy-change (2. order) : 0.2008348E-02  (-0.1856156E-02)
 number of electron     153.0000002 magnetization       1.0000000
 augmentation part       92.3899233 magnetization       0.0834417

 Broyden mixing:
  rms(total) = 0.19372E-01    rms(broyden)= 0.19371E-01
  rms(prec ) = 0.30989E-01
  weight for this iteration     100.00

 eigenvalues of (default mixing * dielectric matrix)
  average eigenvalue GAMMA=   1.0898
  2.3683  1.7481  1.0724  0.7104  0.7104  0.5544  0.4644

 Free energy of the ion-electron system (eV)
  ---------------------------------------------------
  alpha Z        PSCENC =        41.16232785
  Ewald energy   TEWEN  =     16313.92864016
  -Hartree energ DENC   =    -33275.69732996
  -exchange      EXHF   =         0.00000000
  -V(xc)+E(xc)   XCENC  =       615.29842698
  PAW double counting   =     17651.75577477   -19050.70159971
  entropy T*S    EENTRO =         0.00931784
  eigenvalues    EBANDS =     -1006.85588989
  atomic energy  EATOM  =     18662.21924712
  Solvation  Ediel_sol  =         0.00000000
  ---------------------------------------------------
  free energy    TOTEN  =       -48.88108484 eV

  energy without entropy =      -48.89040268  energy(sigma->0) =      -48.88419079


--------------------------------------------------------------------------------------------------------




--------------------------------------- Iteration      1(  13)  ---------------------------------------


    POTLOK:  cpu time    1.1720: real time    1.1748
    SETDIJ:  cpu time    0.0175: real time    0.0175
    EDDIAG:  cpu time    1.1136: real time    1.1141
  RMM-DIIS:  cpu time    7.0116: real time    7.0146
    ORTHCH:  cpu time    0.0562: real time    0.0562
       DOS:  cpu time    0.0004: real time    0.0004
    CHARGE:  cpu time    0.6770: real time    0.6770
    MIXING:  cpu time    0.0281: real time    0.0281
    --------------------------------------------
      LOOP:  cpu time   10.0765: real time   10.0827

 eigenvalue-minimisations  :   419
 total energy-change (2. order) : 0.1173888E-02  (-0.5536811E-03)
 number of electron     153.0000002 magnetization       1.0000000
 augmentation part       92.4011914 magnetization       0.0836352

 Broyden mixing:
  rms(total) = 0.91611E-02    rms(broyden)= 0.91607E-02
  rms(prec ) = 0.19060E-01
  weight for this iteration     100.00

 eigenvalues of (default mixing * dielectric matrix)
  average eigenvalue GAMMA=   1.1233
  2.4270  1.9114  1.3862  0.7529  0.7529  0.7766  0.5268  0.4526

 Free energy of the ion-electron system (eV)
  ---------------------------------------------------
  alpha Z        PSCENC =        41.16232785
  Ewald energy   TEWEN  =     16313.92864016
  -Hartree energ DENC   =    -33279.91843145
  -exchange      EXHF   =         0.00000000
  -V(xc)+E(xc)   XCENC  =       615.31983691
  PAW double counting   =     17655.91460346   -19054.91335223
  entropy T*S    EENTRO =         0.00933261
  eigenvalues    EBANDS =     -1002.60211540
  atomic energy  EATOM  =     18662.21924712
  Solvation  Ediel_sol  =         0.00000000
  ---------------------------------------------------
  free energy    TOTEN  =       -48.87991095 eV

  energy without entropy =      -48.88924357  energy(sigma->0) =      -48.88302182


--------------------------------------------------------------------------------------------------------




--------------------------------------- Iteration      1(  14)  ---------------------------------------


    POTLOK:  cpu time    1.1707: real time    1.1728
    SETDIJ:  cpu time    0.0177: real time    0.0177
    EDDIAG:  cpu time    1.1139: real time    1.1144
  RMM-DIIS:  cpu time    7.0432: real time    7.0469
    ORTHCH:  cpu time    0.0562: real time    0.0562
       DOS:  cpu time    0.0004: real time    0.0004
    CHARGE:  cpu time    0.6754: real time    0.6759
    MIXING:  cpu time    0.0289: real time    0.0289
    --------------------------------------------
      LOOP:  cpu time   10.1063: real time   10.1130

 eigenvalue-minimisations  :   410
 total energy-change (2. order) :-0.1161923E-02  (-0.3342311E-03)
 number of electron     153.0000002 magnetization       1.0000000
 augmentation part       92.4116356 magnetization       0.0837673

 Broyden mixing:
  rms(total) = 0.10894E-01    rms(broyden)= 0.10893E-01
  rms(prec ) = 0.16643E-01
  weight for this iteration     100.00

 eigenvalues of (default mixing * dielectric matrix)
  average eigenvalue GAMMA=   1.1505
  2.4057  2.4057  1.3186  1.0797  0.7435  0.7435  0.6987  0.5028  0.4561

 Free energy of the ion-electron system (eV)
  ---------------------------------------------------
  alpha Z        PSCENC =        41.16232785
  Ewald energy   TEWEN  =     16313.92864016
  -Hartree energ DENC   =    -33284.80925213
  -exchange      EXHF   =         0.00000000
  -V(xc)+E(xc)   XCENC  =       615.35022157
  PAW double counting   =     17649.42184432   -19048.12192862
  entropy T*S    EENTRO =         0.00932891
  eigenvalues    EBANDS =      -998.04150206
  atomic energy  EATOM  =     18662.21924712
  Solvation  Ediel_sol  =         0.00000000
  ---------------------------------------------------
  free energy    TOTEN  =       -48.88107287 eV

  energy without entropy =      -48.89040178  energy(sigma->0) =      -48.88418251


--------------------------------------------------------------------------------------------------------




--------------------------------------- Iteration      1(  15)  ---------------------------------------


    POTLOK:  cpu time    1.1718: real time    1.1741
    SETDIJ:  cpu time    0.0176: real time    0.0176
    EDDIAG:  cpu time    1.1127: real time    1.1131
  RMM-DIIS:  cpu time    7.0389: real time    7.0418
    ORTHCH:  cpu time    0.0565: real time    0.0565
       DOS:  cpu time    0.0004: real time    0.0004
    CHARGE:  cpu time    0.6750: real time    0.6755
    MIXING:  cpu time    0.0296: real time    0.0296
    --------------------------------------------
      LOOP:  cpu time   10.1024: real time   10.1087

 eigenvalue-minimisations  :   402
 total energy-change (2. order) :-0.1226965E-02  (-0.1437345E-03)
 number of electron     153.0000002 magnetization       1.0000000
 augmentation part       92.4066257 magnetization       0.0840044

 Broyden mixing:
  rms(total) = 0.56707E-02    rms(broyden)= 0.56705E-02
  rms(prec ) = 0.99207E-02
  weight for this iteration     100.00

 eigenvalues of (default mixing * dielectric matrix)
  average eigenvalue GAMMA=   1.2035
  2.7153  2.7153  1.3964  1.3964  0.7908  0.7429  0.7429  0.5862  0.4569  0.4913

 Free energy of the ion-electron system (eV)
  ---------------------------------------------------
  alpha Z        PSCENC =        41.16232785
  Ewald energy   TEWEN  =     16313.92864016
  -Hartree energ DENC   =    -33288.31469674
  -exchange      EXHF   =         0.00000000
  -V(xc)+E(xc)   XCENC  =       615.38554188
  PAW double counting   =     17643.83868934   -19042.41444214
  entropy T*S    EENTRO =         0.00933189
  eigenvalues    EBANDS =      -994.69693920
  atomic energy  EATOM  =     18662.21924712
  Solvation  Ediel_sol  =         0.00000000
  ---------------------------------------------------
  free energy    TOTEN  =       -48.88229984 eV

  energy without entropy =      -48.89163173  energy(sigma->0) =      -48.88541047


--------------------------------------------------------------------------------------------------------




--------------------------------------- Iteration      1(  16)  ---------------------------------------


    POTLOK:  cpu time    1.1701: real time    1.1722
    SETDIJ:  cpu time    0.0180: real time    0.0179
    EDDIAG:  cpu time    1.1134: real time    1.1139
  RMM-DIIS:  cpu time    6.3908: real time    6.3938
    ORTHCH:  cpu time    0.0563: real time    0.0563
       DOS:  cpu time    0.0005: real time    0.0005
    CHARGE:  cpu time    0.6718: real time    0.6717
    MIXING:  cpu time    0.0305: real time    0.0305
    --------------------------------------------
      LOOP:  cpu time    9.4513: real time    9.4568

 eigenvalue-minimisations  :   393
 total energy-change (2. order) :-0.1531288E-02  (-0.9860841E-04)
 number of electron     153.0000002 magnetization       1.0000000
 augmentation part       92.3999756 magnetization       0.0840616

 Broyden mixing:
  rms(total) = 0.52046E-02    rms(broyden)= 0.52041E-02
  rms(prec ) = 0.75716E-02
  weight for this iteration     100.00

 eigenvalues of (default mixing * dielectric matrix)
  average eigenvalue GAMMA=   1.2372
  3.2560  2.6282  1.5343  1.5343  0.9371  0.7538  0.7538  0.7324  0.4534  0.5129
  0.5129

 Free energy of the ion-electron system (eV)
  ---------------------------------------------------
  alpha Z        PSCENC =        41.16232785
  Ewald energy   TEWEN  =     16313.92864016
  -Hartree energ DENC   =    -33291.04627126
  -exchange      EXHF   =         0.00000000
  -V(xc)+E(xc)   XCENC  =       615.41336606
  PAW double counting   =     17640.02506659   -19038.56150756
  entropy T*S    EENTRO =         0.00933553
  eigenvalues    EBANDS =      -992.03403561
  atomic energy  EATOM  =     18662.21924712
  Solvation  Ediel_sol  =         0.00000000
  ---------------------------------------------------
  free energy    TOTEN  =       -48.88383113 eV

  energy without entropy =      -48.89316666  energy(sigma->0) =      -48.88694297


--------------------------------------------------------------------------------------------------------




--------------------------------------- Iteration      1(  17)  ---------------------------------------


    POTLOK:  cpu time    1.1706: real time    1.1715
    SETDIJ:  cpu time    0.0178: real time    0.0178
    EDDIAG:  cpu time    1.1129: real time    1.1133
  RMM-DIIS:  cpu time    6.9889: real time    6.9916
    ORTHCH:  cpu time    0.0560: real time    0.0560
       DOS:  cpu time    0.0004: real time    0.0004
    CHARGE:  cpu time    0.6750: real time    0.6752
    MIXING:  cpu time    0.0313: real time    0.0313
    --------------------------------------------
      LOOP:  cpu time   10.0531: real time   10.0572

 eigenvalue-minimisations  :   391
 total energy-change (2. order) :-0.1677555E-02  (-0.4874338E-04)
 number of electron     153.0000002 magnetization       1.0000000
 augmentation part       92.4017162 magnetization       0.0839495

 Broyden mixing:
  rms(total) = 0.21624E-02    rms(broyden)= 0.21624E-02
  rms(prec ) = 0.37756E-02
  weight for this iteration     100.00

 eigenvalues of (default mixing * dielectric matrix)
  average eigenvalue GAMMA=   1.3437
  4.4028  2.5799  2.0767  1.4239  1.2043  0.7658  0.7658  0.7702  0.6722  0.4542
  0.5210  0.4877

 Free energy of the ion-electron system (eV)
  ---------------------------------------------------
  alpha Z        PSCENC =        41.16232785
  Ewald energy   TEWEN  =     16313.92864016
  -Hartree energ DENC   =    -33292.86860225
  -exchange      EXHF   =         0.00000000
  -V(xc)+E(xc)   XCENC  =       615.42143782
  PAW double counting   =     17638.25064848   -19036.76235019
  entropy T*S    EENTRO =         0.00933671
  eigenvalues    EBANDS =      -990.24619438
  atomic energy  EATOM  =     18662.21924712
  Solvation  Ediel_sol  =         0.00000000
  ---------------------------------------------------
  free energy    TOTEN  =       -48.88550868 eV

  energy without entropy =      -48.89484539  energy(sigma->0) =      -48.88862092


--------------------------------------------------------------------------------------------------------




--------------------------------------- Iteration      1(  18)  ---------------------------------------


    POTLOK:  cpu time    1.1714: real time    1.1732
    SETDIJ:  cpu time    0.0179: real time    0.0179
    EDDIAG:  cpu time    1.1132: real time    1.1135
  RMM-DIIS:  cpu time    7.0656: real time    7.0685
    ORTHCH:  cpu time    0.0565: real time    0.0565
       DOS:  cpu time    0.0004: real time    0.0004
    CHARGE:  cpu time    0.6764: real time    0.6771
    MIXING:  cpu time    0.0328: real time    0.0328
    --------------------------------------------
      LOOP:  cpu time   10.1341: real time   10.1399

 eigenvalue-minimisations  :   429
 total energy-change (2. order) :-0.8635270E-03  (-0.2001055E-04)
 number of electron     153.0000002 magnetization       1.0000000
 augmentation part       92.4010307 magnetization       0.0840480

 Broyden mixing:
  rms(total) = 0.13757E-02    rms(broyden)= 0.13757E-02
  rms(prec ) = 0.25613E-02
  weight for this iteration     100.00

 eigenvalues of (default mixing * dielectric matrix)
  average eigenvalue GAMMA=   1.3815
  5.1318  2.6641  2.2190  1.3507  1.3507  0.8487  0.8487  0.7421  0.7421  0.6082
  0.4547  0.5129  0.4855

 Free energy of the ion-electron system (eV)
  ---------------------------------------------------
  alpha Z        PSCENC =        41.16232785
  Ewald energy   TEWEN  =     16313.92864016
  -Hartree energ DENC   =    -33293.79683977
  -exchange      EXHF   =         0.00000000
  -V(xc)+E(xc)   XCENC  =       615.42387500
  PAW double counting   =     17638.15259579   -19036.68064801
  entropy T*S    EENTRO =         0.00933690
  eigenvalues    EBANDS =      -989.30490725
  atomic energy  EATOM  =     18662.21924712
  Solvation  Ediel_sol  =         0.00000000
  ---------------------------------------------------
  free energy    TOTEN  =       -48.88637221 eV

  energy without entropy =      -48.89570910  energy(sigma->0) =      -48.88948451


--------------------------------------------------------------------------------------------------------




--------------------------------------- Iteration      1(  19)  ---------------------------------------


    POTLOK:  cpu time    1.1717: real time    1.1728
    SETDIJ:  cpu time    0.0176: real time    0.0176
    EDDIAG:  cpu time    1.1126: real time    1.1131
  RMM-DIIS:  cpu time    7.2048: real time    7.2077
    ORTHCH:  cpu time    0.0566: real time    0.0566
       DOS:  cpu time    0.0005: real time    0.0005
    CHARGE:  cpu time    0.6762: real time    0.6765
    MIXING:  cpu time    0.0343: real time    0.0343
    --------------------------------------------
      LOOP:  cpu time   10.2743: real time   10.2792

 eigenvalue-minimisations  :   434
 total energy-change (2. order) :-0.7557745E-03  (-0.1125246E-04)
 number of electron     153.0000002 magnetization       1.0000000
 augmentation part       92.4014482 magnetization       0.0841277

 Broyden mixing:
  rms(total) = 0.11555E-02    rms(broyden)= 0.11555E-02
  rms(prec ) = 0.19043E-02
  weight for this iteration     100.00

 eigenvalues of (default mixing * dielectric matrix)
  average eigenvalue GAMMA=   1.4411
  5.8577  2.7770  2.2213  1.5843  1.5843  1.1226  0.8447  0.7484  0.7484  0.6750
  0.5680  0.4539  0.5062  0.4831

 Free energy of the ion-electron system (eV)
  ---------------------------------------------------
  alpha Z        PSCENC =        41.16232785
  Ewald energy   TEWEN  =     16313.92864016
  -Hartree energ DENC   =    -33294.26384327
  -exchange      EXHF   =         0.00000000
  -V(xc)+E(xc)   XCENC  =       615.42217082
  PAW double counting   =     17638.30724578   -19036.83967295
  entropy T*S    EENTRO =         0.00933627
  eigenvalues    EBANDS =      -988.83257977
  atomic energy  EATOM  =     18662.21924712
  Solvation  Ediel_sol  =         0.00000000
  ---------------------------------------------------
  free energy    TOTEN  =       -48.88712798 eV

  energy without entropy =      -48.89646425  energy(sigma->0) =      -48.89024007


--------------------------------------------------------------------------------------------------------




--------------------------------------- Iteration      1(  20)  ---------------------------------------


    POTLOK:  cpu time    1.1715: real time    1.1749
    SETDIJ:  cpu time    0.0177: real time    0.0177
    EDDIAG:  cpu time    1.1120: real time    1.1125
  RMM-DIIS:  cpu time    6.6578: real time    6.6607
    ORTHCH:  cpu time    0.0564: real time    0.0564
       DOS:  cpu time    0.0005: real time    0.0005
    CHARGE:  cpu time    0.6771: real time    0.6775
    MIXING:  cpu time    0.0353: real time    0.0353
    --------------------------------------------
      LOOP:  cpu time    9.7284: real time    9.7356

 eigenvalue-minimisations  :   404
 total energy-change (2. order) :-0.5049691E-03  (-0.4110381E-05)
 number of electron     153.0000002 magnetization       1.0000000
 augmentation part       92.4016850 magnetization       0.0840889

 Broyden mixing:
  rms(total) = 0.67207E-03    rms(broyden)= 0.67206E-03
  rms(prec ) = 0.12038E-02
  weight for this iteration     100.00

 eigenvalues of (default mixing * dielectric matrix)
  average eigenvalue GAMMA=   1.4585
  6.3422  2.8435  2.2939  1.9738  1.3193  1.3193  0.8492  0.8492  0.7408  0.7408
  0.6318  0.4541  0.5192  0.5192  0.4812

 Free energy of the ion-electron system (eV)
  ---------------------------------------------------
  alpha Z        PSCENC =        41.16232785
  Ewald energy   TEWEN  =     16313.92864016
  -Hartree energ DENC   =    -33294.41049767
  -exchange      EXHF   =         0.00000000
  -V(xc)+E(xc)   XCENC  =       615.42107220
  PAW double counting   =     17638.55961394   -19037.09737940
  entropy T*S    EENTRO =         0.00933581
  eigenvalues    EBANDS =      -988.67999296
  atomic energy  EATOM  =     18662.21924712
  Solvation  Ediel_sol  =         0.00000000
  ---------------------------------------------------
  free energy    TOTEN  =       -48.88763295 eV

  energy without entropy =      -48.89696876  energy(sigma->0) =      -48.89074489


--------------------------------------------------------------------------------------------------------




--------------------------------------- Iteration      1(  21)  ---------------------------------------


    POTLOK:  cpu time    1.1694: real time    1.1697
    SETDIJ:  cpu time    0.0181: real time    0.0181
    EDDIAG:  cpu time    1.1131: real time    1.1140
  RMM-DIIS:  cpu time    6.9113: real time    6.9140
    ORTHCH:  cpu time    0.0572: real time    0.0572
       DOS:  cpu time    0.0005: real time    0.0005
    CHARGE:  cpu time    0.6726: real time    0.6728
    MIXING:  cpu time    0.0370: real time    0.0370
    --------------------------------------------
      LOOP:  cpu time    9.9792: real time    9.9833

 eigenvalue-minimisations  :   401
 total energy-change (2. order) :-0.3820536E-03  (-0.2762852E-05)
 number of electron     153.0000002 magnetization       1.0000000
 augmentation part       92.4024308 magnetization       0.0840520

 Broyden mixing:
  rms(total) = 0.58523E-03    rms(broyden)= 0.58521E-03
  rms(prec ) = 0.91631E-03
  weight for this iteration     100.00

 eigenvalues of (default mixing * dielectric matrix)
  average eigenvalue GAMMA=   1.5074
  6.6590  3.2507  2.4594  2.1906  1.4283  1.4283  0.9490  0.9490  0.7496  0.7496
  0.7058  0.6290  0.4542  0.5174  0.5174  0.4813

 Free energy of the ion-electron system (eV)
  ---------------------------------------------------
  alpha Z        PSCENC =        41.16232785
  Ewald energy   TEWEN  =     16313.92864016
  -Hartree energ DENC   =    -33294.39948449
  -exchange      EXHF   =         0.00000000
  -V(xc)+E(xc)   XCENC  =       615.41979358
  PAW double counting   =     17638.72389786   -19037.25966608
  entropy T*S    EENTRO =         0.00933536
  eigenvalues    EBANDS =      -988.69210636
  atomic energy  EATOM  =     18662.21924712
  Solvation  Ediel_sol  =         0.00000000
  ---------------------------------------------------
  free energy    TOTEN  =       -48.88801501 eV

  energy without entropy =      -48.89735037  energy(sigma->0) =      -48.89112679


--------------------------------------------------------------------------------------------------------




--------------------------------------- Iteration      1(  22)  ---------------------------------------


    POTLOK:  cpu time    1.1722: real time    1.1753
    SETDIJ:  cpu time    0.0180: real time    0.0180
    EDDIAG:  cpu time    1.1125: real time    1.1133
  RMM-DIIS:  cpu time    6.8857: real time    6.8882
    ORTHCH:  cpu time    0.0575: real time    0.0575
       DOS:  cpu time    0.0004: real time    0.0004
    CHARGE:  cpu time    0.6757: real time    0.6759
    MIXING:  cpu time    0.0394: real time    0.0394
    --------------------------------------------
      LOOP:  cpu time    9.9613: real time    9.9679

 eigenvalue-minimisations  :   404
 total energy-change (2. order) :-0.2665332E-03  (-0.2078511E-05)
 number of electron     153.0000002 magnetization       1.0000000
 augmentation part       92.4019565 magnetization       0.0840461

 Broyden mixing:
  rms(total) = 0.35169E-03    rms(broyden)= 0.35165E-03
  rms(prec ) = 0.58408E-03
  weight for this iteration     100.00

 eigenvalues of (default mixing * dielectric matrix)
  average eigenvalue GAMMA=   1.5593
  7.1204  4.0334  2.5218  2.0995  1.6623  1.3149  1.3149  0.8599  0.8599  0.7531
  0.7531  0.6629  0.5830  0.4540  0.4804  0.5222  0.5123

 Free energy of the ion-electron system (eV)
  ---------------------------------------------------
  alpha Z        PSCENC =        41.16232785
  Ewald energy   TEWEN  =     16313.92864016
  -Hartree energ DENC   =    -33294.48764407
  -exchange      EXHF   =         0.00000000
  -V(xc)+E(xc)   XCENC  =       615.41948277
  PAW double counting   =     17638.94693750   -19037.48881300
  entropy T*S    EENTRO =         0.00933594
  eigenvalues    EBANDS =      -988.59779581
  atomic energy  EATOM  =     18662.21924712
  Solvation  Ediel_sol  =         0.00000000
  ---------------------------------------------------
  free energy    TOTEN  =       -48.88828154 eV

  energy without entropy =      -48.89761748  energy(sigma->0) =      -48.89139352


--------------------------------------------------------------------------------------------------------




--------------------------------------- Iteration      1(  23)  ---------------------------------------


    POTLOK:  cpu time    1.1739: real time    1.1749
    SETDIJ:  cpu time    0.0169: real time    0.0169
    EDDIAG:  cpu time    1.1155: real time    1.1158
  RMM-DIIS:  cpu time    6.8649: real time    6.8673
    ORTHCH:  cpu time    0.0577: real time    0.0578
       DOS:  cpu time    0.0004: real time    0.0004
    CHARGE:  cpu time    0.6753: real time    0.6755
    MIXING:  cpu time    0.0417: real time    0.0417
    --------------------------------------------
      LOOP:  cpu time    9.9462: real time    9.9504

 eigenvalue-minimisations  :   417
 total energy-change (2. order) :-0.1143064E-03  (-0.6799633E-06)
 number of electron     153.0000002 magnetization       1.0000000
 augmentation part       92.4016610 magnetization       0.0840541

 Broyden mixing:
  rms(total) = 0.20788E-03    rms(broyden)= 0.20787E-03
  rms(prec ) = 0.34222E-03
  weight for this iteration     100.00

 eigenvalues of (default mixing * dielectric matrix)
  average eigenvalue GAMMA=   1.5736
  7.4216  4.3055  2.4908  2.1927  1.8569  1.3363  1.3363  0.9644  0.9644  0.7575
  0.7575  0.7410  0.6662  0.5760  0.4540  0.4797  0.5117  0.5117

 Free energy of the ion-electron system (eV)
  ---------------------------------------------------
  alpha Z        PSCENC =        41.16232785
  Ewald energy   TEWEN  =     16313.92864016
  -Hartree energ DENC   =    -33294.55880660
  -exchange      EXHF   =         0.00000000
  -V(xc)+E(xc)   XCENC  =       615.41943069
  PAW double counting   =     17638.97067540   -19037.51409272
  entropy T*S    EENTRO =         0.00933591
  eigenvalues    EBANDS =      -988.52515366
  atomic energy  EATOM  =     18662.21924712
  Solvation  Ediel_sol  =         0.00000000
  ---------------------------------------------------
  free energy    TOTEN  =       -48.88839584 eV

  energy without entropy =      -48.89773176  energy(sigma->0) =      -48.89150782


--------------------------------------------------------------------------------------------------------




--------------------------------------- Iteration      1(  24)  ---------------------------------------


    POTLOK:  cpu time    1.1700: real time    1.1751
    SETDIJ:  cpu time    0.0180: real time    0.0180
    EDDIAG:  cpu time    1.1114: real time    1.1118
  RMM-DIIS:  cpu time    6.5705: real time    6.5732
    ORTHCH:  cpu time    0.0558: real time    0.0558
       DOS:  cpu time    0.0004: real time    0.0004
    CHARGE:  cpu time    0.6740: real time    0.6744
    MIXING:  cpu time    0.0438: real time    0.0438
    --------------------------------------------
      LOOP:  cpu time    9.6440: real time    9.6526

 eigenvalue-minimisations  :   392
 total energy-change (2. order) :-0.1082311E-03  (-0.7817182E-06)
 number of electron     153.0000002 magnetization       1.0000000
 augmentation part       92.4015941 magnetization       0.0840499

 Broyden mixing:
  rms(total) = 0.15933E-03    rms(broyden)= 0.15932E-03
  rms(prec ) = 0.24484E-03
  weight for this iteration     100.00

 eigenvalues of (default mixing * dielectric matrix)
  average eigenvalue GAMMA=   1.6015
  7.7561  4.6321  2.4939  2.4939  1.8410  1.4970  1.4970  0.9869  0.9869  0.7659
  0.7659  0.8063  0.7476  0.6217  0.5734  0.4540  0.4797  0.5145  0.5145

 Free energy of the ion-electron system (eV)
  ---------------------------------------------------
  alpha Z        PSCENC =        41.16232785
  Ewald energy   TEWEN  =     16313.92864016
  -Hartree energ DENC   =    -33294.57907463
  -exchange      EXHF   =         0.00000000
  -V(xc)+E(xc)   XCENC  =       615.41964411
  PAW double counting   =     17638.86369765   -19037.40542757
  entropy T*S    EENTRO =         0.00933595
  eigenvalues    EBANDS =      -988.50689471
  atomic energy  EATOM  =     18662.21924712
  Solvation  Ediel_sol  =         0.00000000
  ---------------------------------------------------
  free energy    TOTEN  =       -48.88850408 eV

  energy without entropy =      -48.89784002  energy(sigma->0) =      -48.89161606


--------------------------------------------------------------------------------------------------------




--------------------------------------- Iteration      1(  25)  ---------------------------------------


    POTLOK:  cpu time    1.1728: real time    1.1732
    SETDIJ:  cpu time    0.0180: real time    0.0180
    EDDIAG:  cpu time    1.1106: real time    1.1112
  RMM-DIIS:  cpu time    6.6300: real time    6.6328
    ORTHCH:  cpu time    0.0558: real time    0.0558
       DOS:  cpu time    0.0004: real time    0.0004
    CHARGE:  cpu time    0.6738: real time    0.6741
    MIXING:  cpu time    0.0462: real time    0.0462
    --------------------------------------------
      LOOP:  cpu time    9.7074: real time    9.7116

 eigenvalue-minimisations  :   391
 total energy-change (2. order) :-0.5826932E-04  (-0.5042255E-06)
 number of electron     153.0000002 magnetization       1.0000000
 augmentation part       92.4017908 magnetization       0.0840472

 Broyden mixing:
  rms(total) = 0.11321E-03    rms(broyden)= 0.11319E-03
  rms(prec ) = 0.16582E-03
  weight for this iteration     100.00

 eigenvalues of (default mixing * dielectric matrix)
  average eigenvalue GAMMA=   1.6391
  7.9572  5.0855  2.6569  2.6569  1.8639  1.8639  1.3121  1.3121  0.9729  0.9729
  0.7597  0.7597  0.7235  0.7235  0.6306  0.4540  0.5688  0.4795  0.5146  0.5146

 Free energy of the ion-electron system (eV)
  ---------------------------------------------------
  alpha Z        PSCENC =        41.16232785
  Ewald energy   TEWEN  =     16313.92864016
  -Hartree energ DENC   =    -33294.56765994
  -exchange      EXHF   =         0.00000000
  -V(xc)+E(xc)   XCENC  =       615.41943319
  PAW double counting   =     17638.76189977   -19037.29958896
  entropy T*S    EENTRO =         0.00933587
  eigenvalues    EBANDS =      -988.52219740
  atomic energy  EATOM  =     18662.21924712
  Solvation  Ediel_sol  =         0.00000000
  ---------------------------------------------------
  free energy    TOTEN  =       -48.88856235 eV

  energy without entropy =      -48.89789822  energy(sigma->0) =      -48.89167430


--------------------------------------------------------------------------------------------------------




--------------------------------------- Iteration      1(  26)  ---------------------------------------


    POTLOK:  cpu time    1.1711: real time    1.1716
    SETDIJ:  cpu time    0.0178: real time    0.0178
    EDDIAG:  cpu time    1.1104: real time    1.1108
  RMM-DIIS:  cpu time    6.4151: real time    6.4175
    ORTHCH:  cpu time    0.0551: real time    0.0553
       DOS:  cpu time    0.0004: real time    0.0004
    CHARGE:  cpu time    0.6733: real time    0.6733
    MIXING:  cpu time    0.0492: real time    0.0492
    --------------------------------------------
      LOOP:  cpu time    9.4923: real time    9.4958

 eigenvalue-minimisations  :   374
 total energy-change (2. order) :-0.2766787E-04  (-0.2565471E-06)
 number of electron     153.0000002 magnetization       1.0000000
 augmentation part       92.4019688 magnetization       0.0840476

 Broyden mixing:
  rms(total) = 0.74704E-04    rms(broyden)= 0.74700E-04
  rms(prec ) = 0.10531E-03
  weight for this iteration     100.00

 eigenvalues of (default mixing * dielectric matrix)
  average eigenvalue GAMMA=   1.6497
  8.1386  5.4347  3.0845  2.5250  1.9318  1.9318  1.3690  1.3690  0.9904  0.9904
  0.8055  0.8055  0.7381  0.7381  0.6320  0.6320  0.4540  0.5664  0.4796  0.5135
  0.5135

 Free energy of the ion-electron system (eV)
  ---------------------------------------------------
  alpha Z        PSCENC =        41.16232785
  Ewald energy   TEWEN  =     16313.92864016
  -Hartree energ DENC   =    -33294.56215755
  -exchange      EXHF   =         0.00000000
  -V(xc)+E(xc)   XCENC  =       615.41915292
  PAW double counting   =     17638.73546971   -19037.27112344
  entropy T*S    EENTRO =         0.00933591
  eigenvalues    EBANDS =      -988.52948269
  atomic energy  EATOM  =     18662.21924712
  Solvation  Ediel_sol  =         0.00000000
  ---------------------------------------------------
  free energy    TOTEN  =       -48.88859001 eV

  energy without entropy =      -48.89792592  energy(sigma->0) =      -48.89170198


--------------------------------------------------------------------------------------------------------




--------------------------------------- Iteration      1(  27)  ---------------------------------------


    POTLOK:  cpu time    1.1694: real time    1.1711
    SETDIJ:  cpu time    0.0179: real time    0.0179
    EDDIAG:  cpu time    1.1122: real time    1.1127
  RMM-DIIS:  cpu time    4.9475: real time    4.9496
    ORTHCH:  cpu time    0.0553: real time    0.0553
       DOS:  cpu time    0.0004: real time    0.0004
    CHARGE:  cpu time    0.6734: real time    0.6736
    MIXING:  cpu time    0.0523: real time    0.0523
    --------------------------------------------
      LOOP:  cpu time    8.0284: real time    8.0329

 eigenvalue-minimisations  :   280
 total energy-change (2. order) :-0.1165174E-04  (-0.1040382E-06)
 number of electron     153.0000002 magnetization       1.0000000
 augmentation part       92.4018237 magnetization       0.0840404

 Broyden mixing:
  rms(total) = 0.50703E-04    rms(broyden)= 0.50700E-04
  rms(prec ) = 0.74320E-04
  weight for this iteration     100.00

 eigenvalues of (default mixing * dielectric matrix)
  average eigenvalue GAMMA=   1.6523
  8.1852  5.7395  3.2526  2.4919  2.1465  1.8524  1.3961  1.3961  1.1281  0.9807
  0.9807  0.7584  0.7584  0.7632  0.7632  0.4540  0.4797  0.5136  0.5136  0.6212
  0.5970  0.5784

 Free energy of the ion-electron system (eV)
  ---------------------------------------------------
  alpha Z        PSCENC =        41.16232785
  Ewald energy   TEWEN  =     16313.92864016
  -Hartree energ DENC   =    -33294.56799762
  -exchange      EXHF   =         0.00000000
  -V(xc)+E(xc)   XCENC  =       615.41927601
  PAW double counting   =     17638.73824761   -19037.27523848
  entropy T*S    EENTRO =         0.00933590
  eigenvalues    EBANDS =      -988.52244022
  atomic energy  EATOM  =     18662.21924712
  Solvation  Ediel_sol  =         0.00000000
  ---------------------------------------------------
  free energy    TOTEN  =       -48.88860166 eV

  energy without entropy =      -48.89793757  energy(sigma->0) =      -48.89171363


--------------------------------------------------------------------------------------------------------




--------------------------------------- Iteration      1(  28)  ---------------------------------------


    POTLOK:  cpu time    1.1694: real time    1.1716
    SETDIJ:  cpu time    0.0177: real time    0.0177
    EDDIAG:  cpu time    1.1101: real time    1.1107
  RMM-DIIS:  cpu time    4.2406: real time    4.2438
    ORTHCH:  cpu time    0.0551: real time    0.0551
       DOS:  cpu time    0.0004: real time    0.0004
    CHARGE:  cpu time    0.6711: real time    0.6711
[...]
     66      -4.9076      1.00000
     67      -4.8842      1.00000
     68      -4.8812      1.00000
     69      -4.8495      1.00000
     70      -4.8238      1.00000
     71      -4.7861      1.00000
     72      -4.7673      1.00000
     73      -4.7284      1.00000
     74      -4.5269      1.00000
     75      -4.1904      1.00000
     76      -4.1130      1.00000
     77      -3.5430      1.00000
     78      -3.0211     -0.00000
     79      -2.9093     -0.00000
     80      -2.5174     -0.00000
     81      -2.3925     -0.00000
     82      -1.9103     -0.00000
     83      -1.8843     -0.00000
     84      -1.7372     -0.00000
     85      -1.4877     -0.00000
     86      -1.0864     -0.00000
     87      -0.9202     -0.00000
     88      -0.6996      0.00000
     89      -0.3853      0.00000
     90      -0.2402      0.00000
     91      -0.0795      0.00000
     92       0.0980      0.00000

 spin component 2

 k-point     1 :       0.0000    0.0000    0.0000
  band No.  band energies     occupation 
      1     -28.4572      1.00000
      2     -13.8507      1.00000
      3     -11.2515      1.00000
      4     -11.1412      1.00000
      5     -11.0054      1.00000
      6     -10.0794      1.00000
      7      -8.6396      1.00000
      8      -8.0822      1.00000
      9      -7.6367      1.00000
     10      -7.5243      1.00000
     11      -7.3731      1.00000
     12      -7.2539      1.00000
     13      -7.1864      1.00000
     14      -7.0663      1.00000
     15      -7.0260      1.00000
     16      -6.9172      1.00000
     17      -6.8152      1.00000
     18      -6.6864      1.00000
     19      -6.6792      1.00000
     20      -6.5884      1.00000
     21      -6.5499      1.00000
     22      -6.5166      1.00000
     23      -6.4836      1.00000
     24      -6.4393      1.00000
     25      -6.3775      1.00000
     26      -6.3386      1.00000
     27      -6.3053      1.00000
     28      -6.2941      1.00000
     29      -6.2206      1.00000
     30      -6.2048      1.00000
     31      -6.1611      1.00000
     32      -6.1110      1.00000
     33      -6.0413      1.00000
     34      -6.0185      1.00000
     35      -5.8898      1.00000
     36      -5.8283      1.00000
     37      -5.7571      1.00000
     38      -5.6951      1.00000
     39      -5.6539      1.00000
     40      -5.6322      1.00000
     41      -5.5660      1.00000
     42      -5.5222      1.00000
     43      -5.5025      1.00000
     44      -5.4382      1.00000
     45      -5.4017      1.00000
     46      -5.3841      1.00000
     47      -5.3396      1.00000
     48      -5.3361      1.00000
     49      -5.3117      1.00000
     50      -5.2939      1.00000
     51      -5.2681      1.00000
     52      -5.2295      1.00000
     53      -5.2163      1.00000
     54      -5.2023      1.00000
     55      -5.1759      1.00000
     56      -5.1392      1.00000
     57      -5.1236      1.00000
     58      -5.1181      1.00000
     59      -5.0783      1.00000
     60      -5.0508      1.00000
     61      -5.0186      1.00000
     62      -4.9890      1.00000
     63      -4.9751      1.00000
     64      -4.9581      1.00000
     65      -4.9051      1.00000
     66      -4.8851      1.00000
     67      -4.8607      1.00000
     68      -4.8378      1.00000
     69      -4.8145      1.00000
     70      -4.7920      1.00000
     71      -4.7531      1.00000
     72      -4.7391      1.00000
     73      -4.6993      1.00000
     74      -4.4852      1.00000
     75      -4.1287      1.03519
     76      -4.0733      0.96481
     77      -3.3353     -0.00000
     78      -2.9696     -0.00000
     79      -2.8574     -0.00000
     80      -2.4497     -0.00000
     81      -2.2929     -0.00000
     82      -1.8785     -0.00000
     83      -1.8006     -0.00000
     84      -1.6758     -0.00000
     85      -1.3818     -0.00000
     86      -0.9267      0.00000
     87      -0.8679      0.00000
     88      -0.6318      0.00000
     89      -0.2800      0.00000
     90      -0.1838      0.00000
     91      -0.0193      0.00000
     92       0.1457      0.00000


--------------------------------------------------------------------------------------------------------


 soft charge-density along one line, spin component           1
         0         1         2         3         4         5         6         7         8         9
 total charge-density along one line
 
 soft charge-density along one line, spin component           2
         0         1         2         3         4         5         6         7         8         9
 total charge-density along one line
 
 pseudopotential strength for first ion, spin component:           1
-10.465   0.005  -0.013  -0.001  -0.010   0.979  -0.004   0.012
  0.005 -10.442  -0.007   0.005   0.006  -0.004   0.961   0.005
 -0.013  -0.007 -10.428   0.004  -0.009   0.012   0.005   0.949
 -0.001   0.005   0.004 -10.434   0.002   0.001  -0.006  -0.003
 -0.010   0.006  -0.009   0.002 -10.446   0.008  -0.004   0.008
  0.979  -0.004   0.012   0.001   0.008   6.321   0.003  -0.010
 -0.004   0.961   0.005  -0.006  -0.004   0.003   6.331  -0.004
  0.012   0.005   0.949  -0.003   0.008  -0.010  -0.004   6.341
  0.001  -0.006  -0.003   0.953  -0.001  -0.001   0.006   0.002
  0.008  -0.004   0.008  -0.001   0.965  -0.005   0.003  -0.006
 -0.006   0.001  -0.005  -0.001  -0.004   0.005  -0.000  -0.000
 -0.012   0.002  -0.009  -0.002  -0.007   0.009  -0.000  -0.000
 -0.014  -0.000   0.005  -0.000   0.010   0.009   0.000  -0.003
 -0.000  -0.008  -0.000  -0.013  -0.000   0.000   0.004   0.000
 -0.007  -0.000   0.008  -0.000  -0.014   0.003   0.000  -0.006
 -0.015  -0.000   0.005  -0.000   0.011   0.008   0.001  -0.003
 -0.000  -0.008  -0.000  -0.014  -0.000   0.001   0.004   0.000
 -0.006  -0.000   0.009  -0.001  -0.015   0.001   0.001  -0.006
 pseudopotential strength for first ion, spin component:           2
-10.420   0.003  -0.005  -0.009   0.005   0.943  -0.002   0.005
  0.003 -10.428  -0.008   0.004   0.003  -0.002   0.948   0.006
 -0.005  -0.008 -10.413   0.003  -0.005   0.005   0.006   0.937
 -0.009   0.004   0.003 -10.418  -0.001   0.007  -0.004  -0.002
  0.005   0.003  -0.005  -0.001 -10.429  -0.004  -0.003   0.005
  0.943  -0.002   0.005   0.007  -0.004   6.344   0.002  -0.003
 -0.002   0.948   0.006  -0.004  -0.003   0.002   6.338  -0.004
  0.005   0.006   0.937  -0.002   0.005  -0.003  -0.004   6.347
  0.007  -0.004  -0.002   0.940   0.001  -0.004   0.003   0.002
 -0.004  -0.003   0.005   0.001   0.950   0.002   0.002  -0.003
 -0.002   0.002  -0.002  -0.001  -0.002   0.000   0.000  -0.001
 -0.004   0.003  -0.003  -0.002  -0.004   0.001   0.000  -0.002
 -0.015   0.000   0.006   0.000   0.009   0.012  -0.000  -0.005
  0.000  -0.009   0.000  -0.015   0.000  -0.000   0.006  -0.001
 -0.010   0.000   0.009   0.001  -0.015   0.007  -0.000  -0.007
 -0.017   0.000   0.007   0.001   0.010   0.013  -0.001  -0.005
  0.001  -0.010   0.001  -0.016   0.000  -0.000   0.007  -0.001
 -0.012   0.001   0.011   0.001  -0.017   0.007  -0.000  -0.009
 total augmentation occupancy for first ion, spin component:           1
  1.932   0.005  -0.007   0.000  -0.005  -0.014  -0.002   0.006   0.001   0.002  -0.014   0.013   0.037  -0.000   0.029  -0.021
  0.005   1.929  -0.006   0.006  -0.000  -0.002  -0.021   0.005  -0.001  -0.000  -0.003  -0.001   0.002   0.036  -0.002  -0.000
 -0.007  -0.006   1.947   0.003  -0.004   0.006   0.005  -0.028  -0.003   0.003  -0.005   0.009  -0.009  -0.000  -0.019   0.007
  0.000   0.006   0.003   1.937  -0.004   0.000  -0.001  -0.003  -0.022   0.001   0.004   0.002   0.005   0.061  -0.003  -0.000
 -0.005  -0.000  -0.004  -0.004   1.938   0.002  -0.000   0.003   0.001  -0.018  -0.009   0.006  -0.010   0.003   0.033   0.012
 -0.014  -0.002   0.006   0.000   0.002   0.012  -0.000   0.002   0.000   0.001  -0.024  -0.000   0.021   0.000   0.006  -0.001
 -0.002  -0.021   0.005  -0.001  -0.000  -0.000   0.007   0.000   0.001  -0.001   0.010  -0.001   0.001   0.010   0.001  -0.000
  0.006   0.005  -0.028  -0.003   0.003   0.002   0.000   0.006  -0.000   0.001  -0.034   0.004  -0.005  -0.001  -0.007   0.000
  0.001  -0.001  -0.003  -0.022   0.001   0.000   0.001  -0.000   0.008  -0.001  -0.010   0.001  -0.000   0.018  -0.002  -0.000
  0.002  -0.000   0.003   0.001  -0.018   0.001  -0.001   0.001  -0.001   0.011  -0.013   0.000  -0.018  -0.003   0.020   0.001
 -0.014  -0.003  -0.005   0.004  -0.009  -0.024   0.010  -0.034  -0.010  -0.013   1.579  -0.107   0.101  -0.005   0.178  -0.015
  0.013  -0.001   0.009   0.002   0.006  -0.000  -0.001   0.004   0.001   0.000  -0.107   0.012  -0.015   0.001  -0.025   0.001
  0.037   0.002  -0.009   0.005  -0.010   0.021   0.001  -0.005  -0.000  -0.018   0.101  -0.015   0.166   0.006  -0.035  -0.010
 -0.000   0.036  -0.000   0.061   0.003   0.000   0.010  -0.001   0.018  -0.003  -0.005   0.001   0.006   0.077  -0.010  -0.001
  0.029  -0.002  -0.019  -0.003   0.033   0.006   0.001  -0.007  -0.002   0.020   0.178  -0.025  -0.035  -0.010   0.128   0.001
 -0.021  -0.000   0.007  -0.000   0.012  -0.001  -0.000   0.000  -0.000   0.001  -0.015   0.001  -0.010  -0.001   0.001   0.001
  0.000  -0.013   0.000  -0.023   0.000  -0.000  -0.000   0.000  -0.001   0.000   0.001  -0.000  -0.001  -0.005   0.001   0.000
 -0.013   0.000   0.011   0.000  -0.021   0.000  -0.000   0.001   0.000  -0.001  -0.025   0.002   0.001   0.001  -0.009   0.000
 total augmentation occupancy for first ion, spin component:           2
  0.019  -0.002   0.002  -0.005   0.009  -0.003   0.000  -0.002   0.001  -0.002   0.035   0.006  -0.011   0.006  -0.018  -0.001
 -0.002   0.000  -0.000   0.002  -0.001   0.000   0.001   0.000   0.001   0.000  -0.004  -0.001   0.002  -0.003   0.002   0.000
  0.002  -0.000   0.002  -0.001   0.001  -0.002   0.000   0.001   0.000  -0.001   0.004   0.000  -0.000   0.003  -0.000   0.000
 -0.005   0.002  -0.001   0.003  -0.002   0.001   0.001   0.000   0.002   0.000  -0.009  -0.002   0.002  -0.005   0.005   0.000
  0.009  -0.001   0.001  -0.002   0.003  -0.002   0.000  -0.001   0.000   0.001   0.015   0.003  -0.002   0.002  -0.010  -0.000
 -0.003   0.000  -0.002   0.001  -0.002   0.001  -0.000   0.000  -0.000   0.000  -0.008  -0.001   0.002  -0.002   0.004   0.000
  0.000   0.001   0.000   0.001   0.000  -0.000  -0.000   0.000  -0.000  -0.000   0.001   0.000   0.000   0.000  -0.001  -0.000
 -0.002   0.000   0.001   0.000  -0.001   0.000   0.000  -0.000  -0.000   0.000  -0.002  -0.000   0.000  -0.000   0.001   0.000
  0.001   0.001   0.000   0.002   0.000  -0.000  -0.000  -0.000  -0.000  -0.000   0.001   0.000  -0.000   0.000  -0.001  -0.000
 -0.002   0.000  -0.001   0.000   0.001   0.000  -0.000   0.000  -0.000  -0.000  -0.003  -0.000   0.001  -0.001   0.001   0.000
  0.035  -0.004   0.004  -0.009   0.015  -0.008   0.001  -0.002   0.001  -0.003   0.083   0.005  -0.018   0.014  -0.037  -0.000
  0.006  -0.001   0.000  -0.002   0.003  -0.001   0.000  -0.000   0.000  -0.000   0.005   0.000  -0.001   0.001  -0.002  -0.000
 -0.011   0.002  -0.000   0.002  -0.002   0.002   0.000   0.000  -0.000   0.001  -0.018  -0.001   0.003  -0.002   0.006   0.000
  0.006  -0.003   0.003  -0.005   0.002  -0.002   0.000  -0.000   0.000  -0.001   0.014   0.001  -0.002   0.002  -0.005  -0.000
 -0.018   0.002  -0.000   0.005  -0.010   0.004  -0.001   0.001  -0.001   0.001  -0.037  -0.002   0.006  -0.005   0.013   0.000
 -0.001   0.000   0.000   0.000  -0.000   0.000  -0.000   0.000  -0.000   0.000  -0.000  -0.000   0.000  -0.000   0.000   0.000
  0.000  -0.000   0.000  -0.001   0.000   0.000  -0.000  -0.000   0.000  -0.000  -0.000   0.000   0.000   0.000  -0.000  -0.000
 -0.001   0.000   0.000   0.000  -0.001   0.000   0.000   0.000  -0.000   0.000  -0.000  -0.000   0.000  -0.000   0.000   0.000


------------------------ aborting loop because EDIFF is reached ----------------------------------------


    CHARGE:  cpu time    0.6719: real time    0.6722
    FORLOC:  cpu time    0.0654: real time    0.0654
    FORNL :  cpu time    1.5336: real time    1.5338
    STRESS:  cpu time    6.0110: real time    6.0133
    FORCOR:  cpu time    1.1761: real time    1.1764
    FORHAR:  cpu time    0.1918: real time    0.1921
    MIXING:  cpu time    0.1178: real time    0.1178
    OFIELD:  cpu time    0.0001: real time    0.0001

  FORCE on cell =-STRESS in cart. coord.  units (eV):
  Direction    XX          YY          ZZ          XY          YZ          ZX
  --------------------------------------------------------------------------------------
  Alpha Z    41.16233    41.16233    41.16233
  Ewald   10454.68775  7439.29142 -1580.06655  -753.45009   353.67058    84.23135
  Hartree 15547.31644 12925.24023  4822.02072  -699.62030   316.46270    44.34134
  E(xc)    -876.12830  -877.71350  -879.43495     0.01406     0.03939     0.26063
  Local  -27397.30850-21795.50264 -4678.87205  1456.75902  -668.57464  -122.79169
  n-local  -329.66521  -321.82245  -327.67123    -2.19460    -0.07963    -0.69236
  augment  1222.30262  1226.52697  1232.61307     0.19596    -0.48319    -0.78800
  Kinetic  1335.40459  1363.10774  1369.47253    -2.43123    -1.09216    -4.72843
  Fock        0.00000     0.00000     0.00000     0.00000     0.00000     0.00000
  -------------------------------------------------------------------------------------
  Total      -2.22829     0.29009    -0.77613    -0.72719    -0.05696    -0.16716
  in kB      -1.05781     0.13771    -0.36844    -0.34521    -0.02704    -0.07935
  external pressure =       -0.43 kB  Pullay stress =        0.00 kB


 VOLUME and BASIS-vectors are now :
 -----------------------------------------------------------------------------
  energy-cutoff  :      600.00
  volume of cell :     3375.00
      direct lattice vectors                 reciprocal lattice vectors
    15.000000000  0.000000000  0.000000000     0.066666667  0.000000000  0.000000000
     0.000000000 15.000000000  0.000000000     0.000000000  0.066666667  0.000000000
     0.000000000  0.000000000 15.000000000     0.000000000  0.000000000  0.066666667

  length of vectors
    15.000000000 15.000000000 15.000000000     0.066666667  0.066666667  0.066666667


 FORCES acting on ions
    electron-ion (+dipol)            ewald-force                    non-local-force                 convergence-correction
 -----------------------------------------------------------------------------------------------
   0.109E+04 0.670E+03 -.209E+02   -.108E+04 -.667E+03 0.209E+02   -.517E+01 -.290E+01 0.414E-01   -.603E-05 0.146E-05 0.517E-05
   0.466E+03 -.304E+03 0.894E+03   -.464E+03 0.302E+03 -.894E+03   -.158E+01 0.186E+01 -.149E-01   -.260E-05 0.119E-04 -.217E-04
   0.292E+03 0.127E+04 -.192E+03   -.290E+03 -.126E+04 0.189E+03   -.191E+01 -.900E+01 0.225E+01   0.151E-04 -.162E-04 0.179E-05
   -.826E+03 -.167E+03 0.915E+03   0.824E+03 0.166E+03 -.911E+03   0.192E+01 0.154E+01 -.421E+01   0.269E-05 0.122E-04 -.287E-06
   -.850E+03 0.103E+04 0.171E+03   0.846E+03 -.102E+04 -.170E+03   0.465E+01 -.618E+01 -.132E+01   0.657E-05 -.131E-04 0.421E-05
   -.138E+03 0.496E+03 -.957E+03   0.137E+03 -.493E+03 0.956E+03   0.820E+00 -.267E+01 0.476E+00   0.583E-05 0.766E-05 0.326E-04
   0.212E+03 0.618E+03 0.121E+04   -.211E+03 -.613E+03 -.121E+04   -.113E+01 -.438E+01 -.595E+01   0.592E-05 0.578E-05 -.728E-05
   0.123E+04 -.347E+03 0.123E+03   -.122E+04 0.344E+03 -.121E+03   -.912E+01 0.276E+01 -.275E+01   -.114E-04 0.108E-04 0.258E-05
   0.585E+03 -.165E+03 -.122E+04   -.581E+03 0.165E+03 0.121E+04   -.394E+01 0.375E+00 0.678E+01   0.107E-04 0.776E-05 0.884E-05
   0.470E+03 -.127E+04 -.140E+03   -.467E+03 0.127E+04 0.139E+03   -.334E+01 0.707E+01 0.193E+01   0.699E-06 0.156E-04 0.609E-06
   -.506E+03 -.105E+04 0.709E+03   0.502E+03 0.105E+04 -.702E+03   0.457E+01 0.591E+01 -.655E+01   -.474E-05 0.462E-05 0.112E-04
   -.863E+03 -.204E+02 -.398E+03   0.862E+03 0.197E+02 0.394E+03   0.132E+01 0.479E+00 0.365E+01   0.452E-04 0.798E-05 0.164E-04
   -.576E+03 -.742E+03 -.868E+03   0.573E+03 0.738E+03 0.865E+03   0.338E+01 0.362E+01 0.282E+01   0.667E-05 -.412E-05 0.121E-04
   -.120E+03 0.266E+02 -.927E+02   0.100E+03 -.290E+02 0.906E+02   0.198E+02 0.270E+01 0.230E+01   0.843E-05 0.312E-06 0.269E-05
   -.412E+03 -.332E+02 -.127E+03   0.470E+03 0.408E+02 0.135E+03   -.584E+02 -.778E+01 -.905E+01   -.141E-06 -.182E-05 -.169E-05
 -----------------------------------------------------------------------------------------------
   0.481E+02 0.660E+01 0.961E+01   -.966E-12 0.128E-12 -.199E-12   -.481E+02 -.659E+01 -.961E+01   0.829E-04 0.509E-04 0.672E-04
 
 
 POSITION                                       TOTAL-FORCE (eV/Angst)
 -----------------------------------------------------------------------------------
      4.33248      6.24162      8.31670         0.334743      0.311070      0.041706
      5.61852      8.23436      7.40808        -0.112121     -0.542382     -0.114379
      5.94453      4.36543      8.41013        -0.040187     -0.027826      0.116562
      8.01085      7.54320      7.17395        -0.171005      0.601461      0.170375
      8.20545      5.27684      7.95416         0.518887     -0.382995     -0.163139
      6.74493      6.53597      9.20652        -0.131863      0.226350     -0.068441
      6.25775      5.99949      6.70059        -0.281462     -0.057864      0.166641
      3.33678      8.55594      8.27865         0.184715     -0.004547     -0.043184
      5.02850      8.13077      9.87999        -0.031854      0.002224     -0.263569
      5.29626     10.23560      8.49147        -0.404988      0.308636      0.389369
      7.29320      9.96274      7.17865         0.232953     -0.000441     -0.122370
      9.42532      7.29905      9.04906        -0.233668     -0.243284     -0.003841
      7.22599      8.91744      9.29251         0.427776     -0.323161     -0.178772
     11.18430      7.32425      9.58778         0.207647      0.294303      0.241270
     12.32230      7.47195      9.76020        -0.499574     -0.161544     -0.168228
 -----------------------------------------------------------------------------------
    total drift:                                0.000742      0.004537      0.000784


--------------------------------------------------------------------------------------------------------



  FREE ENERGIE OF THE ION-ELECTRON SYSTEM (eV)
  ---------------------------------------------------
  free  energy   TOTEN  =       -48.88861444 eV

  energy  without entropy=      -48.89795034  energy(sigma->0) =      -48.89172640
 


--------------------------------------------------------------------------------------------------------


    POTLOK:  cpu time    1.1890: real time    1.1896


--------------------------------------------------------------------------------------------------------


     LOOP+:  cpu time  351.1606: real time  351.4070
    4ORBIT:  cpu time    0.0000: real time    0.0000

 total amount of memory used by VASP MPI-rank0   158680. kBytes
=======================================================================

   base      :      30000. kBytes
   nonl-proj :      12601. kBytes
   fftplans  :      27994. kBytes
   grid      :      74150. kBytes
   one-center:         93. kBytes
   wavefun   :      13842. kBytes
 
  
  
 General timing and accounting informations for this job:
 ========================================================
  
                  Total CPU time used (sec):      355.147
                            User time (sec):      342.650
                          System time (sec):       12.497
                         Elapsed time (sec):      355.432
  
                   Maximum memory used (kb):      281036.
                   Average memory used (kb):           0.
  
                          Minor page faults:       297696
                          Major page faults:            0
                 Voluntary context switches:          829
