 vasp.5.4.4.18Apr17-6-g9f103f2a35 (build May 08 2019 13:49:07) complex          
  
 executed on             LinuxIFC date 2019.11.13  15:43:43
 running on   24 total cores
 distrk:  each k-point on   24 cores,    1 groups
 distr:  one band on NCORES_PER_BAND=   6 cores,    4 groups


--------------------------------------------------------------------------------------------------------


 INCAR:
 POTCAR:    PAW_PBE Cu 22Jun2005                  
 POTCAR:    PAW_PBE C 08Apr2002                   
 POTCAR:    PAW_PBE O 08Apr2002                   
 POTCAR:    PAW_PBE Cu 22Jun2005                  
   VRHFIN =Cu: d10 p1                                                           
   LEXCH  = PE                                                                  
   EATOM  =  1390.9808 eV,  102.2342 Ry                                         
                                                                                
   TITEL  = PAW_PBE Cu 22Jun2005                                                
   LULTRA =        F    use ultrasoft PP ?                                      
   IUNSCR =        1    unscreen: 0-lin 1-nonlin 2-no                           
   RPACOR =    2.000    partial core radius                                     
   POMASS =   63.546; ZVAL   =   11.000    mass and valenz                      
   RCORE  =    2.300    outmost cutoff radius                                   
   RWIGS  =    2.200; RWIGS  =    1.164    wigner-seitz radius (au A)           
   ENMAX  =  295.446; ENMIN  =  221.585 eV                                      
   ICORE  =        3    local potential                                         
   LCOR   =        T    correct aug charges                                     
   LPAW   =        T    paw PP                                                  
   EAUG   =  586.980                                                            
   DEXC   =    0.000                                                            
   RMAX   =    2.344    core radius for proj-oper                               
   RAUG   =    1.300    factor for augmentation sphere                          
   RDEP   =    2.302    radius for radial grids                                 
   RDEPT  =    1.771    core radius for aug-charge                              
                                                                                
   Atomic configuration                                                         
    9 entries                                                                   
     n  l   j            E        occ.                                          
     1  0  0.50     -8850.2468   2.0000                                         
     2  0  0.50     -1062.3498   2.0000                                         
     2  1  1.50      -916.8226   6.0000                                         
     3  0  0.50      -114.6929   2.0000                                         
     3  1  1.50       -72.1325   6.0000                                         
     3  2  2.50        -5.0394  10.0000                                         
     4  0  0.50        -4.6097   1.0000                                         
     4  1  0.50        -4.0817   0.0000                                         
     4  3  2.50        -1.3606   0.0000                                         
   Description                                                                  
     l       E           TYP  RCUT    TYP  RCUT                                 
     2     -5.0393973     23  2.200                                             
     2     10.8846608     23  2.200                                             
     0     -4.6097109     23  2.200                                             
     0      8.2520465     23  2.200                                             
     1     -2.7211652     23  2.200                                             
     1     21.7055443     23  2.200                                             
     3      2.7211652     23  2.300                                             
  local pseudopotential read in
  partial core-charges read in
  partial kinetic energy density read in
  atomic valenz-charges read in
  non local Contribution for L=           2  read in
    real space projection operators read in
  non local Contribution for L=           2  read in
    real space projection operators read in
  non local Contribution for L=           0  read in
    real space projection operators read in
  non local Contribution for L=           0  read in
    real space projection operators read in
  non local Contribution for L=           1  read in
    real space projection operators read in
  non local Contribution for L=           1  read in
    real space projection operators read in
    PAW grid and wavefunctions read in
 
   number of l-projection  operators is LMAX  =           6
   number of lm-projection operators is LMMAX =          18
 
 POTCAR:    PAW_PBE C 08Apr2002                   
   VRHFIN =C: s2p2                                                              
   LEXCH  = PE                                                                  
   EATOM  =   147.1560 eV,   10.8157 Ry                                         
                                                                                
   TITEL  = PAW_PBE C 08Apr2002                                                 
   LULTRA =        F    use ultrasoft PP ?                                      
   IUNSCR =        1    unscreen: 0-lin 1-nonlin 2-no                           
   RPACOR =    1.200    partial core radius                                     
   POMASS =   12.011; ZVAL   =    4.000    mass and valenz                      
   RCORE  =    1.500    outmost cutoff radius                                   
   RWIGS  =    1.630; RWIGS  =    0.863    wigner-seitz radius (au A)           
   ENMAX  =  400.000; ENMIN  =  300.000 eV                                      
   ICORE  =        2    local potential                                         
   LCOR   =        T    correct aug charges                                     
   LPAW   =        T    paw PP                                                  
   EAUG   =  644.873                                                            
   DEXC   =    0.000                                                            
   RMAX   =    1.529    core radius for proj-oper                               
   RAUG   =    1.300    factor for augmentation sphere                          
   RDEP   =    1.501    radius for radial grids                                 
   RDEPT  =    1.300    core radius for aug-charge                              
                                                                                
   Atomic configuration                                                         
    4 entries                                                                   
     n  l   j            E        occ.                                          
     1  0  0.50      -273.3789   2.0000                                         
     2  0  0.50       -13.7508   2.0000                                         
     2  1  0.50        -5.2854   2.0000                                         
     3  2  1.50        -5.4423   0.0000                                         
   Description                                                                  
     l       E           TYP  RCUT    TYP  RCUT                                 
     0    -13.7508458     23  1.200                                             
     0     -8.2022199     23  1.200                                             
     1     -5.2854383     23  1.500                                             
     1     34.0145650     23  1.500                                             
     2     -5.4423304      7  1.500                                             
  local pseudopotential read in
  partial core-charges read in
  partial kinetic energy density read in
  atomic valenz-charges read in
  non local Contribution for L=           0  read in
    real space projection operators read in
  non local Contribution for L=           0  read in
    real space projection operators read in
  non local Contribution for L=           1  read in
    real space projection operators read in
  non local Contribution for L=           1  read in
    real space projection operators read in
    PAW grid and wavefunctions read in
 
   number of l-projection  operators is LMAX  =           4
   number of lm-projection operators is LMMAX =           8
 
 POTCAR:    PAW_PBE O 08Apr2002                   
   VRHFIN =O: s2p4                                                              
   LEXCH  = PE                                                                  
   EATOM  =   432.3788 eV,   31.7789 Ry                                         
                                                                                
   TITEL  = PAW_PBE O 08Apr2002                                                 
   LULTRA =        F    use ultrasoft PP ?                                      
   IUNSCR =        1    unscreen: 0-lin 1-nonlin 2-no                           
   RPACOR =    1.200    partial core radius                                     
   POMASS =   16.000; ZVAL   =    6.000    mass and valenz                      
   RCORE  =    1.520    outmost cutoff radius                                   
   RWIGS  =    1.550; RWIGS  =    0.820    wigner-seitz radius (au A)           
   ENMAX  =  400.000; ENMIN  =  300.000 eV                                      
   ICORE  =        2    local potential                                         
   LCOR   =        T    correct aug charges                                     
   LPAW   =        T    paw PP                                                  
   EAUG   =  605.392                                                            
   DEXC   =    0.000                                                            
   RMAX   =    1.553    core radius for proj-oper                               
   RAUG   =    1.300    factor for augmentation sphere                          
   RDEP   =    1.550    radius for radial grids                                 
   RDEPT  =    1.329    core radius for aug-charge                              
                                                                                
   Atomic configuration                                                         
    4 entries                                                                   
     n  l   j            E        occ.                                          
     1  0  0.50      -514.6923   2.0000                                         
     2  0  0.50       -23.9615   2.0000                                         
     2  1  0.50        -9.0305   4.0000                                         
     3  2  1.50        -9.5241   0.0000                                         
   Description                                                                  
     l       E           TYP  RCUT    TYP  RCUT                                 
     0    -23.9615318     23  1.200                                             
     0     -9.5240782     23  1.200                                             
     1     -9.0304911     23  1.520                                             
     1      8.1634956     23  1.520                                             
     2     -9.5240782      7  1.500                                             
  local pseudopotential read in
  partial core-charges read in
  partial kinetic energy density read in
  kinetic energy density of atom read in
  atomic valenz-charges read in
  non local Contribution for L=           0  read in
    real space projection operators read in
  non local Contribution for L=           0  read in
    real space projection operators read in
  non local Contribution for L=           1  read in
    real space projection operators read in
  non local Contribution for L=           1  read in
    real space projection operators read in
    PAW grid and wavefunctions read in
 
   number of l-projection  operators is LMAX  =           4
   number of lm-projection operators is LMMAX =           8
 
  PAW_PBE Cu 22Jun2005                  :
 energy of atom  1       EATOM=-1390.9808
 kinetic energy error for atom=    0.0033 (will be added to EATOM!!)
  PAW_PBE C 08Apr2002                   :
 energy of atom  2       EATOM= -147.1560
 kinetic energy error for atom=    0.0057 (will be added to EATOM!!)
  PAW_PBE O 08Apr2002                   :
 energy of atom  3       EATOM= -432.3788
 kinetic energy error for atom=    0.0168 (will be added to EATOM!!)
 
 
 POSCAR: Cu13 C1 O1                              
  positions in cartesian coordinates
  No initial velocities read in
 exchange correlation table for  LEXCH =        8
   RHO(1)=    0.500       N(1)  =     2000
   RHO(2)=  100.500       N(2)  =     4000
 


--------------------------------------------------------------------------------------------------------


 ion  position               nearest neighbor table
   1  0.288  0.415  0.561-   3 2.42   8 2.46   6 2.50   9 2.54   2 2.55   7 2.63
   2  0.375  0.544  0.493-   7 2.39   8 2.39  10 2.43  11 2.46   4 2.51   1 2.55  13 2.56   6 2.61
                             9 2.62
   3  0.393  0.292  0.564-   7 2.41   1 2.42   6 2.46   5 2.47
   4  0.537  0.506  0.477-  12 2.28   7 2.46   2 2.51   5 2.51  11 2.52  13 2.53   6 2.70
   5  0.545  0.348  0.532-   6 2.42   7 2.43   3 2.47   4 2.51  12 2.66
   6  0.443  0.440  0.616-   9 2.37  13 2.37   5 2.42   3 2.46   1 2.50   2 2.61   7 2.66   4 2.70

   7  0.418  0.398  0.445-   2 2.39   3 2.41   5 2.43   4 2.46   1 2.63   6 2.66
   8  0.227  0.567  0.549-   9 2.36   2 2.39   1 2.46  10 2.61
   9  0.333  0.543  0.663-   8 2.36   6 2.37  13 2.54   1 2.54  10 2.56   2 2.62
  10  0.353  0.685  0.571-   2 2.43  11 2.46  13 2.52   9 2.56   8 2.61
  11  0.484  0.665  0.474-  13 2.36  10 2.46   2 2.46   4 2.52
  12  0.630  0.490  0.596-  14 1.93   4 2.28  13 2.65   5 2.66
  13  0.487  0.592  0.613-  11 2.36   6 2.37  10 2.52   4 2.53   9 2.54   2 2.56  12 2.65
  14  0.747  0.506  0.647-  15 1.17  12 1.93
  15  0.824  0.495  0.656-  14 1.17
 

IMPORTANT INFORMATION: All symmetrisations will be switched off!
NOSYMM: (Re-)initialisation of all symmetry stuff for point group C_1.

 
 

Automatic generation of k-mesh.
 generate k-points for:    1    1    1
Space group operators:
 irot       det(A)        alpha          n_x          n_y          n_z        tau_x        tau_y        tau_z
    1     1.000000     0.000000     1.000000     0.000000     0.000000     0.000000     0.000000     0.000000
 
 Subroutine IBZKPT returns following result:
 ===========================================
 
 Found      1 irreducible k-points:
 
 Following reciprocal coordinates:
            Coordinates               Weight
  0.000000  0.000000  0.000000      1.000000
 
 Following cartesian coordinates:
            Coordinates               Weight
  0.000000  0.000000  0.000000      1.000000
 


--------------------------------------------------------------------------------------------------------




 Dimension of arrays:
   k-points           NKPTS =      1   k-points in BZ     NKDIM =      1   number of bands    NBANDS=     92
   number of dos      NEDOS =    301   number of ions     NIONS =     15
   non local maximal  LDIM  =      6   non local SUM 2l+1 LMDIM =     18
   total plane-waves  NPLWV = ******
   max r-space proj   IRMAX =      1   max aug-charges    IRDMAX=  15028
   dimension x,y,z NGX =   120 NGY =  120 NGZ =  120
   dimension x,y,z NGXF=   240 NGYF=  240 NGZF=  240
   support grid    NGXF=   240 NGYF=  240 NGZF=  240
   ions per type =              13   1   1
   NGX,Y,Z   is equivalent  to a cutoff of  13.30, 13.30, 13.30 a.u.
   NGXF,Y,Z  is equivalent  to a cutoff of  26.60, 26.60, 26.60 a.u.

 SYSTEM =  CuCO                                    
 POSCAR =  Cu13 C1 O1                              

 Startparameter for this run:
   NWRITE =      2    write-flag & timer
   PREC   = accura    normal or accurate (medium, high low for compatibility)
   ISTART =      0    job   : 0-new  1-cont  2-samecut
   ICHARG =      2    charge: 1-file 2-atom 10-const
   ISPIN  =      2    spin polarized calculation?
   LNONCOLLINEAR =      F non collinear calculations
   LSORBIT =      F    spin-orbit coupling
   INIWAV =      1    electr: 0-lowe 1-rand  2-diag
   LASPH  =      F    aspherical Exc in radial PAW
   METAGGA=      F    non-selfconsistent MetaGGA calc.

 Electronic Relaxation 1
   ENCUT  =  600.0 eV  44.10 Ry    6.64 a.u.  29.96 29.96 29.96*2*pi/ulx,y,z
   ENINI  =  600.0     initial cutoff
   ENAUG  =  644.9 eV  augmentation charge cutoff
   NELM   =    300;   NELMIN=  3; NELMDL= -5     # of ELM steps 
   EDIFF  = 0.1E-06   stopping-criterion for ELM
   LREAL  =      F    real-space projection
   NLSPLINE    = F    spline interpolate recip. space projectors
   LCOMPAT=      F    compatible to vasp.4.4
   GGA_COMPAT  = T    GGA compatible to vasp.4.4-vasp.4.6
   LMAXPAW     = -100 max onsite density
   LMAXMIX     =    2 max onsite mixed and CHGCAR
   VOSKOWN=      0    Vosko Wilk Nusair interpolation
   ROPT   =    0.00000   0.00000   0.00000
 Ionic relaxation
   EDIFFG = -.1E-02   stopping-criterion for IOM
   NSW    =      0    number of steps for IOM
   NBLOCK =      1;   KBLOCK =      1    inner block; outer block 
   IBRION =     -1    ionic relax: 0-MD 1-quasi-New 2-CG
   NFREE  =      0    steps in history (QN), initial steepest desc. (CG)
   ISIF   =      2    stress and relaxation
   IWAVPR =     10    prediction:  0-non 1-charg 2-wave 3-comb
   ISYM   =      0    0-nonsym 1-usesym 2-fastsym
   LCORR  =      T    Harris-Foulkes like correction to forces

   POTIM  = 0.5000    time-step for ionic-motion
   TEIN   =    0.0    initial temperature
   TEBEG  =    0.0;   TEEND  =   0.0 temperature during run
   SMASS  =  -3.00    Nose mass-parameter (am)
   estimated Nose-frequenzy (Omega)   =  0.10E-29 period in steps =****** mass=  -0.514E-26a.u.
   SCALEE = 1.0000    scale energy and forces
   NPACO  =    256;   APACO  = 16.0  distance and # of slots for P.C.
   PSTRESS=    0.0 pullay stress

  Mass of Ions in am
   POMASS =  63.55 12.01 16.00
  Ionic Valenz
   ZVAL   =  11.00  4.00  6.00
  Atomic Wigner-Seitz radii
   RWIGS  =  -1.00 -1.00 -1.00
  virtual crystal weights 
   VCA    =   1.00  1.00  1.00
   NELECT =     153.0000    total number of electrons
   NUPDOWN=       1.0000    fix difference up-down

 DOS related values:
   EMIN   =  10.00;   EMAX   =-10.00  energy-range for DOS
   EFERMI =   0.00
   ISMEAR =     1;   SIGMA  =   0.10  broadening in eV -4-tet -1-fermi 0-gaus

 Electronic relaxation 2 (details)
   IALGO  =     68    algorithm
   LDIAG  =      T    sub-space diagonalisation (order eigenvalues)
   LSUBROT=      F    optimize rotation matrix (better conditioning)
   TURBO    =      0    0=normal 1=particle mesh
   IRESTART =      0    0=no restart 2=restart with 2 vectors
   NREBOOT  =      0    no. of reboots
   NMIN     =      0    reboot dimension
   EREF     =   0.00    reference energy to select bands
   IMIX   =      4    mixing-type and parameters
     AMIX     =   0.40;   BMIX     =  1.00
     AMIX_MAG =   1.60;   BMIX_MAG =  1.00
     AMIN     =   0.10
     WC   =   100.;   INIMIX=   1;  MIXPRE=   1;  MAXMIX= -45

 Intra band minimization:
   WEIMIN = 0.0000     energy-eigenvalue tresh-hold
   EBREAK =  0.27E-09  absolut break condition
   DEPER  =   0.30     relativ break condition  

   TIME   =   0.40     timestep for ELM

  volume/ion in A,a.u.               =     225.00      1518.37
  Fermi-wavevector in a.u.,A,eV,Ry     =   0.583733  1.103095  4.636102  0.340744
  Thomas-Fermi vector in A             =   1.629149
 
 Write flags
   LWAVE        =      F    write WAVECAR
   LDOWNSAMPLE  =      F    k-point downsampling of WAVECAR
   LCHARG       =      F    write CHGCAR
   LVTOT        =      F    write LOCPOT, total local potential
   LVHAR        =      F    write LOCPOT, Hartree potential only
   LELF         =      F    write electronic localiz. function (ELF)
   LORBIT       =      0    0 simple, 1 ext, 2 COOP (PROOUT), +10 PAW based schemes


 Dipole corrections
   LMONO  =      F    monopole corrections only (constant potential shift)
   LDIPOL =      F    correct potential (dipole corrections)
   IDIPOL =      0    1-x, 2-y, 3-z, 4-all directions 
   EPSILON=  1.0000000 bulk dielectric constant

 Exchange correlation treatment:
   GGA     =    PE    GGA type
   LEXCH   =     8    internal setting for exchange type
   VOSKOWN=      0    Vosko Wilk Nusair interpolation
   LHFCALC =     F    Hartree Fock is set to
   LHFONE  =     F    Hartree Fock one center treatment
   AEXX    =    0.0000 exact exchange contribution

 Linear response parameters
   LEPSILON=     F    determine dielectric tensor
   LRPA    =     F    only Hartree local field effects (RPA)
   LNABLA  =     F    use nabla operator in PAW spheres
   LVEL    =     F    velocity operator in full k-point grid
   LINTERFAST=   F  fast interpolation
   KINTER  =     0    interpolate to denser k-point grid
   CSHIFT  =0.1000    complex shift for real part using Kramers Kronig
   OMEGAMAX=  -1.0    maximum frequency
   DEG_THRESHOLD= 0.2000000E-02 threshold for treating states as degnerate
   RTIME   =   -0.100 relaxation time in fs
  (WPLASMAI=    0.000 imaginary part of plasma frequency in eV, 0.658/RTIME)
   DFIELD  = 0.0000000 0.0000000 0.0000000 field for delta impulse in time
 
 Orbital magnetization related:
   ORBITALMAG=     F  switch on orbital magnetization
   LCHIMAG   =     F  perturbation theory with respect to B field
   DQ        =  0.001000  dq finite difference perturbation B field
   LLRAUG    =     F  two centre corrections for induced B field



--------------------------------------------------------------------------------------------------------


 Static calculation
 charge density and potential will be updated during run
 spin polarized calculation
 RMM-DIIS sequential band-by-band and
  variant of blocked Davidson during initial phase
 perform sub-space diagonalisation
    before iterative eigenvector-optimisation
 modified Broyden-mixing scheme, WC =      100.0
 initial mixing is a Kerker type mixing with AMIX =  0.4000 and BMIX =      1.0000
 Hartree-type preconditioning will be used
 using additional bands           15
 reciprocal scheme for non local part
 use partial core corrections
 calculate Harris-corrections to forces 
   (improved forces if not selfconsistent)
 use gradient corrections 
 use of overlap-Matrix (Vanderbilt PP)
 Methfessel and Paxton  Order N= 1 SIGMA  =   0.10


--------------------------------------------------------------------------------------------------------


  energy-cutoff  :      600.00
  volume of cell :     3375.00
      direct lattice vectors                 reciprocal lattice vectors
    15.000000000  0.000000000  0.000000000     0.066666667  0.000000000  0.000000000
     0.000000000 15.000000000  0.000000000     0.000000000  0.066666667  0.000000000
     0.000000000  0.000000000 15.000000000     0.000000000  0.000000000  0.066666667

  length of vectors
    15.000000000 15.000000000 15.000000000     0.066666667  0.066666667  0.066666667


 
 k-points in units of 2pi/SCALE and weight: read from INCAR                         
   0.00000000  0.00000000  0.00000000       1.000
 
 k-points in reciprocal lattice and weights: read from INCAR                         
   0.00000000  0.00000000  0.00000000       1.000
 
 position of ions in fractional coordinates (direct lattice) 
   0.28760800  0.41473600  0.56126733
   0.37516667  0.54397133  0.49336933
   0.39335800  0.29249200  0.56382000
   0.53721333  0.50558933  0.47712133
   0.54531800  0.34766067  0.53221200
   0.44292600  0.44010533  0.61560467
   0.41790333  0.39815333  0.44523933
   0.22734533  0.56675067  0.54883133
   0.33278000  0.54270333  0.66294400
   0.35300667  0.68475333  0.57056467
   0.48421133  0.66526867  0.47368200
   0.63016000  0.48977133  0.59596200
   0.48682267  0.59211267  0.61272533
   0.74728667  0.50595333  0.64677000
   0.82374000  0.49476533  0.65566200
 
 position of ions in cartesian coordinates  (Angst):
   4.31412000  6.22104000  8.41901000
   5.62750000  8.15957000  7.40054000
   5.90037000  4.38738000  8.45730000
   8.05820000  7.58384000  7.15682000
   8.17977000  5.21491000  7.98318000
   6.64389000  6.60158000  9.23407000
   6.26855000  5.97230000  6.67859000
   3.41018000  8.50126000  8.23247000
   4.99170000  8.14055000  9.94416000
   5.29510000 10.27130000  8.55847000
   7.26317000  9.97903000  7.10523000
   9.45240000  7.34657000  8.93943000
   7.30234000  8.88169000  9.19088000
  11.20930000  7.58930000  9.70155000
  12.35610000  7.42148000  9.83493000
 


--------------------------------------------------------------------------------------------------------


 k-point  1 :   0.0000 0.0000 0.0000  plane waves:  112451

 maximum and minimum number of plane-waves per node :     18753    18726

 maximum number of plane-waves:    112451
 maximum index in each direction: 
   IXMAX=   29   IYMAX=   29   IZMAX=   29
   IXMIN=  -29   IYMIN=  -29   IZMIN=  -29


 parallel 3D FFT for wavefunctions:
    minimum data exchange during FFTs selected (reduces bandwidth)
 parallel 3D FFT for charge:
    minimum data exchange during FFTs selected (reduces bandwidth)


 total amount of memory used by VASP MPI-rank0   158680. kBytes
=======================================================================

   base      :      30000. kBytes
   nonl-proj :      12601. kBytes
   fftplans  :      27994. kBytes
   grid      :      74150. kBytes
   one-center:         93. kBytes
   wavefun   :      13842. kBytes
 
     INWAV:  cpu time    0.0000: real time    0.0001
 Broyden mixing: mesh for mixing (old mesh)
   NGX = 59   NGY = 59   NGZ = 59
  (NGX  =240   NGY  =240   NGZ  =240)
  gives a total of 205379 points

 initial charge density was supplied:
 charge density of overlapping atoms calculated
 number of electron     153.0000000 magnetization       1.0000000
 keeping initial charge density in first step


--------------------------------------------------------------------------------------------------------


 Maximum index for augmentation-charges          709 (set IRDMAX)


--------------------------------------------------------------------------------------------------------


 First call to EWALD:  gamma=   0.118
 Maximum number of real-space cells 3x 3x 3
 Maximum number of reciprocal cells 3x 3x 3

    FEWALD:  cpu time    0.0016: real time    0.0019


--------------------------------------- Iteration      1(   1)  ---------------------------------------


    POTLOK:  cpu time    1.1483: real time    1.1504
    SETDIJ:  cpu time    0.0181: real time    0.0182
     EDDAV:  cpu time    7.5638: real time    7.5692
       DOS:  cpu time    0.0009: real time    0.0009
    --------------------------------------------
      LOOP:  cpu time    8.7311: real time    8.7387

 eigenvalue-minimisations  :   376
 total energy-change (2. order) : 0.1115715E+04  (-0.4458693E+04)
 number of electron     153.0000000 magnetization       1.0000000
 augmentation part      153.0000000 magnetization       1.0000000

 Free energy of the ion-electron system (eV)
  ---------------------------------------------------
  alpha Z        PSCENC =        41.16232785
  Ewald energy   TEWEN  =     16117.70447438
  -Hartree energ DENC   =    -33146.92294029
  -exchange      EXHF   =         0.00000000
  -V(xc)+E(xc)   XCENC  =       622.98178921
  PAW double counting   =     16421.75059358   -17800.06104309
  entropy T*S    EENTRO =        -0.01561592
  eigenvalues    EBANDS =       196.89643189
  atomic energy  EATOM  =     18662.21924712
  Solvation  Ediel_sol  =         0.00000000
  ---------------------------------------------------
  free energy    TOTEN  =      1115.71526472 eV

  energy without entropy =     1115.73088064  energy(sigma->0) =     1115.72047003


--------------------------------------------------------------------------------------------------------




--------------------------------------- Iteration      1(   2)  ---------------------------------------


     EDDAV:  cpu time    7.4120: real time    7.4166
       DOS:  cpu time    0.0008: real time    0.0008
    --------------------------------------------
      LOOP:  cpu time    7.4129: real time    7.4174

 eigenvalue-minimisations  :   368
 total energy-change (2. order) :-0.1027649E+04  (-0.9756443E+03)
 number of electron     153.0000000 magnetization       1.0000000
 augmentation part      153.0000000 magnetization       1.0000000

 Free energy of the ion-electron system (eV)
  ---------------------------------------------------
  alpha Z        PSCENC =        41.16232785
  Ewald energy   TEWEN  =     16117.70447438
  -Hartree energ DENC   =    -33146.92294029
  -exchange      EXHF   =         0.00000000
  -V(xc)+E(xc)   XCENC  =       622.98178921
  PAW double counting   =     16421.75059358   -17800.06104309
  entropy T*S    EENTRO =         0.00587445
  eigenvalues    EBANDS =      -830.77387285
  atomic energy  EATOM  =     18662.21924712
  Solvation  Ediel_sol  =         0.00000000
  ---------------------------------------------------
  free energy    TOTEN  =        88.06645035 eV

  energy without entropy =       88.06057590  energy(sigma->0) =       88.06449220


--------------------------------------------------------------------------------------------------------




--------------------------------------- Iteration      1(   3)  ---------------------------------------


     EDDAV:  cpu time   11.7984: real time   11.8043
       DOS:  cpu time    0.0005: real time    0.0005
    --------------------------------------------
      LOOP:  cpu time   11.7989: real time   11.8048

 eigenvalue-minimisations  :   664
 total energy-change (2. order) :-0.1206037E+03  (-0.1130698E+03)
 number of electron     153.0000000 magnetization       1.0000000
 augmentation part      153.0000000 magnetization       1.0000000

 Free energy of the ion-electron system (eV)
  ---------------------------------------------------
  alpha Z        PSCENC =        41.16232785
  Ewald energy   TEWEN  =     16117.70447438
  -Hartree energ DENC   =    -33146.92294029
  -exchange      EXHF   =         0.00000000
  -V(xc)+E(xc)   XCENC  =       622.98178921
  PAW double counting   =     16421.75059358   -17800.06104309
  entropy T*S    EENTRO =         0.00897138
  eigenvalues    EBANDS =      -951.38061997
  atomic energy  EATOM  =     18662.21924712
  Solvation  Ediel_sol  =         0.00000000
  ---------------------------------------------------
  free energy    TOTEN  =       -32.53719984 eV

  energy without entropy =      -32.54617122  energy(sigma->0) =      -32.54019030


--------------------------------------------------------------------------------------------------------




--------------------------------------- Iteration      1(   4)  ---------------------------------------


     EDDAV:  cpu time   10.4226: real time   10.4308
       DOS:  cpu time    0.0005: real time    0.0005
    --------------------------------------------
      LOOP:  cpu time   10.4231: real time   10.4314

 eigenvalue-minimisations  :   568
 total energy-change (2. order) :-0.2268739E+02  (-0.2233006E+02)
 number of electron     153.0000000 magnetization       1.0000000
 augmentation part      153.0000000 magnetization       1.0000000

 Free energy of the ion-electron system (eV)
  ---------------------------------------------------
  alpha Z        PSCENC =        41.16232785
  Ewald energy   TEWEN  =     16117.70447438
  -Hartree energ DENC   =    -33146.92294029
  -exchange      EXHF   =         0.00000000
  -V(xc)+E(xc)   XCENC  =       622.98178921
  PAW double counting   =     16421.75059358   -17800.06104309
  entropy T*S    EENTRO =         0.00934087
  eigenvalues    EBANDS =      -974.06838055
  atomic energy  EATOM  =     18662.21924712
  Solvation  Ediel_sol  =         0.00000000
  ---------------------------------------------------
  free energy    TOTEN  =       -55.22459093 eV

  energy without entropy =      -55.23393181  energy(sigma->0) =      -55.22770456


--------------------------------------------------------------------------------------------------------




--------------------------------------- Iteration      1(   5)  ---------------------------------------


     EDDAV:  cpu time   12.0867: real time   12.0924
       DOS:  cpu time    0.0008: real time    0.0008
    CHARGE:  cpu time    0.6653: real time    0.6656
    MIXING:  cpu time    0.0230: real time    0.0231
    --------------------------------------------
      LOOP:  cpu time   12.7758: real time   12.7819

 eigenvalue-minimisations  :   680
 total energy-change (2. order) :-0.1529155E+01  (-0.1394687E+01)
 number of electron     152.9999994 magnetization       1.0000000
 augmentation part       87.5727874 magnetization       0.3672454

 Broyden mixing:
  rms(total) = 0.22972E+01    rms(broyden)= 0.22971E+01
  rms(prec ) = 0.26364E+01
  weight for this iteration     100.00

 Free energy of the ion-electron system (eV)
  ---------------------------------------------------
  alpha Z        PSCENC =        41.16232785
  Ewald energy   TEWEN  =     16117.70447438
  -Hartree energ DENC   =    -33146.92294029
  -exchange      EXHF   =         0.00000000
  -V(xc)+E(xc)   XCENC  =       622.98178921
  PAW double counting   =     16421.75059358   -17800.06104309
  entropy T*S    EENTRO =         0.00945066
  eigenvalues    EBANDS =      -975.59764552
  atomic energy  EATOM  =     18662.21924712
  Solvation  Ediel_sol  =         0.00000000
  ---------------------------------------------------
  free energy    TOTEN  =       -56.75374611 eV

  energy without entropy =      -56.76319678  energy(sigma->0) =      -56.75689633


--------------------------------------------------------------------------------------------------------




--------------------------------------- Iteration      1(   6)  ---------------------------------------


    POTLOK:  cpu time    1.1316: real time    1.1332
    SETDIJ:  cpu time    0.0185: real time    0.0185
    EDDIAG:  cpu time    1.1029: real time    1.1038
  RMM-DIIS:  cpu time    6.7790: real time    6.7837
    ORTHCH:  cpu time    0.0560: real time    0.0559
       DOS:  cpu time    0.0005: real time    0.0005
    CHARGE:  cpu time    0.6406: real time    0.6410
    MIXING:  cpu time    0.0237: real time    0.0237
    --------------------------------------------
      LOOP:  cpu time    9.7528: real time    9.7604

 eigenvalue-minimisations  :   421
 total energy-change (2. order) : 0.1133718E+01  (-0.1144528E+02)
 number of electron     152.9999994 magnetization       1.0000000
 augmentation part       95.6987230 magnetization       0.0855287

 Broyden mixing:
  rms(total) = 0.14911E+01    rms(broyden)= 0.14910E+01
  rms(prec ) = 0.17207E+01
  weight for this iteration     100.00

 eigenvalues of (default mixing * dielectric matrix)
  average eigenvalue GAMMA=   0.6169
  0.6169

 Free energy of the ion-electron system (eV)
  ---------------------------------------------------
  alpha Z        PSCENC =        41.16232785
  Ewald energy   TEWEN  =     16117.70447438
  -Hartree energ DENC   =    -32897.83576682
  -exchange      EXHF   =         0.00000000
  -V(xc)+E(xc)   XCENC  =       610.89664157
  PAW double counting   =     16671.30087535   -17995.60752870
  entropy T*S    EENTRO =         0.00657071
  eigenvalues    EBANDS =     -1265.46686998
  atomic energy  EATOM  =     18662.21924712
  Solvation  Ediel_sol  =         0.00000000
  ---------------------------------------------------
  free energy    TOTEN  =       -55.62002852 eV

  energy without entropy =      -55.62659923  energy(sigma->0) =      -55.62221876


--------------------------------------------------------------------------------------------------------




--------------------------------------- Iteration      1(   7)  ---------------------------------------


    POTLOK:  cpu time    1.1319: real time    1.1341
    SETDIJ:  cpu time    0.0181: real time    0.0181
    EDDIAG:  cpu time    1.1029: real time    1.1032
  RMM-DIIS:  cpu time    6.2627: real time    6.2661
    ORTHCH:  cpu time    0.0564: real time    0.0564
       DOS:  cpu time    0.0005: real time    0.0005
    CHARGE:  cpu time    0.6397: real time    0.6400
    MIXING:  cpu time    0.0241: real time    0.0241
    --------------------------------------------
      LOOP:  cpu time    9.2363: real time    9.2426

 eigenvalue-minimisations  :   387
 total energy-change (2. order) : 0.6537419E+01  (-0.2328103E+01)
 number of electron     152.9999995 magnetization       1.0000000
 augmentation part       92.8922649 magnetization       0.1139338

 Broyden mixing:
  rms(total) = 0.37301E+00    rms(broyden)= 0.37299E+00
  rms(prec ) = 0.46518E+00
  weight for this iteration     100.00

 eigenvalues of (default mixing * dielectric matrix)
  average eigenvalue GAMMA=   0.9166
  1.1624  0.6709

 Free energy of the ion-electron system (eV)
  ---------------------------------------------------
  alpha Z        PSCENC =        41.16232785
  Ewald energy   TEWEN  =     16117.70447438
  -Hartree energ DENC   =    -33032.06672015
  -exchange      EXHF   =         0.00000000
  -V(xc)+E(xc)   XCENC  =       615.33019841
  PAW double counting   =     17000.56414473   -18373.99542216
  entropy T*S    EENTRO =         0.00769951
  eigenvalues    EBANDS =     -1080.00855897
  atomic energy  EATOM  =     18662.21924712
  Solvation  Ediel_sol  =         0.00000000
  ---------------------------------------------------
  free energy    TOTEN  =       -49.08260927 eV

  energy without entropy =      -49.09030878  energy(sigma->0) =      -49.08517578


--------------------------------------------------------------------------------------------------------




--------------------------------------- Iteration      1(   8)  ---------------------------------------


    POTLOK:  cpu time    1.1327: real time    1.1373
    SETDIJ:  cpu time    0.0182: real time    0.0185
    EDDIAG:  cpu time    1.1028: real time    1.1032
  RMM-DIIS:  cpu time    7.4953: real time    7.4992
    ORTHCH:  cpu time    0.0560: real time    0.0561
       DOS:  cpu time    0.0005: real time    0.0005
    CHARGE:  cpu time    0.6527: real time    0.6531
    MIXING:  cpu time    0.0246: real time    0.0246
    --------------------------------------------
      LOOP:  cpu time   10.4828: real time   10.4924

 eigenvalue-minimisations  :   426
 total energy-change (2. order) : 0.2512734E+00  (-0.3695276E+00)
 number of electron     152.9999994 magnetization       1.0000000
 augmentation part       92.1522634 magnetization       0.1102594

 Broyden mixing:
  rms(total) = 0.28065E+00    rms(broyden)= 0.28062E+00
  rms(prec ) = 0.31829E+00
  weight for this iteration     100.00

 eigenvalues of (default mixing * dielectric matrix)
  average eigenvalue GAMMA=   0.9280
  1.3751  0.7044  0.7044

 Free energy of the ion-electron system (eV)
  ---------------------------------------------------
  alpha Z        PSCENC =        41.16232785
  Ewald energy   TEWEN  =     16117.70447438
  -Hartree energ DENC   =    -33078.68227359
  -exchange      EXHF   =         0.00000000
  -V(xc)+E(xc)   XCENC  =       615.68752170
  PAW double counting   =     17331.88746640   -18723.98022629
  entropy T*S    EENTRO =         0.00820814
  eigenvalues    EBANDS =     -1014.83808153
  atomic energy  EATOM  =     18662.21924712
  Solvation  Ediel_sol  =         0.00000000
  ---------------------------------------------------
  free energy    TOTEN  =       -48.83133583 eV

  energy without entropy =      -48.83954397  energy(sigma->0) =      -48.83407187


--------------------------------------------------------------------------------------------------------




--------------------------------------- Iteration      1(   9)  ---------------------------------------


    POTLOK:  cpu time    1.1340: real time    1.1349
    SETDIJ:  cpu time    0.0180: real time    0.0180
    EDDIAG:  cpu time    1.1025: real time    1.1038
  RMM-DIIS:  cpu time    6.8307: real time    6.8352
    ORTHCH:  cpu time    0.0541: real time    0.0540
       DOS:  cpu time    0.0005: real time    0.0005
    CHARGE:  cpu time    0.6525: real time    0.6528
    MIXING:  cpu time    0.0252: real time    0.0252
    --------------------------------------------
      LOOP:  cpu time    9.8175: real time    9.8246

 eigenvalue-minimisations  :   424
 total energy-change (2. order) : 0.3573137E-01  (-0.9273740E-01)
 number of electron     152.9999995 magnetization       1.0000000
 augmentation part       92.3205442 magnetization       0.0980924

 Broyden mixing:
  rms(total) = 0.18064E+00    rms(broyden)= 0.18064E+00
  rms(prec ) = 0.21426E+00
  weight for this iteration     100.00

 eigenvalues of (default mixing * dielectric matrix)
  average eigenvalue GAMMA=   1.0231
  2.0561  0.7689  0.7689  0.4987

 Free energy of the ion-electron system (eV)
  ---------------------------------------------------
  alpha Z        PSCENC =        41.16232785
  Ewald energy   TEWEN  =     16117.70447438
  -Hartree energ DENC   =    -33077.65361581
  -exchange      EXHF   =         0.00000000
  -V(xc)+E(xc)   XCENC  =       615.25215357
  PAW double counting   =     17436.64878070   -18830.75595650
  entropy T*S    EENTRO =         0.00869981
  eigenvalues    EBANDS =     -1013.38171558
  atomic energy  EATOM  =     18662.21924712
  Solvation  Ediel_sol  =         0.00000000
  ---------------------------------------------------
  free energy    TOTEN  =       -48.79560446 eV

  energy without entropy =      -48.80430426  energy(sigma->0) =      -48.79850439


--------------------------------------------------------------------------------------------------------




--------------------------------------- Iteration      1(  10)  ---------------------------------------


    POTLOK:  cpu time    1.1347: real time    1.1358
    SETDIJ:  cpu time    0.0177: real time    0.0177
    EDDIAG:  cpu time    1.0999: real time    1.1004
  RMM-DIIS:  cpu time    6.7615: real time    6.7656
    ORTHCH:  cpu time    0.0533: real time    0.0533
       DOS:  cpu time    0.0005: real time    0.0005
    CHARGE:  cpu time    0.6524: real time    0.6528
    MIXING:  cpu time    0.0257: real time    0.0257
    --------------------------------------------
      LOOP:  cpu time    9.7457: real time    9.7517

 eigenvalue-minimisations  :   422
 total energy-change (2. order) : 0.5886794E-01  (-0.2124552E-01)
 number of electron     152.9999994 magnetization       1.0000000
 augmentation part       92.4755893 magnetization       0.0854491

 Broyden mixing:
  rms(total) = 0.54006E-01    rms(broyden)= 0.54002E-01
  rms(prec ) = 0.71778E-01
  weight for this iteration     100.00

 eigenvalues of (default mixing * dielectric matrix)
  average eigenvalue GAMMA=   1.0565
  2.1115  1.1459  0.7765  0.7765  0.4721

 Free energy of the ion-electron system (eV)
  ---------------------------------------------------
  alpha Z        PSCENC =        41.16232785
  Ewald energy   TEWEN  =     16117.70447438
  -Hartree energ DENC   =    -33076.59300158
  -exchange      EXHF   =         0.00000000
  -V(xc)+E(xc)   XCENC  =       614.88849143
  PAW double counting   =     17527.58618160   -18923.28934657
  entropy T*S    EENTRO =         0.00829685
  eigenvalues    EBANDS =     -1012.42340759
  atomic energy  EATOM  =     18662.21924712
  Solvation  Ediel_sol  =         0.00000000
  ---------------------------------------------------
  free energy    TOTEN  =       -48.73673651 eV

  energy without entropy =      -48.74503336  energy(sigma->0) =      -48.73950213


--------------------------------------------------------------------------------------------------------




--------------------------------------- Iteration      1(  11)  ---------------------------------------


    POTLOK:  cpu time    1.1348: real time    1.1371
    SETDIJ:  cpu time    0.0178: real time    0.0178
    EDDIAG:  cpu time    1.0990: real time    1.0994
  RMM-DIIS:  cpu time    7.0946: real time    7.0987
    ORTHCH:  cpu time    0.0533: real time    0.0533
       DOS:  cpu time    0.0005: real time    0.0005
    CHARGE:  cpu time    0.6565: real time    0.6568
    MIXING:  cpu time    0.0268: real time    0.0268
    --------------------------------------------
      LOOP:  cpu time   10.0834: real time   10.0904

 eigenvalue-minimisations  :   426
 total energy-change (2. order) : 0.9162998E-02  (-0.6676810E-02)
 number of electron     152.9999994 magnetization       1.0000000
 augmentation part       92.4396177 magnetization       0.0876559

 Broyden mixing:
  rms(total) = 0.41393E-01    rms(broyden)= 0.41391E-01
  rms(prec ) = 0.52915E-01
  weight for this iteration     100.00

 eigenvalues of (default mixing * dielectric matrix)
  average eigenvalue GAMMA=   1.0466
  2.1824  1.5026  0.7741  0.7741  0.5670  0.4792

 Free energy of the ion-electron system (eV)
  ---------------------------------------------------
  alpha Z        PSCENC =        41.16232785
  Ewald energy   TEWEN  =     16117.70447438
  -Hartree energ DENC   =    -33083.46438303
  -exchange      EXHF   =         0.00000000
  -V(xc)+E(xc)   XCENC  =       614.96988677
  PAW double counting   =     17574.18147319   -18971.79816017
  entropy T*S    EENTRO =         0.00856439
  eigenvalues    EBANDS =     -1003.71100402
  atomic energy  EATOM  =     18662.21924712
  Solvation  Ediel_sol  =         0.00000000
  ---------------------------------------------------
  free energy    TOTEN  =       -48.72757351 eV

  energy without entropy =      -48.73613791  energy(sigma->0) =      -48.73042831


--------------------------------------------------------------------------------------------------------




--------------------------------------- Iteration      1(  12)  ---------------------------------------


    POTLOK:  cpu time    1.1342: real time    1.1346
    SETDIJ:  cpu time    0.0185: real time    0.0185
    EDDIAG:  cpu time    1.0989: real time    1.0994
  RMM-DIIS:  cpu time    7.1530: real time    7.1567
    ORTHCH:  cpu time    0.0523: real time    0.0524
       DOS:  cpu time    0.0005: real time    0.0005
    CHARGE:  cpu time    0.6547: real time    0.6550
    MIXING:  cpu time    0.0270: real time    0.0270
    --------------------------------------------
      LOOP:  cpu time   10.1391: real time   10.1440

 eigenvalue-minimisations  :   420
 total energy-change (2. order) : 0.2394939E-02  (-0.1792797E-02)
 number of electron     152.9999994 magnetization       1.0000000
 augmentation part       92.4407623 magnetization       0.0872772

 Broyden mixing:
  rms(total) = 0.16757E-01    rms(broyden)= 0.16757E-01
  rms(prec ) = 0.28957E-01
  weight for this iteration     100.00

 eigenvalues of (default mixing * dielectric matrix)
  average eigenvalue GAMMA=   1.0812
  2.4109  1.6480  1.0405  0.7355  0.7355  0.5377  0.4602

 Free energy of the ion-electron system (eV)
  ---------------------------------------------------
  alpha Z        PSCENC =        41.16232785
  Ewald energy   TEWEN  =     16117.70447438
  -Hartree energ DENC   =    -33086.20356063
  -exchange      EXHF   =         0.00000000
  -V(xc)+E(xc)   XCENC  =       615.00399582
  PAW double counting   =     17581.79252531   -18979.72292957
  entropy T*S    EENTRO =         0.00840790
  eigenvalues    EBANDS =     -1000.68966675
  atomic energy  EATOM  =     18662.21924712
  Solvation  Ediel_sol  =         0.00000000
  ---------------------------------------------------
  free energy    TOTEN  =       -48.72517858 eV

  energy without entropy =      -48.73358647  energy(sigma->0) =      -48.72798121


--------------------------------------------------------------------------------------------------------




--------------------------------------- Iteration      1(  13)  ---------------------------------------


    POTLOK:  cpu time    1.1336: real time    1.1340
    SETDIJ:  cpu time    0.0185: real time    0.0185
    EDDIAG:  cpu time    1.0976: real time    1.0983
  RMM-DIIS:  cpu time    7.1465: real time    7.1499
    ORTHCH:  cpu time    0.0522: real time    0.0522
       DOS:  cpu time    0.0005: real time    0.0005
    CHARGE:  cpu time    0.6554: real time    0.6554
    MIXING:  cpu time    0.0280: real time    0.0281
    --------------------------------------------
      LOOP:  cpu time   10.1322: real time   10.1368

 eigenvalue-minimisations  :   443
 total energy-change (2. order) : 0.7560325E-03  (-0.5813479E-03)
 number of electron     152.9999994 magnetization       1.0000000
 augmentation part       92.4484574 magnetization       0.0876380

 Broyden mixing:
  rms(total) = 0.96203E-02    rms(broyden)= 0.96199E-02
  rms(prec ) = 0.19025E-01
  weight for this iteration     100.00

 eigenvalues of (default mixing * dielectric matrix)
  average eigenvalue GAMMA=   1.1159
  2.4262  1.9171  1.3310  0.7790  0.7790  0.7169  0.5302  0.4474

 Free energy of the ion-electron system (eV)
  ---------------------------------------------------
  alpha Z        PSCENC =        41.16232785
  Ewald energy   TEWEN  =     16117.70447438
  -Hartree energ DENC   =    -33090.79695976
  -exchange      EXHF   =         0.00000000
  -V(xc)+E(xc)   XCENC  =       615.02785700
  PAW double counting   =     17584.80717528   -18982.77063108
  entropy T*S    EENTRO =         0.00843995
  eigenvalues    EBANDS =      -996.08635328
  atomic energy  EATOM  =     18662.21924712
  Solvation  Ediel_sol  =         0.00000000
  ---------------------------------------------------
  free energy    TOTEN  =       -48.72442254 eV

  energy without entropy =      -48.73286250  energy(sigma->0) =      -48.72723586


--------------------------------------------------------------------------------------------------------




--------------------------------------- Iteration      1(  14)  ---------------------------------------


    POTLOK:  cpu time    1.1343: real time    1.1397
    SETDIJ:  cpu time    0.0182: real time    0.0182
    EDDIAG:  cpu time    1.0988: real time    1.0995
  RMM-DIIS:  cpu time    7.2670: real time    7.2707
    ORTHCH:  cpu time    0.0520: real time    0.0521
       DOS:  cpu time    0.0005: real time    0.0005
    CHARGE:  cpu time    0.6543: real time    0.6546
    MIXING:  cpu time    0.0290: real time    0.0290
    --------------------------------------------
      LOOP:  cpu time   10.2542: real time   10.2642

 eigenvalue-minimisations  :   450
 total energy-change (2. order) :-0.1241216E-02  (-0.2937655E-03)
 number of electron     152.9999994 magnetization       1.0000000
 augmentation part       92.4504870 magnetization       0.0880080

 Broyden mixing:
  rms(total) = 0.90095E-02    rms(broyden)= 0.90093E-02
  rms(prec ) = 0.14697E-01
  weight for this iteration     100.00

 eigenvalues of (default mixing * dielectric matrix)
  average eigenvalue GAMMA=   1.1517
  2.4467  2.4467  1.3365  0.9906  0.7600  0.7600  0.6693  0.5050  0.4509

 Free energy of the ion-electron system (eV)
  ---------------------------------------------------
  alpha Z        PSCENC =        41.16232785
  Ewald energy   TEWEN  =     16117.70447438
  -Hartree energ DENC   =    -33095.95304517
  -exchange      EXHF   =         0.00000000
  -V(xc)+E(xc)   XCENC  =       615.06933587
  PAW double counting   =     17576.92298573   -18974.61231263
  entropy T*S    EENTRO =         0.00847260
  eigenvalues    EBANDS =      -991.24714950
  atomic energy  EATOM  =     18662.21924712
  Solvation  Ediel_sol  =         0.00000000
  ---------------------------------------------------
  free energy    TOTEN  =       -48.72566376 eV

  energy without entropy =      -48.73413636  energy(sigma->0) =      -48.72848796


--------------------------------------------------------------------------------------------------------




--------------------------------------- Iteration      1(  15)  ---------------------------------------


    POTLOK:  cpu time    1.1357: real time    1.1368
    SETDIJ:  cpu time    0.0176: real time    0.0176
    EDDIAG:  cpu time    1.0982: real time    1.0989
  RMM-DIIS:  cpu time    7.4840: real time    7.4888
    ORTHCH:  cpu time    0.0544: real time    0.0544
       DOS:  cpu time    0.0005: real time    0.0005
    CHARGE:  cpu time    0.6553: real time    0.6553
    MIXING:  cpu time    0.0300: real time    0.0300
    --------------------------------------------
      LOOP:  cpu time   10.4755: real time   10.4822

 eigenvalue-minimisations  :   407
 total energy-change (2. order) :-0.1159137E-02  (-0.1252091E-03)
 number of electron     152.9999994 magnetization       1.0000000
 augmentation part       92.4479105 magnetization       0.0881255

 Broyden mixing:
  rms(total) = 0.49544E-02    rms(broyden)= 0.49542E-02
  rms(prec ) = 0.92218E-02
  weight for this iteration     100.00

 eigenvalues of (default mixing * dielectric matrix)
  average eigenvalue GAMMA=   1.1866
  2.7219  2.7219  1.3338  1.3338  0.7681  0.7681  0.7270  0.5587  0.4542  0.4785

 Free energy of the ion-electron system (eV)
  ---------------------------------------------------
  alpha Z        PSCENC =        41.16232785
  Ewald energy   TEWEN  =     16117.70447438
  -Hartree energ DENC   =    -33099.02652090
  -exchange      EXHF   =         0.00000000
  -V(xc)+E(xc)   XCENC  =       615.10081608
  PAW double counting   =     17571.56767042   -18969.12407077
  entropy T*S    EENTRO =         0.00845293
  eigenvalues    EBANDS =      -988.33922000
  atomic energy  EATOM  =     18662.21924712
  Solvation  Ediel_sol  =         0.00000000
  ---------------------------------------------------
  free energy    TOTEN  =       -48.72682290 eV

  energy without entropy =      -48.73527583  energy(sigma->0) =      -48.72964054


--------------------------------------------------------------------------------------------------------




--------------------------------------- Iteration      1(  16)  ---------------------------------------


    POTLOK:  cpu time    1.1341: real time    1.1349
    SETDIJ:  cpu time    0.0176: real time    0.0176
    EDDIAG:  cpu time    1.0995: real time    1.1009
  RMM-DIIS:  cpu time    6.4584: real time    6.4605
    ORTHCH:  cpu time    0.0544: real time    0.0544
       DOS:  cpu time    0.0005: real time    0.0005
    CHARGE:  cpu time    0.6527: real time    0.6531
    MIXING:  cpu time    0.0305: real time    0.0305
    --------------------------------------------
      LOOP:  cpu time    9.4477: real time    9.4525

 eigenvalue-minimisations  :   393
 total energy-change (2. order) :-0.1613261E-02  (-0.8246828E-04)
 number of electron     152.9999994 magnetization       1.0000000
 augmentation part       92.4452683 magnetization       0.0881603

 Broyden mixing:
  rms(total) = 0.49517E-02    rms(broyden)= 0.49516E-02
  rms(prec ) = 0.73185E-02
  weight for this iteration     100.00

 eigenvalues of (default mixing * dielectric matrix)
  average eigenvalue GAMMA=   1.2344
  3.2815  2.6144  1.5089  1.5089  0.9145  0.7803  0.7803  0.7325  0.4486  0.5206
  0.4884

 Free energy of the ion-electron system (eV)
  ---------------------------------------------------
  alpha Z        PSCENC =        41.16232785
  Ewald energy   TEWEN  =     16117.70447438
  -Hartree energ DENC   =    -33101.59242707
  -exchange      EXHF   =         0.00000000
  -V(xc)+E(xc)   XCENC  =       615.12468979
  PAW double counting   =     17568.07653787   -18965.58050358
  entropy T*S    EENTRO =         0.00847155
  eigenvalues    EBANDS =      -985.85125407
  atomic energy  EATOM  =     18662.21924712
  Solvation  Ediel_sol  =         0.00000000
  ---------------------------------------------------
  free energy    TOTEN  =       -48.72843616 eV

  energy without entropy =      -48.73690770  energy(sigma->0) =      -48.73126001


--------------------------------------------------------------------------------------------------------




--------------------------------------- Iteration      1(  17)  ---------------------------------------


    POTLOK:  cpu time    1.1361: real time    1.1385
    SETDIJ:  cpu time    0.0180: real time    0.0180
    EDDIAG:  cpu time    1.1005: real time    1.1008
  RMM-DIIS:  cpu time    6.5865: real time    6.5902
    ORTHCH:  cpu time    0.0535: real time    0.0536
       DOS:  cpu time    0.0004: real time    0.0004
    CHARGE:  cpu time    0.6541: real time    0.6543
    MIXING:  cpu time    0.0316: real time    0.0316
    --------------------------------------------
      LOOP:  cpu time    9.5807: real time    9.5873

 eigenvalue-minimisations  :   401
 total energy-change (2. order) :-0.1618727E-02  (-0.4815308E-04)
 number of electron     152.9999994 magnetization       1.0000000
 augmentation part       92.4465609 magnetization       0.0881562

 Broyden mixing:
  rms(total) = 0.21845E-02    rms(broyden)= 0.21844E-02
  rms(prec ) = 0.37854E-02
  weight for this iteration     100.00

 eigenvalues of (default mixing * dielectric matrix)
  average eigenvalue GAMMA=   1.3368
  4.3963  2.5899  2.1521  1.3580  1.1244  0.7761  0.7761  0.7668  0.6557  0.5191
  0.4492  0.4785

 Free energy of the ion-electron system (eV)
  ---------------------------------------------------
  alpha Z        PSCENC =        41.16232785
  Ewald energy   TEWEN  =     16117.70447438
  -Hartree energ DENC   =    -33103.41274423
  -exchange      EXHF   =         0.00000000
  -V(xc)+E(xc)   XCENC  =       615.13137308
  PAW double counting   =     17566.71879198   -18964.20757938
  entropy T*S    EENTRO =         0.00847795
  eigenvalues    EBANDS =      -984.05442363
  atomic energy  EATOM  =     18662.21924712
  Solvation  Ediel_sol  =         0.00000000
  ---------------------------------------------------
  free energy    TOTEN  =       -48.73005488 eV

  energy without entropy =      -48.73853284  energy(sigma->0) =      -48.73288087


--------------------------------------------------------------------------------------------------------




--------------------------------------- Iteration      1(  18)  ---------------------------------------


    POTLOK:  cpu time    1.1363: real time    1.1367
    SETDIJ:  cpu time    0.0183: real time    0.0183
    EDDIAG:  cpu time    1.1014: real time    1.1018
  RMM-DIIS:  cpu time    6.7797: real time    6.7846
    ORTHCH:  cpu time    0.0545: real time    0.0545
       DOS:  cpu time    0.0005: real time    0.0005
    CHARGE:  cpu time    0.6529: real time    0.6529
    MIXING:  cpu time    0.0322: real time    0.0326
    --------------------------------------------
      LOOP:  cpu time    9.7758: real time    9.7820

 eigenvalue-minimisations  :   415
 total energy-change (2. order) :-0.8501967E-03  (-0.2081167E-04)
 number of electron     152.9999994 magnetization       1.0000000
 augmentation part       92.4442542 magnetization       0.0882832

 Broyden mixing:
  rms(total) = 0.14485E-02    rms(broyden)= 0.14485E-02
  rms(prec ) = 0.25920E-02
  weight for this iteration     100.00

 eigenvalues of (default mixing * dielectric matrix)
  average eigenvalue GAMMA=   1.3743
  5.1374  2.6755  2.2097  1.3041  1.3041  0.8650  0.8650  0.7321  0.7321  0.6028
  0.5156  0.4500  0.4724

 Free energy of the ion-electron system (eV)
  ---------------------------------------------------
  alpha Z        PSCENC =        41.16232785
  Ewald energy   TEWEN  =     16117.70447438
  -Hartree energ DENC   =    -33104.38866428
  -exchange      EXHF   =         0.00000000
  -V(xc)+E(xc)   XCENC  =       615.13454735
  PAW double counting   =     17566.82364254   -18964.34431470
  entropy T*S    EENTRO =         0.00847849
  eigenvalues    EBANDS =      -983.05064383
  atomic energy  EATOM  =     18662.21924712
  Solvation  Ediel_sol  =         0.00000000
  ---------------------------------------------------
  free energy    TOTEN  =       -48.73090508 eV

  energy without entropy =      -48.73938357  energy(sigma->0) =      -48.73373124


--------------------------------------------------------------------------------------------------------




--------------------------------------- Iteration      1(  19)  ---------------------------------------


    POTLOK:  cpu time    1.1342: real time    1.1353
    SETDIJ:  cpu time    0.0183: real time    0.0182
    EDDIAG:  cpu time    1.1006: real time    1.1009
  RMM-DIIS:  cpu time    7.6556: real time    7.6599
    ORTHCH:  cpu time    0.0546: real time    0.0546
       DOS:  cpu time    0.0005: real time    0.0005
    CHARGE:  cpu time    0.6527: real time    0.6527
    MIXING:  cpu time    0.0338: real time    0.0338
    --------------------------------------------
      LOOP:  cpu time   10.6501: real time   10.6560

 eigenvalue-minimisations  :   468
 total energy-change (2. order) :-0.7381449E-03  (-0.1062386E-04)
 number of electron     152.9999994 magnetization       1.0000000
 augmentation part       92.4439852 magnetization       0.0883033

 Broyden mixing:
  rms(total) = 0.11287E-02    rms(broyden)= 0.11286E-02
  rms(prec ) = 0.19489E-02
  weight for this iteration     100.00

 eigenvalues of (default mixing * dielectric matrix)
  average eigenvalue GAMMA=   1.4458
  6.0051  2.7187  2.2428  1.6009  1.6009  0.9990  0.9037  0.7523  0.7523  0.6682
  0.5570  0.5159  0.4492  0.4753

 Free energy of the ion-electron system (eV)
  ---------------------------------------------------
  alpha Z        PSCENC =        41.16232785
  Ewald energy   TEWEN  =     16117.70447438
  -Hartree energ DENC   =    -33104.80242251
  -exchange      EXHF   =         0.00000000
  -V(xc)+E(xc)   XCENC  =       615.13410783
  PAW double counting   =     17566.88876057   -18964.41811241
  entropy T*S    EENTRO =         0.00847789
  eigenvalues    EBANDS =      -982.62850394
  atomic energy  EATOM  =     18662.21924712
  Solvation  Ediel_sol  =         0.00000000
  ---------------------------------------------------
  free energy    TOTEN  =       -48.73164323 eV

  energy without entropy =      -48.74012111  energy(sigma->0) =      -48.73446919


--------------------------------------------------------------------------------------------------------




--------------------------------------- Iteration      1(  20)  ---------------------------------------


    POTLOK:  cpu time    1.1370: real time    1.1409
    SETDIJ:  cpu time    0.0180: real time    0.0180
    EDDIAG:  cpu time    1.1007: real time    1.1017
  RMM-DIIS:  cpu time    6.5319: real time    6.5358
    ORTHCH:  cpu time    0.0547: real time    0.0547
       DOS:  cpu time    0.0005: real time    0.0005
    CHARGE:  cpu time    0.6526: real time    0.6529
    MIXING:  cpu time    0.0359: real time    0.0359
    --------------------------------------------
      LOOP:  cpu time    9.5312: real time    9.5404

 eigenvalue-minimisations  :   404
 total energy-change (2. order) :-0.5489092E-03  (-0.4242077E-05)
 number of electron     152.9999994 magnetization       1.0000000
 augmentation part       92.4453525 magnetization       0.0883032

 Broyden mixing:
  rms(total) = 0.66958E-03    rms(broyden)= 0.66953E-03
  rms(prec ) = 0.11902E-02
  weight for this iteration     100.00

 eigenvalues of (default mixing * dielectric matrix)
  average eigenvalue GAMMA=   1.4681
  6.3891  2.7905  2.3841  2.0535  1.2815  1.2815  0.8756  0.8756  0.7370  0.7370
  0.6389  0.4492  0.4760  0.5257  0.5257

 Free energy of the ion-electron system (eV)
  ---------------------------------------------------
  alpha Z        PSCENC =        41.16232785
  Ewald energy   TEWEN  =     16117.70447438
  -Hartree energ DENC   =    -33104.85468460
  -exchange      EXHF   =         0.00000000
  -V(xc)+E(xc)   XCENC  =       615.13160758
  PAW double counting   =     17567.12906395   -18964.65529333
  entropy T*S    EENTRO =         0.00847445
  eigenvalues    EBANDS =      -982.57740953
  atomic energy  EATOM  =     18662.21924712
  Solvation  Ediel_sol  =         0.00000000
  ---------------------------------------------------
  free energy    TOTEN  =       -48.73219213 eV

  energy without entropy =      -48.74066658  energy(sigma->0) =      -48.73501695


--------------------------------------------------------------------------------------------------------




--------------------------------------- Iteration      1(  21)  ---------------------------------------


    POTLOK:  cpu time    1.1355: real time    1.1363
    SETDIJ:  cpu time    0.0182: real time    0.0182
    EDDIAG:  cpu time    1.1006: real time    1.1015
  RMM-DIIS:  cpu time    6.7630: real time    6.7677
    ORTHCH:  cpu time    0.0543: real time    0.0543
       DOS:  cpu time    0.0005: real time    0.0005
    CHARGE:  cpu time    0.6531: real time    0.6535
    MIXING:  cpu time    0.0372: real time    0.0372
    --------------------------------------------
      LOOP:  cpu time    9.7624: real time    9.7692

 eigenvalue-minimisations  :   400
 total energy-change (2. order) :-0.3849641E-03  (-0.3395739E-05)
 number of electron     152.9999994 magnetization       1.0000000
 augmentation part       92.4465979 magnetization       0.0882924

 Broyden mixing:
  rms(total) = 0.78957E-03    rms(broyden)= 0.78955E-03
  rms(prec ) = 0.11022E-02
  weight for this iteration     100.00

 eigenvalues of (default mixing * dielectric matrix)
  average eigenvalue GAMMA=   1.5081
  6.6682  3.3092  2.4890  2.1217  1.4315  1.4315  0.9590  0.9590  0.7499  0.7499
  0.6734  0.6276  0.4492  0.5177  0.5177  0.4752

 Free energy of the ion-electron system (eV)
  ---------------------------------------------------
  alpha Z        PSCENC =        41.16232785
  Ewald energy   TEWEN  =     16117.70447438
  -Hartree energ DENC   =    -33104.84854396
  -exchange      EXHF   =         0.00000000
  -V(xc)+E(xc)   XCENC  =       615.12917591
  PAW double counting   =     17567.33386939   -18964.85335384
  entropy T*S    EENTRO =         0.00847163
  eigenvalues    EBANDS =      -982.58824557
  atomic energy  EATOM  =     18662.21924712
  Solvation  Ediel_sol  =         0.00000000
  ---------------------------------------------------
  free energy    TOTEN  =       -48.73257710 eV

  energy without entropy =      -48.74104873  energy(sigma->0) =      -48.73540098


--------------------------------------------------------------------------------------------------------




--------------------------------------- Iteration      1(  22)  ---------------------------------------


    POTLOK:  cpu time    1.1355: real time    1.1358
    SETDIJ:  cpu time    0.0180: real time    0.0180
    EDDIAG:  cpu time    1.1003: real time    1.1008
  RMM-DIIS:  cpu time    6.5774: real time    6.6087
    ORTHCH:  cpu time    0.0539: real time    0.0539
       DOS:  cpu time    0.0005: real time    0.0005
    CHARGE:  cpu time    0.6537: real time    0.6538
    MIXING:  cpu time    0.0389: real time    0.0389
    --------------------------------------------
      LOOP:  cpu time    9.5781: real time    9.6104

 eigenvalue-minimisations  :   407
 total energy-change (2. order) :-0.2248602E-03  (-0.1724139E-05)
 number of electron     152.9999994 magnetization       1.0000000
 augmentation part       92.4458322 magnetization       0.0882797

 Broyden mixing:
  rms(total) = 0.38855E-03    rms(broyden)= 0.38850E-03
  rms(prec ) = 0.60197E-03
  weight for this iteration     100.00

 eigenvalues of (default mixing * dielectric matrix)
  average eigenvalue GAMMA=   1.5359
  7.0167  3.9271  2.4811  2.1487  1.5794  1.2525  1.2525  0.8702  0.8702  0.7553
  0.7553  0.6646  0.5821  0.4492  0.4758  0.5191  0.5098

 Free energy of the ion-electron system (eV)
  ---------------------------------------------------
  alpha Z        PSCENC =        41.16232785
  Ewald energy   TEWEN  =     16117.70447438
  -Hartree energ DENC   =    -33104.96213456
  -exchange      EXHF   =         0.00000000
  -V(xc)+E(xc)   XCENC  =       615.12936855
  PAW double counting   =     17567.52285054   -18965.05034899
  entropy T*S    EENTRO =         0.00847464
  eigenvalues    EBANDS =      -982.46706148
  atomic energy  EATOM  =     18662.21924712
  Solvation  Ediel_sol  =         0.00000000
  ---------------------------------------------------
  free energy    TOTEN  =       -48.73280196 eV

  energy without entropy =      -48.74127659  energy(sigma->0) =      -48.73562684


--------------------------------------------------------------------------------------------------------




--------------------------------------- Iteration      1(  23)  ---------------------------------------


    POTLOK:  cpu time    1.1361: real time    1.1369
    SETDIJ:  cpu time    0.0178: real time    0.0178
    EDDIAG:  cpu time    1.1001: real time    1.1005
  RMM-DIIS:  cpu time    6.4041: real time    6.4081
    ORTHCH:  cpu time    0.0542: real time    0.0543
       DOS:  cpu time    0.0005: real time    0.0005
    CHARGE:  cpu time    0.6534: real time    0.6537
    MIXING:  cpu time    0.0412: real time    0.0412
    --------------------------------------------
      LOOP:  cpu time    9.4073: real time    9.4130

 eigenvalue-minimisations  :   398
 total energy-change (2. order) :-0.1203758E-03  (-0.7886942E-06)
 number of electron     152.9999994 magnetization       1.0000000
 augmentation part       92.4449939 magnetization       0.0882890

 Broyden mixing:
  rms(total) = 0.28927E-03    rms(broyden)= 0.28926E-03
  rms(prec ) = 0.42301E-03
  weight for this iteration     100.00

 eigenvalues of (default mixing * dielectric matrix)
  average eigenvalue GAMMA=   1.5605
  7.3803  4.2400  2.4422  2.2519  1.7854  1.3214  1.3214  0.9652  0.9652  0.7656
  0.7656  0.6843  0.6843  0.4492  0.5615  0.4749  0.5155  0.5155

 Free energy of the ion-electron system (eV)
  ---------------------------------------------------
  alpha Z        PSCENC =        41.16232785
  Ewald energy   TEWEN  =     16117.70447438
  -Hartree energ DENC   =    -33105.04230890
  -exchange      EXHF   =         0.00000000
  -V(xc)+E(xc)   XCENC  =       615.13024154
  PAW double counting   =     17567.54265925   -18965.07647028
  entropy T*S    EENTRO =         0.00847474
  eigenvalues    EBANDS =      -982.38156803
  atomic energy  EATOM  =     18662.21924712
  Solvation  Ediel_sol  =         0.00000000
  ---------------------------------------------------
  free energy    TOTEN  =       -48.73292233 eV

  energy without entropy =      -48.74139707  energy(sigma->0) =      -48.73574725


--------------------------------------------------------------------------------------------------------




--------------------------------------- Iteration      1(  24)  ---------------------------------------


    POTLOK:  cpu time    1.1354: real time    1.1386
    SETDIJ:  cpu time    0.0178: real time    0.0178
    EDDIAG:  cpu time    1.1001: real time    1.1015
  RMM-DIIS:  cpu time    6.7879: real time    6.7925
    ORTHCH:  cpu time    0.0534: real time    0.0534
       DOS:  cpu time    0.0004: real time    0.0004
    CHARGE:  cpu time    0.6536: real time    0.6541
    MIXING:  cpu time    0.0427: real time    0.0427
    --------------------------------------------
      LOOP:  cpu time    9.7913: real time    9.8010

 eigenvalue-minimisations  :   401
 total energy-change (2. order) :-0.1040711E-03  (-0.8022914E-06)
 number of electron     152.9999994 magnetization       1.0000000
 augmentation part       92.4451944 magnetization       0.0883156

 Broyden mixing:
  rms(total) = 0.14364E-03    rms(broyden)= 0.14360E-03
  rms(prec ) = 0.23489E-03
  weight for this iteration     100.00

 eigenvalues of (default mixing * dielectric matrix)
  average eigenvalue GAMMA=   1.5800
  7.6788  4.5544  2.4200  2.4200  1.9137  1.3405  1.3405  1.0087  0.9580  0.9580
  0.7688  0.7688  0.7369  0.6375  0.4492  0.4750  0.5561  0.5176  0.5176

 Free energy of the ion-electron system (eV)
  ---------------------------------------------------
  alpha Z        PSCENC =        41.16232785
  Ewald energy   TEWEN  =     16117.70447438
  -Hartree energ DENC   =    -33105.04193820
  -exchange      EXHF   =         0.00000000
  -V(xc)+E(xc)   XCENC  =       615.13003257
  PAW double counting   =     17567.42937705   -18964.95806226
  entropy T*S    EENTRO =         0.00847497
  eigenvalues    EBANDS =      -982.38695987
  atomic energy  EATOM  =     18662.21924712
  Solvation  Ediel_sol  =         0.00000000
  ---------------------------------------------------
  free energy    TOTEN  =       -48.73302641 eV

  energy without entropy =      -48.74150137  energy(sigma->0) =      -48.73585139


--------------------------------------------------------------------------------------------------------




--------------------------------------- Iteration      1(  25)  ---------------------------------------


    POTLOK:  cpu time    1.1332: real time    1.1341
    SETDIJ:  cpu time    0.0187: real time    0.0187
    EDDIAG:  cpu time    1.1001: real time    1.1007
  RMM-DIIS:  cpu time    6.4097: real time    6.4137
    ORTHCH:  cpu time    0.0539: real time    0.0541
       DOS:  cpu time    0.0005: real time    0.0005
    CHARGE:  cpu time    0.6540: real time    0.6540
    MIXING:  cpu time    0.0449: real time    0.0449
    --------------------------------------------
      LOOP:  cpu time    9.4149: real time    9.4206

 eigenvalue-minimisations  :   395
 total energy-change (2. order) :-0.6054884E-04  (-0.4847244E-06)
 number of electron     152.9999994 magnetization       1.0000000
 augmentation part       92.4456057 magnetization       0.0883070

 Broyden mixing:
  rms(total) = 0.13617E-03    rms(broyden)= 0.13616E-03
  rms(prec ) = 0.19173E-03
  weight for this iteration     100.00

 eigenvalues of (default mixing * dielectric matrix)
  average eigenvalue GAMMA=   1.6146
  7.9403  4.9454  2.6092  2.6092  2.0108  1.5951  1.2436  1.2436  0.9838  0.9838
  0.7803  0.7803  0.7128  0.7128  0.6173  0.4492  0.5682  0.4748  0.5154  0.5154

 Free energy of the ion-electron system (eV)
  ---------------------------------------------------
  alpha Z        PSCENC =        41.16232785
  Ewald energy   TEWEN  =     16117.70447438
  -Hartree energ DENC   =    -33105.03030397
  -exchange      EXHF   =         0.00000000
  -V(xc)+E(xc)   XCENC  =       615.12959960
  PAW double counting   =     17567.34075625   -18964.86372013
  entropy T*S    EENTRO =         0.00847469
  eigenvalues    EBANDS =      -982.40394274
  atomic energy  EATOM  =     18662.21924712
  Solvation  Ediel_sol  =         0.00000000
  ---------------------------------------------------
  free energy    TOTEN  =       -48.73308695 eV

  energy without entropy =      -48.74156164  energy(sigma->0) =      -48.73591185


--------------------------------------------------------------------------------------------------------




--------------------------------------- Iteration      1(  26)  ---------------------------------------


    POTLOK:  cpu time    1.1347: real time    1.1356
    SETDIJ:  cpu time    0.0186: real time    0.0186
    EDDIAG:  cpu time    1.1003: real time    1.1008
  RMM-DIIS:  cpu time    6.0834: real time    6.0885
    ORTHCH:  cpu time    0.0532: real time    0.0532
       DOS:  cpu time    0.0005: real time    0.0005
    CHARGE:  cpu time    0.6511: real time    0.6512
    MIXING:  cpu time    0.0479: real time    0.0479
    --------------------------------------------
      LOOP:  cpu time    9.0898: real time    9.0962

 eigenvalue-minimisations  :   375
 total energy-change (2. order) :-0.3307161E-04  (-0.3115898E-06)
 number of electron     152.9999994 magnetization       1.0000000
 augmentation part       92.4454905 magnetization       0.0882991

 Broyden mixing:
  rms(total) = 0.53980E-04    rms(broyden)= 0.53975E-04
  rms(prec ) = 0.89865E-04
  weight for this iteration     100.00

 eigenvalues of (default mixing * dielectric matrix)
  average eigenvalue GAMMA=   1.6516
  8.1660  5.3878  3.1157  2.4768  2.0290  1.8358  1.3300  1.3300  0.9976  0.9976
  0.8302  0.8302  0.7687  0.7687  0.6762  0.6246  0.4492  0.5632  0.4749  0.5157
  0.5157

 Free energy of the ion-electron system (eV)
  ---------------------------------------------------
  alpha Z        PSCENC =        41.16232785
  Ewald energy   TEWEN  =     16117.70447438
  -Hartree energ DENC   =    -33105.03830675
  -exchange      EXHF   =         0.00000000
  -V(xc)+E(xc)   XCENC  =       615.12977434
  PAW double counting   =     17567.30586684   -18964.82936177
  entropy T*S    EENTRO =         0.00847486
  eigenvalues    EBANDS =      -982.39561688
  atomic energy  EATOM  =     18662.21924712
  Solvation  Ediel_sol  =         0.00000000
  ---------------------------------------------------
  free energy    TOTEN  =       -48.73312003 eV

  energy without entropy =      -48.74159488  energy(sigma->0) =      -48.73594498


--------------------------------------------------------------------------------------------------------




--------------------------------------- Iteration      1(  27)  ---------------------------------------


    POTLOK:  cpu time    1.1347: real time    1.1363
    SETDIJ:  cpu time    0.0185: real time    0.0185
    EDDIAG:  cpu time    1.0997: real time    1.1000
  RMM-DIIS:  cpu time    4.8383: real time    4.8416
    ORTHCH:  cpu time    0.0542: real time    0.0542
       DOS:  cpu time    0.0005: real time    0.0005
    CHARGE:  cpu time    0.6514: real time    0.6517
    MIXING:  cpu time    0.0507: real time    0.0507
    --------------------------------------------
      LOOP:  cpu time    7.8480: real time    7.8535

 eigenvalue-minimisations  :   281
 total energy-change (2. order) :-0.1420592E-04  (-0.1308298E-06)
 number of electron     152.9999994 magnetization       1.0000000
 augmentation part       92.4452811 magnetization       0.0883049

 Broyden mixing:
  rms(total) = 0.74032E-04    rms(broyden)= 0.74025E-04
  rms(prec ) = 0.97487E-04
  weight for this iteration     100.00

 eigenvalues of (default mixing * dielectric matrix)
  average eigenvalue GAMMA=   1.6295
  8.2200  5.5792  3.2611  2.4885  1.9649  1.9649  1.2550  1.2550  1.1179  1.0339
  1.0339  0.7752  0.7752  0.7026  0.7026  0.6010  0.6010  0.4492  0.4750  0.5173
  0.5173  0.5575

 Free energy of the ion-electron system (eV)
  ---------------------------------------------------
  alpha Z        PSCENC =        41.16232785
  Ewald energy   TEWEN  =     16117.70447438
  -Hartree energ DENC   =    -33105.04242045
  -exchange      EXHF   =         0.00000000
  -V(xc)+E(xc)   XCENC  =       615.12990401
  PAW double counting   =     17567.31222759   -18964.83791492
  entropy T*S    EENTRO =         0.00847485
  eigenvalues    EBANDS =      -982.38945466
  atomic energy  EATOM  =     18662.21924712
  Solvation  Ediel_sol  =         0.00000000
  ---------------------------------------------------
  free energy    TOTEN  =       -48.73313423 eV

  energy without entropy =      -48.74160909  energy(sigma->0) =      -48.73595918


--------------------------------------------------------------------------------------------------------




--------------------------------------- Iteration      1(  28)  ---------------------------------------


    POTLOK:  cpu time    1.1361: real time    1.1394
    SETDIJ:  cpu time    0.0177: real time    0.0178
    EDDIAG:  cpu time    1.1001: real time    1.1009
  RMM-DIIS:  cpu time    4.3835: real time    4.3856
    ORTHCH:  cpu time    0.0539: real time    0.0539
       DOS:  cpu time    0.0005: real time    0.0005
    CHARGE:  cpu time    0.6518: real time    0.6520
    MIXING:  cpu time    0.0546: real time    0.0546
[...]
     66      -4.8957      1.00000
     67      -4.8754      1.00000
     68      -4.8607      1.00000
     69      -4.8581      1.00000
     70      -4.8167      1.00000
     71      -4.8067      1.00000
     72      -4.7805      1.00000
     73      -4.7222      1.00000
     74      -4.5071      1.00000
     75      -4.1975      1.00000
     76      -4.0827      1.00000
     77      -3.5939      1.00000
     78      -2.9942     -0.00000
     79      -2.8464     -0.00000
     80      -2.6200     -0.00000
     81      -2.4190     -0.00000
     82      -1.9713     -0.00000
     83      -1.9376     -0.00000
     84      -1.7773     -0.00000
     85      -1.4811     -0.00000
     86      -1.1271     -0.00000
     87      -0.9212     -0.00000
     88      -0.7096      0.00000
     89      -0.2921      0.00000
     90      -0.0916      0.00000
     91       0.0722      0.00000
     92       0.1470      0.00000

 spin component 2

 k-point     1 :       0.0000    0.0000    0.0000
  band No.  band energies     occupation 
      1     -28.3643      1.00000
      2     -13.7722      1.00000
      3     -11.1932      1.00000
      4     -11.0608      1.00000
      5     -10.6730      1.00000
      6     -10.0267      1.00000
      7      -8.4688      1.00000
      8      -8.1273      1.00000
      9      -7.5956      1.00000
     10      -7.4047      1.00000
     11      -7.3048      1.00000
     12      -7.1815      1.00000
     13      -7.1443      1.00000
     14      -7.0444      1.00000
     15      -6.9165      1.00000
     16      -6.8407      1.00000
     17      -6.6967      1.00000
     18      -6.6429      1.00000
     19      -6.5535      1.00000
     20      -6.5057      1.00000
     21      -6.4774      1.00000
     22      -6.4638      1.00000
     23      -6.3948      1.00000
     24      -6.3700      1.00000
     25      -6.3203      1.00000
     26      -6.2651      1.00000
     27      -6.2322      1.00000
     28      -6.2071      1.00000
     29      -6.1733      1.00000
     30      -6.1527      1.00000
     31      -6.0923      1.00000
     32      -6.0635      1.00000
     33      -5.9859      1.00000
     34      -5.9403      1.00000
     35      -5.8570      1.00000
     36      -5.8158      1.00000
     37      -5.7864      1.00000
     38      -5.6613      1.00000
     39      -5.6494      1.00000
     40      -5.6048      1.00000
     41      -5.5214      1.00000
     42      -5.4872      1.00000
     43      -5.4650      1.00000
     44      -5.4375      1.00000
     45      -5.4025      1.00000
     46      -5.3753      1.00000
     47      -5.3319      1.00000
     48      -5.3134      1.00000
     49      -5.2971      1.00000
     50      -5.2802      1.00000
     51      -5.2570      1.00000
     52      -5.2210      1.00000
     53      -5.1991      1.00000
     54      -5.1821      1.00000
     55      -5.1717      1.00000
     56      -5.1348      1.00000
     57      -5.1111      1.00000
     58      -5.0983      1.00000
     59      -5.0757      1.00000
     60      -5.0337      1.00000
     61      -5.0168      1.00000
     62      -4.9922      1.00000
     63      -4.9797      1.00000
     64      -4.9593      1.00000
     65      -4.8972      1.00000
     66      -4.8660      1.00000
     67      -4.8417      1.00000
     68      -4.8327      1.00000
     69      -4.8223      1.00000
     70      -4.7863      1.00000
     71      -4.7737      1.00000
     72      -4.7578      1.00000
     73      -4.6920      1.00000
     74      -4.4649      1.00000
     75      -4.1319      1.02328
     76      -4.0476      0.97672
     77      -3.3871     -0.00000
     78      -2.9455     -0.00000
     79      -2.7955     -0.00000
     80      -2.5518     -0.00000
     81      -2.3292     -0.00000
     82      -1.9191     -0.00000
     83      -1.8801     -0.00000
     84      -1.7063     -0.00000
     85      -1.3743     -0.00000
     86      -0.9846      0.00000
     87      -0.8624      0.00000
     88      -0.6467      0.00000
     89      -0.3779      0.00000
     90      -0.2053      0.00000
     91      -0.0182      0.00000
     92       0.1549      0.00000


--------------------------------------------------------------------------------------------------------


 soft charge-density along one line, spin component           1
         0         1         2         3         4         5         6         7         8         9
 total charge-density along one line
 
 soft charge-density along one line, spin component           2
         0         1         2         3         4         5         6         7         8         9
 total charge-density along one line
 
 pseudopotential strength for first ion, spin component:           1
-10.505  -0.001  -0.018   0.001  -0.012   1.010   0.001   0.015
 -0.001 -10.476  -0.007   0.008   0.005   0.001   0.988   0.005
 -0.018  -0.007 -10.456   0.002  -0.011   0.015   0.005   0.972
  0.001   0.008   0.002 -10.461  -0.004  -0.001  -0.008  -0.001
 -0.012   0.005  -0.011  -0.004 -10.487   0.009  -0.004   0.010
  1.010   0.001   0.015  -0.001   0.009   6.299  -0.000  -0.013
  0.001   0.988   0.005  -0.008  -0.004  -0.000   6.311  -0.004
  0.015   0.005   0.972  -0.001   0.010  -0.013  -0.004   6.324
 -0.001  -0.008  -0.001   0.975   0.003   0.001   0.008   0.001
  0.009  -0.004   0.010   0.003   0.996  -0.006   0.002  -0.008
 -0.007   0.001  -0.006   0.000  -0.004   0.005   0.000  -0.000
 -0.014   0.001  -0.011   0.001  -0.008   0.010   0.000  -0.000
 -0.013  -0.000   0.005  -0.000   0.010   0.009   0.000  -0.004
 -0.000  -0.008  -0.000  -0.013  -0.000   0.000   0.005   0.000
 -0.007  -0.000   0.008  -0.000  -0.014   0.003   0.000  -0.006
 -0.014  -0.000   0.006  -0.000   0.012   0.009   0.001  -0.004
 -0.000  -0.009  -0.000  -0.014  -0.000   0.001   0.004   0.001
 -0.007  -0.000   0.009  -0.001  -0.015   0.002   0.001  -0.006
 pseudopotential strength for first ion, spin component:           2
-10.461  -0.002  -0.010  -0.008   0.003   0.974   0.001   0.008
 -0.002 -10.462  -0.007   0.008   0.003   0.001   0.975   0.005
 -0.010  -0.007 -10.442   0.000  -0.008   0.008   0.005   0.959
 -0.008   0.008   0.000 -10.445  -0.007   0.006  -0.006  -0.000
  0.003   0.003  -0.008  -0.007 -10.469  -0.002  -0.002   0.006
  0.974   0.001   0.008   0.006  -0.002   6.321  -0.000  -0.005
  0.001   0.975   0.005  -0.006  -0.002  -0.000   6.319  -0.004
  0.008   0.005   0.959  -0.000   0.006  -0.005  -0.004   6.330
  0.006  -0.006  -0.000   0.961   0.005  -0.004   0.005   0.000
 -0.002  -0.002   0.006   0.005   0.981   0.001   0.001  -0.005
 -0.003   0.002  -0.003   0.000  -0.003   0.000   0.000  -0.001
 -0.005   0.003  -0.005   0.000  -0.005   0.001   0.001  -0.003
 -0.015  -0.000   0.006   0.000   0.009   0.012  -0.000  -0.005
  0.000  -0.009   0.000  -0.015   0.000  -0.000   0.007  -0.001
 -0.010   0.000   0.009   0.001  -0.015   0.007  -0.000  -0.008
 -0.017   0.000   0.007   0.001   0.011   0.014  -0.001  -0.006
  0.001  -0.010   0.001  -0.016   0.001  -0.000   0.007  -0.001
 -0.012   0.001   0.010   0.001  -0.017   0.008  -0.000  -0.009
 total augmentation occupancy for first ion, spin component:           1
  1.931   0.004  -0.007   0.001  -0.006  -0.012  -0.001   0.008   0.000   0.005  -0.020   0.013   0.036   0.001   0.032  -0.020
  0.004   1.927  -0.006   0.006  -0.000  -0.001  -0.020   0.005  -0.001   0.000  -0.005  -0.001   0.003   0.038  -0.002  -0.001
 -0.007  -0.006   1.948   0.003  -0.004   0.008   0.005  -0.028  -0.003   0.003  -0.009   0.010  -0.009   0.001  -0.020   0.007
  0.001   0.006   0.003   1.938  -0.005  -0.000  -0.001  -0.003  -0.024   0.003   0.006   0.001   0.006   0.055   0.002  -0.000
 -0.006  -0.000  -0.004  -0.005   1.938   0.005   0.000   0.004   0.003  -0.016  -0.011   0.007  -0.008   0.006   0.035   0.012
 -0.012  -0.001   0.008  -0.000   0.005   0.013   0.000   0.002   0.000   0.001  -0.026  -0.000   0.021   0.001   0.006  -0.001
 -0.001  -0.020   0.005  -0.001   0.000   0.000   0.007   0.000   0.001  -0.000   0.008  -0.001  -0.000   0.011   0.002  -0.000
  0.008   0.005  -0.028  -0.003   0.004   0.002   0.000   0.006  -0.000   0.001  -0.040   0.005  -0.005  -0.001  -0.008   0.000
  0.000  -0.001  -0.003  -0.024   0.003   0.000   0.001  -0.000   0.008  -0.000  -0.000   0.001  -0.000   0.018  -0.001  -0.000
  0.005   0.000   0.003   0.003  -0.016   0.001  -0.000   0.001  -0.000   0.012  -0.015   0.000  -0.019  -0.002   0.021   0.001
 -0.020  -0.005  -0.009   0.006  -0.011  -0.026   0.008  -0.040  -0.000  -0.015   1.604  -0.110   0.108   0.004   0.179  -0.016
  0.013  -0.001   0.010   0.001   0.007  -0.000  -0.001   0.005   0.001   0.000  -0.110   0.013  -0.016   0.001  -0.026   0.002
  0.036   0.003  -0.009   0.006  -0.008   0.021  -0.000  -0.005  -0.000  -0.019   0.108  -0.016   0.174   0.002  -0.037  -0.011
  0.001   0.038   0.001   0.055   0.006   0.001   0.011  -0.001   0.018  -0.002   0.004   0.001   0.002   0.080  -0.004  -0.001
  0.032  -0.002  -0.020   0.002   0.035   0.006   0.002  -0.008  -0.001   0.021   0.179  -0.026  -0.037  -0.004   0.132   0.001
 -0.020  -0.001   0.007  -0.000   0.012  -0.001  -0.000   0.000  -0.000   0.001  -0.016   0.002  -0.011  -0.001   0.001   0.001
 -0.000  -0.014  -0.001  -0.022   0.000  -0.000  -0.001   0.000  -0.001   0.000   0.000  -0.000  -0.001  -0.005   0.000   0.000
 -0.013  -0.000   0.011  -0.001  -0.020  -0.000  -0.000   0.001   0.000  -0.001  -0.025   0.002   0.001   0.000  -0.010   0.000
 total augmentation occupancy for first ion, spin component:           2
  0.018  -0.001   0.002  -0.006   0.009  -0.003  -0.000  -0.002   0.001  -0.002   0.038   0.007  -0.012   0.006  -0.017  -0.001
 -0.001   0.000  -0.000   0.002  -0.001  -0.000   0.002  -0.000   0.001   0.000  -0.003  -0.001   0.002  -0.003   0.002   0.000
  0.002  -0.000   0.002  -0.001   0.001  -0.002  -0.000   0.002   0.000  -0.001   0.005   0.000  -0.000   0.003  -0.000   0.000
 -0.006   0.002  -0.001   0.004  -0.003   0.001   0.001   0.000   0.002   0.000  -0.013  -0.002   0.003  -0.006   0.006   0.000
  0.009  -0.001   0.001  -0.003   0.004  -0.002   0.000  -0.001   0.000   0.002   0.018   0.003  -0.002   0.003  -0.010  -0.000
 -0.003  -0.000  -0.002   0.001  -0.002   0.001  -0.000   0.000  -0.000   0.000  -0.008  -0.001   0.002  -0.002   0.004   0.000
 -0.000   0.002  -0.000   0.001   0.000  -0.000  -0.000   0.000  -0.000  -0.000   0.000   0.000   0.000   0.000  -0.000  -0.000
 -0.002  -0.000   0.002   0.000  -0.001   0.000   0.000  -0.000  -0.000   0.000  -0.002  -0.000   0.000  -0.000   0.001   0.000
  0.001   0.001   0.000   0.002   0.000  -0.000  -0.000  -0.000  -0.000  -0.000   0.002   0.000  -0.001   0.000  -0.001  -0.000
 -0.002   0.000  -0.001   0.000   0.002   0.000  -0.000   0.000  -0.000  -0.000  -0.004  -0.000   0.001  -0.001   0.001   0.000
  0.038  -0.003   0.005  -0.013   0.018  -0.008   0.000  -0.002   0.002  -0.004   0.098   0.005  -0.023   0.017  -0.038  -0.000
  0.007  -0.001   0.000  -0.002   0.003  -0.001   0.000  -0.000   0.000  -0.000   0.005   0.001  -0.001   0.001  -0.002  -0.000
 -0.012   0.002  -0.000   0.003  -0.002   0.002   0.000   0.000  -0.001   0.001  -0.023  -0.001   0.005  -0.003   0.006   0.000
  0.006  -0.003   0.003  -0.006   0.003  -0.002   0.000  -0.000   0.000  -0.001   0.017   0.001  -0.003   0.003  -0.005  -0.000
 -0.017   0.002  -0.000   0.006  -0.010   0.004  -0.000   0.001  -0.001   0.001  -0.038  -0.002   0.006  -0.005   0.011   0.000
 -0.001   0.000   0.000   0.000  -0.000   0.000  -0.000   0.000  -0.000   0.000  -0.000  -0.000   0.000  -0.000   0.000   0.000
  0.000  -0.001   0.000  -0.001   0.000   0.000  -0.000  -0.000  -0.000   0.000  -0.000   0.000   0.000   0.000  -0.000  -0.000
 -0.001   0.000   0.000   0.001  -0.001   0.000   0.000   0.000  -0.000   0.000  -0.000  -0.000   0.000  -0.000   0.000   0.000


------------------------ aborting loop because EDIFF is reached ----------------------------------------


    CHARGE:  cpu time    0.6522: real time    0.6540
    FORLOC:  cpu time    0.0657: real time    0.0657
    FORNL :  cpu time    1.5355: real time    1.5358
    STRESS:  cpu time    5.8166: real time    5.8192
    FORCOR:  cpu time    1.1467: real time    1.1472
    FORHAR:  cpu time    0.1882: real time    0.1882
    MIXING:  cpu time    0.1183: real time    0.1183
    OFIELD:  cpu time    0.0000: real time    0.0000

  FORCE on cell =-STRESS in cart. coord.  units (eV):
  Direction    XX          YY          ZZ          XY          YZ          ZX
  --------------------------------------------------------------------------------------
  Alpha Z    41.16233    41.16233    41.16233
  Ewald   10241.15875  7368.84818 -1492.31861  -749.53956   257.98761   -66.53820
  Hartree 15376.61747 12849.31185  4879.11440  -638.02407   236.27152  -104.11699
  E(xc)    -875.98218  -877.41369  -879.08820    -0.25133     0.01296     0.25328
  Local  -27013.34557-21645.59292 -4819.89048  1383.49873  -494.34086   176.72764
  n-local  -333.18076  -324.57820  -330.01364    -0.87967    -0.37549    -0.05713
  augment  1222.86492  1225.97370  1231.39559     0.59684    -0.25967    -1.30059
  Kinetic  1335.89704  1361.02761  1367.95634     2.82535     0.13572    -4.33855
  Fock        0.00000     0.00000     0.00000     0.00000     0.00000     0.00000
  -------------------------------------------------------------------------------------
  Total      -4.80800    -1.26113    -1.68228    -1.77369    -0.56820     0.62947
  in kB      -2.28245    -0.59868    -0.79861    -0.84201    -0.26974     0.29882
  external pressure =       -1.23 kB  Pullay stress =        0.00 kB


 VOLUME and BASIS-vectors are now :
 -----------------------------------------------------------------------------
  energy-cutoff  :      600.00
  volume of cell :     3375.00
      direct lattice vectors                 reciprocal lattice vectors
    15.000000000  0.000000000  0.000000000     0.066666667  0.000000000  0.000000000
     0.000000000 15.000000000  0.000000000     0.000000000  0.066666667  0.000000000
     0.000000000  0.000000000 15.000000000     0.000000000  0.000000000  0.066666667

  length of vectors
    15.000000000 15.000000000 15.000000000     0.066666667  0.066666667  0.066666667


 FORCES acting on ions
    electron-ion (+dipol)            ewald-force                    non-local-force                 convergence-correction
 -----------------------------------------------------------------------------------------------
   0.108E+04 0.680E+03 -.590E+02   -.108E+04 -.677E+03 0.592E+02   -.492E+01 -.299E+01 -.386E+00   0.213E-04 0.290E-04 0.703E-06
   0.459E+03 -.310E+03 0.884E+03   -.458E+03 0.308E+03 -.885E+03   -.134E+01 0.244E+01 0.341E+00   0.393E-05 -.139E-04 0.301E-04
   0.284E+03 0.126E+04 -.203E+03   -.282E+03 -.126E+04 0.201E+03   -.197E+01 -.892E+01 0.218E+01   -.449E-05 0.238E-04 -.437E-05
   -.810E+03 -.127E+03 0.923E+03   0.808E+03 0.127E+03 -.918E+03   0.146E+01 0.569E+00 -.505E+01   -.285E-04 0.957E-05 0.106E-04
   -.821E+03 0.100E+04 0.125E+03   0.816E+03 -.996E+03 -.125E+03   0.480E+01 -.559E+01 -.717E+00   -.102E-04 0.136E-04 -.191E-05
   -.172E+03 0.496E+03 -.944E+03   0.170E+03 -.493E+03 0.944E+03   0.203E+01 -.337E+01 0.148E+00   -.241E-04 0.245E-04 -.204E-04
   0.190E+03 0.628E+03 0.120E+04   -.189E+03 -.624E+03 -.119E+04   -.156E+01 -.438E+01 -.602E+01   -.320E-05 0.195E-04 0.312E-04
   0.124E+04 -.361E+03 0.168E+03   -.123E+04 0.358E+03 -.165E+03   -.888E+01 0.286E+01 -.301E+01   0.159E-04 -.864E-05 0.287E-05
   0.565E+03 -.216E+03 -.122E+04   -.561E+03 0.215E+03 0.122E+04   -.366E+01 0.108E+01 0.719E+01   0.438E-05 -.432E-05 -.317E-04
   0.442E+03 -.123E+04 -.170E+03   -.439E+03 0.123E+04 0.168E+03   -.284E+01 0.711E+01 0.213E+01   -.655E-06 -.312E-04 0.311E-05
   -.443E+03 -.105E+04 0.728E+03   0.439E+03 0.104E+04 -.721E+03   0.367E+01 0.615E+01 -.699E+01   0.175E-05 -.170E-04 0.100E-04
   -.907E+03 0.972E+01 -.354E+03   0.905E+03 -.108E+02 0.351E+03   0.272E+01 0.110E+01 0.441E+01   0.491E-04 0.432E-05 0.150E-04
   -.575E+03 -.753E+03 -.823E+03   0.572E+03 0.749E+03 0.819E+03   0.293E+01 0.380E+01 0.319E+01   -.240E-04 -.182E-04 -.207E-04
   -.901E+02 -.629E+02 -.115E+03   0.701E+02 0.657E+02 0.113E+03   0.204E+02 -.338E+01 0.144E+01   0.935E-05 -.631E-06 0.124E-05
   -.401E+03 0.253E+02 -.126E+03   0.457E+03 -.338E+02 0.132E+03   -.579E+02 0.886E+01 -.672E+01   -.966E-05 0.226E-05 -.582E-05
 -----------------------------------------------------------------------------------------------
   0.450E+02 -.535E+01 0.785E+01   0.227E-12 -.867E-12 -.682E-12   -.450E+02 0.534E+01 -.785E+01   0.844E-06 0.326E-04 0.200E-04
 
 
 POSITION                                       TOTAL-FORCE (eV/Angst)
 -----------------------------------------------------------------------------------
      4.31412      6.22104      8.41901         0.282494      0.273118     -0.102562
      5.62750      8.15957      7.40054        -0.000640      0.194823      0.146131
      5.90037      4.38738      8.45730         0.099416     -0.043668      0.078088
      8.05820      7.58384      7.15682        -0.613917      0.054949     -0.174812
      8.17977      5.21491      7.98318         0.216254      0.330720      0.024986
      6.64389      6.60158      9.23407         0.448711     -0.537372     -0.394134
      6.26855      5.97230      6.67859        -0.115405     -0.061597      0.376573
      3.41018      8.50126      8.23247        -0.083830      0.204119      0.002423
      4.99170      8.14055      9.94416         0.200798      0.298917     -0.383169
      5.29510     10.27130      8.55847        -0.102738     -0.361304      0.031868
      7.26317      9.97903      7.10523        -0.021468     -0.081068      0.007153
      9.45240      7.34657      8.93943         0.562496     -0.006378      0.724438
      7.30234      8.88169      9.19088        -0.049519      0.007957     -0.001982
     11.20930      7.58930      9.70155         0.339856     -0.619770     -0.208897
     12.35610      7.42148      9.83493        -1.162505      0.346556     -0.126104
 -----------------------------------------------------------------------------------
    total drift:                                0.001035     -0.002319     -0.000484


--------------------------------------------------------------------------------------------------------



  FREE ENERGIE OF THE ION-ELECTRON SYSTEM (eV)
  ---------------------------------------------------
  free  energy   TOTEN  =       -48.73314748 eV

  energy  without entropy=      -48.74162213  energy(sigma->0) =      -48.73597236
 


--------------------------------------------------------------------------------------------------------


    POTLOK:  cpu time    1.1546: real time    1.1561


--------------------------------------------------------------------------------------------------------


     LOOP+:  cpu time  353.7766: real time  354.0578
    4ORBIT:  cpu time    0.0000: real time    0.0000

 total amount of memory used by VASP MPI-rank0   158680. kBytes
=======================================================================

   base      :      30000. kBytes
   nonl-proj :      12601. kBytes
   fftplans  :      27994. kBytes
   grid      :      74150. kBytes
   one-center:         93. kBytes
   wavefun   :      13842. kBytes
 
  
  
 General timing and accounting informations for this job:
 ========================================================
  
                  Total CPU time used (sec):      357.704
                            User time (sec):      345.967
                          System time (sec):       11.737
                         Elapsed time (sec):      358.027
  
                   Maximum memory used (kb):      281224.
                   Average memory used (kb):           0.
  
                          Minor page faults:       299129
                          Major page faults:            0
                 Voluntary context switches:          893
