<?xml version="1.0" encoding="ISO-8859-1"?>
<modeling>
 <generator>
  <i name="program" type="string">vasp </i>
  <i name="version" type="string">5.4.4.18Apr17-6-g9f103f2a35  </i>
  <i name="subversion" type="string">(build May 08 2019 13:49:07) complex            parallel </i>
  <i name="platform" type="string">LinuxIFC </i>
  <i name="date" type="string">2019 11 13 </i>
  <i name="time" type="string">15:43:43 </i>
 </generator>
 <incar>
  <i type="string" name="SYSTEM"> CuCO</i>
  <i type="int" name="ISTART">     0</i>
  <i type="string" name="PREC">accurate</i>
  <i type="string" name="ALGO"> Fast</i>
  <i type="int" name="ISPIN">     2</i>
  <i type="int" name="INIWAV">     1</i>
  <i type="int" name="NELM">   300</i>
  <i type="int" name="NELMIN">     3</i>
  <i type="int" name="IBRION">    -1</i>
  <i name="EDIFF">      0.00000010</i>
  <i name="EDIFFG">     -0.00100000</i>
  <i type="int" name="NSW">     0</i>
  <i type="int" name="ISYM">     0</i>
  <i name="ENCUT">    600.00000000</i>
  <i name="NUPDOWN">      1.00000000</i>
  <i type="logical" name="LREAL"> F  </i>
  <i type="int" name="ISMEAR">     1</i>
  <i name="SIGMA">      0.10000000</i>
  <i name="KSPACING">      0.50000000</i>
  <i type="logical" name="KGAMMA"> F  </i>
  <i type="logical" name="LWAVE"> F  </i>
  <i type="logical" name="LCHARG"> F  </i>
  <v type="int" name="KPOINT_BSE">    -1     0     0     0</v>
  <i type="int" name="NELM">   300</i>
  <i type="string" name="GGA"> PE</i>
 </incar>
 <structure name="primitive_cell" >
  <crystal>
   <varray name="basis" >
    <v>      15.00000000       0.00000000       0.00000000 </v>
    <v>       0.00000000      15.00000000       0.00000000 </v>
    <v>       0.00000000       0.00000000      15.00000000 </v>
   </varray>
   <i name="volume">   3375.00000000 </i>
   <varray name="rec_basis" >
    <v>       0.06666667       0.00000000       0.00000000 </v>
    <v>       0.00000000       0.06666667       0.00000000 </v>
    <v>       0.00000000       0.00000000       0.06666667 </v>
   </varray>
  </crystal>
  <varray name="positions" >
   <v>       0.28760800       0.41473600      -0.43873267 </v>
   <v>       0.39335800       0.29249200      -0.43618000 </v>
   <v>       0.22734533      -0.43324933      -0.45116867 </v>
   <v>       0.44292600       0.44010533      -0.38439533 </v>
   <v>       0.33278000      -0.45729667      -0.33705600 </v>
   <v>       0.37516667      -0.45602867       0.49336933 </v>
   <v>       0.41790333       0.39815333       0.44523933 </v>
   <v>      -0.45468200       0.34766067      -0.46778800 </v>
   <v>       0.48682267      -0.40788733      -0.38727467 </v>
   <v>       0.35300667      -0.31524667      -0.42943533 </v>
   <v>      -0.46278667      -0.49441067       0.47712133 </v>
   <v>       0.48421133      -0.33473133       0.47368200 </v>
   <v>      -0.36984000       0.48977133      -0.40403800 </v>
   <v>      -0.25271333      -0.49404667      -0.35323000 </v>
   <v>      -0.17626000       0.49476533      -0.34433800 </v>
  </varray>
 </structure>
 <varray name="primitive_index" >
  <v type="int" >        1 </v>
  <v type="int" >        3 </v>
  <v type="int" >        8 </v>
  <v type="int" >        6 </v>
  <v type="int" >        9 </v>
  <v type="int" >        2 </v>
  <v type="int" >        7 </v>
  <v type="int" >        5 </v>
  <v type="int" >       13 </v>
  <v type="int" >       10 </v>
  <v type="int" >        4 </v>
  <v type="int" >       11 </v>
  <v type="int" >       12 </v>
  <v type="int" >       14 </v>
  <v type="int" >       15 </v>
 </varray>
 <kpoints>
  <generation param="Monkhorst-Pack">
   <v type="int" name="divisions">       1        1        1 </v>
   <v name="usershift">      0.00000000       0.00000000       0.00000000 </v>
   <v name="genvec1">      1.00000000       0.00000000       0.00000000 </v>
   <v name="genvec2">      0.00000000       1.00000000       0.00000000 </v>
   <v name="genvec3">      0.00000000       0.00000000       1.00000000 </v>
   <v name="shift">      0.00000000       0.00000000       0.00000000 </v>
  </generation>
  <varray name="kpointlist" >
   <v>       0.00000000       0.00000000       0.00000000 </v>
  </varray>
  <varray name="weights" >
   <v>       1.00000000 </v>
  </varray>
 </kpoints>
 <parameters>
  <separator name="general" >
   <i type="string" name="SYSTEM">CuCO</i>
   <i type="logical" name="LCOMPAT"> F  </i>
  </separator>
  <separator name="electronic" >
   <i type="string" name="PREC">accura</i>
   <i name="ENMAX">    600.00000000</i>
   <i name="ENAUG">    644.87300000</i>
   <i name="EDIFF">      0.00000010</i>
   <i type="int" name="IALGO">    68</i>
   <i type="int" name="IWAVPR">    10</i>
   <i type="int" name="NBANDS">    92</i>
   <i name="NELECT">    153.00000000</i>
   <i type="int" name="TURBO">     0</i>
   <i type="int" name="IRESTART">     0</i>
   <i type="int" name="NREBOOT">     0</i>
   <i type="int" name="NMIN">     0</i>
   <i name="EREF">      0.00000000</i>
   <separator name="electronic smearing" >
    <i type="int" name="ISMEAR">     1</i>
    <i name="SIGMA">      0.10000000</i>
    <i name="KSPACING">      0.50000000</i>
    <i type="logical" name="KGAMMA"> F  </i>
   </separator>
   <separator name="electronic projectors" >
    <i type="logical" name="LREAL"> F  </i>
    <v name="ROPT">      0.00000000      0.00000000      0.00000000</v>
    <i type="int" name="LMAXPAW">  -100</i>
    <i type="int" name="LMAXMIX">     2</i>
    <i type="logical" name="NLSPLINE"> F  </i>
   </separator>
   <separator name="electronic startup" >
    <i type="int" name="ISTART">     0</i>
    <i type="int" name="ICHARG">     2</i>
    <i type="int" name="INIWAV">     1</i>
   </separator>
   <separator name="electronic spin" >
    <i type="int" name="ISPIN">     2</i>
    <i type="logical" name="LNONCOLLINEAR"> F  </i>
    <v name="MAGMOM">      0.06666667      0.06666667      0.06666667      0.06666667      0.06666667      0.06666667      0.06666667      0.06666667      0.06666667      0.06666667      0.06666667      0.06666667      0.06666667      0.06666667      0.06666667</v>
    <i name="NUPDOWN">      1.00000000</i>
    <i type="logical" name="LSORBIT"> F  </i>
    <v name="SAXIS">      0.00000000      0.00000000      1.00000000</v>
    <i type="logical" name="LSPIRAL"> F  </i>
    <v name="QSPIRAL">      0.00000000      0.00000000      0.00000000</v>
    <i type="logical" name="LZEROZ"> F  </i>
   </separator>
   <separator name="electronic exchange-correlation" >
    <i type="logical" name="LASPH"> F  </i>
    <i type="logical" name="LMETAGGA"> F  </i>
   </separator>
   <separator name="electronic convergence" >
    <i type="int" name="NELM">   300</i>
    <i type="int" name="NELMDL">    -5</i>
    <i type="int" name="NELMIN">     3</i>
    <i name="ENINI">    600.00000000</i>
    <separator name="electronic convergence detail" >
     <i type="logical" name="LDIAG"> T  </i>
     <i type="logical" name="LSUBROT"> F  </i>
     <i name="WEIMIN">      0.00000000</i>
     <i name="EBREAK">      0.00000000</i>
     <i name="DEPER">      0.30000000</i>
     <i type="int" name="NRMM">     4</i>
     <i name="TIME">      0.40000000</i>
    </separator>
   </separator>
   <separator name="electronic mixer" >
    <i name="AMIX">      0.40000000</i>
    <i name="BMIX">      1.00000000</i>
    <i name="AMIN">      0.10000000</i>
    <i name="AMIX_MAG">      1.60000000</i>
    <i name="BMIX_MAG">      1.00000000</i>
    <separator name="electronic mixer details" >
     <i type="int" name="IMIX">     4</i>
     <i type="logical" name="MIXFIRST"> F  </i>
     <i type="int" name="MAXMIX">   -45</i>
     <i name="WC">    100.00000000</i>
     <i type="int" name="INIMIX">     1</i>
     <i type="int" name="MIXPRE">     1</i>
     <i type="int" name="MREMOVE">     5</i>
    </separator>
   </separator>
   <separator name="electronic dipolcorrection" >
    <i type="logical" name="LDIPOL"> F  </i>
    <i type="logical" name="LMONO"> F  </i>
    <i type="int" name="IDIPOL">     0</i>
    <i name="EPSILON">      1.00000000</i>
    <v name="DIPOL">   -100.00000000   -100.00000000   -100.00000000</v>
    <i name="EFIELD">      0.00000000</i>
   </separator>
  </separator>
  <separator name="grids" >
   <i type="int" name="NGX">   120</i>
   <i type="int" name="NGY">   120</i>
   <i type="int" name="NGZ">   120</i>
   <i type="int" name="NGXF">   240</i>
   <i type="int" name="NGYF">   240</i>
   <i type="int" name="NGZF">   240</i>
   <i type="logical" name="ADDGRID"> F  </i>
  </separator>
  <separator name="ionic" >
   <i type="int" name="NSW">     0</i>
   <i type="int" name="IBRION">    -1</i>
   <i type="int" name="MDALGO">     0</i>
   <i type="int" name="ISIF">     2</i>
   <i name="PSTRESS">      0.00000000</i>
   <i name="EDIFFG">     -0.00100000</i>
   <i type="int" name="NFREE">     0</i>
   <i name="POTIM">      0.50000000</i>
   <i name="SMASS">     -3.00000000</i>
   <i name="SCALEE">      1.00000000</i>
  </separator>
  <separator name="ionic md" >
   <i name="TEBEG">      0.00010000</i>
   <i name="TEEND">      0.00010000</i>
   <i type="int" name="NBLOCK">     1</i>
   <i type="int" name="KBLOCK">     1</i>
   <i type="int" name="NPACO">   256</i>
   <i name="APACO">     16.00000000</i>
  </separator>
  <separator name="symmetry" >
   <i type="int" name="ISYM">     0</i>
   <i name="SYMPREC">      0.00001000</i>
  </separator>
  <separator name="dos" >
   <i type="int" name="LORBIT">     0</i>
   <v name="RWIGS">     -1.00000000     -1.00000000     -1.00000000</v>
   <i type="int" name="NEDOS">   301</i>
   <i name="EMIN">     10.00000000</i>
   <i name="EMAX">    -10.00000000</i>
   <i name="EFERMI">      0.00000000</i>
  </separator>
  <separator name="writing" >
   <i type="int" name="NWRITE">     2</i>
   <i type="logical" name="LWAVE"> F  </i>
   <i type="logical" name="LDOWNSAMPLE"> F  </i>
   <i type="logical" name="LCHARG"> F  </i>
   <i type="logical" name="LPARD"> F  </i>
   <i type="logical" name="LVTOT"> F  </i>
   <i type="logical" name="LVHAR"> F  </i>
   <i type="logical" name="LELF"> F  </i>
   <i type="logical" name="LOPTICS"> F  </i>
   <v name="STM">      0.00000000      0.00000000      0.00000000      0.00000000      0.00000000      0.00000000      0.00000000</v>
  </separator>
  <separator name="performance" >
   <i type="int" name="NPAR">     4</i>
   <i type="int" name="NSIM">     4</i>
   <i type="int" name="NBLK">    -1</i>
   <i type="logical" name="LPLANE"> T  </i>
   <i type="logical" name="LSCALAPACK"> T  </i>
   <i type="logical" name="LSCAAWARE"> F  </i>
   <i type="logical" name="LSCALU"> F  </i>
   <i type="logical" name="LASYNC"> F  </i>
   <i type="logical" name="LORBITALREAL"> F  </i>
  </separator>
  <separator name="miscellaneous" >
   <i type="int" name="IDIOT">     3</i>
   <i type="int" name="ISPECIAL">     0</i>
   <i type="logical" name="LMUSIC"> F  </i>
   <v name="POMASS">     63.54600000     12.01100000     16.00000000</v>
   <v name="DARWINR">      0.00000000      0.00000000      0.00000000</v>
   <v name="DARWINV">      1.00000000      1.00000000      1.00000000</v>
   <i type="logical" name="LCORR"> T  </i>
  </separator>
  <i type="logical" name="GGA_COMPAT"> T  </i>
  <i type="logical" name="LBERRY"> F  </i>
  <i type="int" name="ICORELEVEL">     0</i>
  <i type="logical" name="LDAU"> F  </i>
  <i type="int" name="I_CONSTRAINED_M">     0</i>
  <separator name="electronic exchange-correlation" >
   <i type="string" name="GGA">PE</i>
   <i type="int" name="VOSKOWN">     0</i>
   <i type="logical" name="LHFCALC"> F  </i>
   <i type="string" name="PRECFOCK"></i>
   <i type="logical" name="LSYMGRAD"> F  </i>
   <i type="logical" name="LHFONE"> F  </i>
   <i type="logical" name="LRHFCALC"> F  </i>
   <i type="logical" name="LTHOMAS"> F  </i>
   <i type="logical" name="LMODELHF"> F  </i>
   <i name="ENCUT4O">     -1.00000000</i>
   <i type="int" name="EXXOEP">     0</i>
   <i type="int" name="FOURORBIT">     0</i>
   <i name="AEXX">      0.00000000</i>
   <i name="HFALPHA">      0.00000000</i>
   <i name="MCALPHA">      0.00000000</i>
   <i name="ALDAX">      1.00000000</i>
   <i name="AGGAX">      1.00000000</i>
   <i name="ALDAC">      1.00000000</i>
   <i name="AGGAC">      1.00000000</i>
   <i type="int" name="NKREDX">     1</i>
   <i type="int" name="NKREDY">     1</i>
   <i type="int" name="NKREDZ">     1</i>
   <i type="logical" name="SHIFTRED"> F  </i>
   <i type="logical" name="ODDONLY"> F  </i>
   <i type="logical" name="EVENONLY"> F  </i>
   <i type="int" name="LMAXFOCK">     0</i>
   <i type="int" name="NMAXFOCKAE">     0</i>
   <i type="logical" name="LFOCKAEDFT"> F  </i>
   <i name="HFSCREEN">      0.00000000</i>
   <i name="HFSCREENC">      0.00000000</i>
   <i type="int" name="NBANDSGWLOW">     0</i>
  </separator>
  <separator name="vdW DFT" >
   <i type="logical" name="LUSE_VDW"> F  </i>
   <i name="Zab_VDW">     -0.84910000</i>
   <i name="PARAM1">      0.12340000</i>
   <i name="PARAM2">      1.00000000</i>
   <i name="PARAM3">      0.00000000</i>
  </separator>
  <separator name="model GW" >
   <i type="int" name="MODEL_GW">     0</i>
   <i name="MODEL_EPS0">    135.00000000</i>
   <i name="MODEL_ALPHA">      1.00000000</i>
  </separator>
  <separator name="linear response parameters" >
   <i type="logical" name="LEPSILON"> F  </i>
   <i type="logical" name="LRPA"> F  </i>
   <i type="logical" name="LNABLA"> F  </i>
   <i type="logical" name="LVEL"> F  </i>
   <i type="int" name="KINTER">     0</i>
   <i name="CSHIFT">      0.10000000</i>
   <i name="OMEGAMAX">     -1.00000000</i>
   <i name="DEG_THRESHOLD">      0.00200000</i>
   <i name="RTIME">     -0.10000000</i>
   <i name="WPLASMAI">      0.00000000</i>
   <v name="DFIELD">      0.00000000      0.00000000      0.00000000</v>
   <v name="WPLASMA">      0.00000000      0.00000000      0.00000000      0.00000000      0.00000000      0.00000000      0.00000000      0.00000000      0.00000000</v>
  </separator>
  <separator name="orbital magnetization" >
   <i type="logical" name="NUCIND"> F  </i>
   <v name="MAGPOS">      0.00000000      0.00000000      0.00000000</v>
   <i type="logical" name="LNICSALL"> T  </i>
   <i type="logical" name="ORBITALMAG"> F  </i>
   <i type="logical" name="LMAGBLOCH"> F  </i>
   <i type="logical" name="LCHIMAG"> F  </i>
   <i type="logical" name="LGAUGE"> T  </i>
   <i type="int" name="MAGATOM">     0</i>
   <v name="MAGDIPOL">      0.00000000      0.00000000      0.00000000</v>
   <v name="AVECCONST">      0.00000000      0.00000000      0.00000000</v>
  </separator>
  <separator name="response functions" >
   <i type="logical" name="LADDER"> F  </i>
   <i type="logical" name="LRPAFORCE"> F  </i>
   <i type="logical" name="LFXC"> F  </i>
   <i type="logical" name="LHARTREE"> T  </i>
   <i type="int" name="IBSE">     0</i>
   <v type="int" name="KPOINT">    -1     0     0     0</v>
   <i type="logical" name="LTCTE"> F  </i>
   <i type="logical" name="LTETE"> F  </i>
   <i type="logical" name="LTRIPLET"> F  </i>
   <i type="logical" name="LFXCEPS"> F  </i>
   <i type="logical" name="LFXHEG"> F  </i>
   <i type="int" name="NATURALO">     2</i>
   <i type="logical" name="L2ORDER"> F  </i>
   <i type="logical" name="LMP2LT"> F  </i>
   <i type="logical" name="LUSEW"> F  </i>
   <i name="ENCUTGW">     -2.00000000</i>
   <i name="ENCUTGWSOFT">     -2.00000000</i>
   <i name="ENCUTLF">     -1.00000000</i>
   <i type="int" name="LMAXMP2">    -1</i>
   <i name="SCISSOR">      0.00000000</i>
   <i type="int" name="NOMEGA">     0</i>
   <i type="int" name="NOMEGAR">     0</i>
   <i type="int" name="NBANDSGW">    -1</i>
   <i type="int" name="NBANDSO">    -1</i>
   <i type="int" name="NBANDSV">    -1</i>
   <i type="int" name="NELM">   300</i>
   <i type="int" name="NELMHF">     1</i>
   <i type="int" name="DIM">     3</i>
   <i type="int" name="ANTIRES">     0</i>
   <i name="OMEGAMAX">    -30.00000000</i>
   <i name="OMEGAMIN">    -30.00000000</i>
   <i name="OMEGATL">   -200.00000000</i>
   <i type="int" name="OMEGAGRID">   140</i>
   <i name="CSHIFT">     -0.10000000</i>
   <i type="logical" name="SELFENERGY"> F  </i>
   <i type="logical" name="LSPECTRAL"> F  </i>
   <i type="logical" name="LSPECTRALGW"> F  </i>
   <i type="logical" name="LSINGLES"> F  </i>
   <i type="logical" name="LFERMIGW"> F  </i>
   <i type="logical" name="ODDONLYGW"> F  </i>
   <i type="logical" name="EVENONLYGW"> F  </i>
   <i type="int" name="NKREDLFX">     1</i>
   <i type="int" name="NKREDLFY">     1</i>
   <i type="int" name="NKREDLFZ">     1</i>
   <i type="int" name="MAXMEM">  2800</i>
   <i type="int" name="TELESCOPE">     0</i>
   <i type="int" name="TAUPAR">     1</i>
   <i type="int" name="OMEGAPAR">    -1</i>
   <i name="LAMBDA">      1.00000000</i>
  </separator>
  <separator name="External order field" >
   <i name="OFIELD_KAPPA">      0.00000000</i>
   <v name="OFIELD_K">      0.00000000      0.00000000      0.00000000</v>
   <i name="OFIELD_Q6_NEAR">      0.00000000</i>
   <i name="OFIELD_Q6_FAR">      0.00000000</i>
   <i name="OFIELD_A">      0.00000000</i>
  </separator>
 </parameters>
 <atominfo>
  <atoms>      15 </atoms>
  <types>       3 </types>
  <array name="atoms" >
   <dimension dim="1">ion</dimension>
   <field type="string">element</field>
   <field type="int">atomtype</field>
   <set>
    <rc><c>Cu</c><c>   1</c></rc>
    <rc><c>Cu</c><c>   1</c></rc>
    <rc><c>Cu</c><c>   1</c></rc>
    <rc><c>Cu</c><c>   1</c></rc>
    <rc><c>Cu</c><c>   1</c></rc>
    <rc><c>Cu</c><c>   1</c></rc>
    <rc><c>Cu</c><c>   1</c></rc>
    <rc><c>Cu</c><c>   1</c></rc>
    <rc><c>Cu</c><c>   1</c></rc>
    <rc><c>Cu</c><c>   1</c></rc>
    <rc><c>Cu</c><c>   1</c></rc>
    <rc><c>Cu</c><c>   1</c></rc>
    <rc><c>Cu</c><c>   1</c></rc>
    <rc><c>C </c><c>   2</c></rc>
    <rc><c>O </c><c>   3</c></rc>
   </set>
  </array>
  <array name="atomtypes" >
   <dimension dim="1">type</dimension>
   <field type="int">atomspertype</field>
   <field type="string">element</field>
   <field>mass</field>
   <field>valence</field>
   <field type="string">pseudopotential</field>
   <set>
    <rc><c>  13</c><c>Cu</c><c>     63.54600000</c><c>     11.00000000</c><c>  PAW_PBE Cu 22Jun2005                  </c></rc>
    <rc><c>   1</c><c>C </c><c>     12.01100000</c><c>      4.00000000</c><c>  PAW_PBE C 08Apr2002                   </c></rc>
    <rc><c>   1</c><c>O </c><c>     16.00000000</c><c>      6.00000000</c><c>  PAW_PBE O 08Apr2002                   </c></rc>
   </set>
  </array>
 </atominfo>
 <structure name="initialpos" >
  <crystal>
   <varray name="basis" >
    <v>      15.00000000       0.00000000       0.00000000 </v>
    <v>       0.00000000      15.00000000       0.00000000 </v>
    <v>       0.00000000       0.00000000      15.00000000 </v>
   </varray>
   <i name="volume">   3375.00000000 </i>
   <varray name="rec_basis" >
    <v>       0.06666667       0.00000000       0.00000000 </v>
    <v>       0.00000000       0.06666667       0.00000000 </v>
    <v>       0.00000000       0.00000000       0.06666667 </v>
   </varray>
  </crystal>
  <varray name="positions" >
   <v>       0.28760800       0.41473600       0.56126733 </v>
   <v>       0.37516667       0.54397133       0.49336933 </v>
   <v>       0.39335800       0.29249200       0.56382000 </v>
   <v>       0.53721333       0.50558933       0.47712133 </v>
   <v>       0.54531800       0.34766067       0.53221200 </v>
   <v>       0.44292600       0.44010533       0.61560467 </v>
   <v>       0.41790333       0.39815333       0.44523933 </v>
   <v>       0.22734533       0.56675067       0.54883133 </v>
   <v>       0.33278000       0.54270333       0.66294400 </v>
   <v>       0.35300667       0.68475333       0.57056467 </v>
   <v>       0.48421133       0.66526867       0.47368200 </v>
   <v>       0.63016000       0.48977133       0.59596200 </v>
   <v>       0.48682267       0.59211267       0.61272533 </v>
   <v>       0.74728667       0.50595333       0.64677000 </v>
   <v>       0.82374000       0.49476533       0.65566200 </v>
  </varray>
 </structure>
 <calculation>
  <scstep>
   <time name="dav">    7.56    7.57</time>
   <time name="total">    8.73    8.74</time>
   <energy>
    <i name="alphaZ">     41.16232785 </i>
    <i name="ewald">  16117.70447438 </i>
    <i name="hartreedc"> -33146.92294029 </i>
    <i name="XCdc">    622.98178921 </i>
    <i name="pawpsdc">  16421.75059358 </i>
    <i name="pawaedc"> -17800.06104309 </i>
    <i name="eentropy">     -0.01561592 </i>
    <i name="bandstr">    196.89643189 </i>
    <i name="atom">  18662.21924712 </i>
    <i name="e_fr_energy">   1115.71526472 </i>
    <i name="e_wo_entrp">   1115.73088064 </i>
    <i name="e_0_energy">   1115.72047003 </i>
   </energy>
  </scstep>
  <scstep>
   <time name="dav">    7.41    7.42</time>
   <time name="total">    7.41    7.42</time>
   <energy>
    <i name="e_fr_energy">     88.06645035 </i>
    <i name="e_wo_entrp">     88.06057590 </i>
    <i name="e_0_energy">     88.06449220 </i>
   </energy>
  </scstep>
  <scstep>
   <time name="dav">   11.80   11.80</time>
   <time name="total">   11.80   11.80</time>
   <energy>
    <i name="e_fr_energy">    -32.53719984 </i>
    <i name="e_wo_entrp">    -32.54617122 </i>
    <i name="e_0_energy">    -32.54019030 </i>
   </energy>
  </scstep>
  <scstep>
   <time name="dav">   10.42   10.43</time>
   <time name="total">   10.42   10.43</time>
   <energy>
    <i name="e_fr_energy">    -55.22459093 </i>
    <i name="e_wo_entrp">    -55.23393181 </i>
    <i name="e_0_energy">    -55.22770456 </i>
   </energy>
  </scstep>
  <scstep>
   <time name="dav">   12.09   12.09</time>
   <time name="total">   12.78   12.78</time>
   <energy>
    <i name="e_fr_energy">    -56.75374611 </i>
    <i name="e_wo_entrp">    -56.76319678 </i>
    <i name="e_0_energy">    -56.75689633 </i>
   </energy>
  </scstep>
  <scstep>
   <time name="diag">    1.10    1.10</time>
   <time name="diis">    6.78    6.78</time>
   <time name="orth">    0.06    0.06</time>
   <time name="total">    9.75    9.76</time>
   <energy>
    <i name="e_fr_energy">    -55.62002852 </i>
    <i name="e_wo_entrp">    -55.62659923 </i>
    <i name="e_0_energy">    -55.62221876 </i>
   </energy>
  </scstep>
  <scstep>
   <time name="diag">    1.10    1.10</time>
   <time name="diis">    6.26    6.27</time>
   <time name="orth">    0.06    0.06</time>
   <time name="total">    9.24    9.24</time>
   <energy>
    <i name="e_fr_energy">    -49.08260927 </i>
    <i name="e_wo_entrp">    -49.09030878 </i>
    <i name="e_0_energy">    -49.08517578 </i>
   </energy>
  </scstep>
  <scstep>
   <time name="diag">    1.10    1.10</time>
   <time name="diis">    7.50    7.50</time>
   <time name="orth">    0.06    0.06</time>
   <time name="total">   10.48   10.49</time>
   <energy>
    <i name="e_fr_energy">    -48.83133583 </i>
    <i name="e_wo_entrp">    -48.83954397 </i>
    <i name="e_0_energy">    -48.83407187 </i>
   </energy>
  </scstep>
  <scstep>
   <time name="diag">    1.10    1.10</time>
   <time name="diis">    6.83    6.84</time>
   <time name="orth">    0.05    0.05</time>
   <time name="total">    9.82    9.82</time>
   <energy>
    <i name="e_fr_energy">    -48.79560446 </i>
    <i name="e_wo_entrp">    -48.80430426 </i>
    <i name="e_0_energy">    -48.79850439 </i>
   </energy>
  </scstep>
  <scstep>
   <time name="diag">    1.10    1.10</time>
   <time name="diis">    6.76    6.77</time>
   <time name="orth">    0.05    0.05</time>
   <time name="total">    9.75    9.75</time>
   <energy>
    <i name="e_fr_energy">    -48.73673651 </i>
    <i name="e_wo_entrp">    -48.74503336 </i>
    <i name="e_0_energy">    -48.73950213 </i>
   </energy>
  </scstep>
  <scstep>
   <time name="diag">    1.10    1.10</time>
   <time name="diis">    7.09    7.10</time>
   <time name="orth">    0.05    0.05</time>
   <time name="total">   10.08   10.09</time>
   <energy>
    <i name="e_fr_energy">    -48.72757351 </i>
    <i name="e_wo_entrp">    -48.73613791 </i>
    <i name="e_0_energy">    -48.73042831 </i>
   </energy>
  </scstep>
  <scstep>
   <time name="diag">    1.10    1.10</time>
   <time name="diis">    7.15    7.16</time>
   <time name="orth">    0.05    0.05</time>
   <time name="total">   10.14   10.14</time>
   <energy>
    <i name="e_fr_energy">    -48.72517858 </i>
    <i name="e_wo_entrp">    -48.73358647 </i>
    <i name="e_0_energy">    -48.72798121 </i>
   </energy>
  </scstep>
  <scstep>
   <time name="diag">    1.10    1.10</time>
   <time name="diis">    7.15    7.15</time>
   <time name="orth">    0.05    0.05</time>
   <time name="total">   10.13   10.14</time>
   <energy>
    <i name="e_fr_energy">    -48.72442254 </i>
    <i name="e_wo_entrp">    -48.73286250 </i>
    <i name="e_0_energy">    -48.72723586 </i>
   </energy>
  </scstep>
  <scstep>
   <time name="diag">    1.10    1.10</time>
   <time name="diis">    7.27    7.27</time>
   <time name="orth">    0.05    0.05</time>
   <time name="total">   10.25   10.26</time>
   <energy>
    <i name="e_fr_energy">    -48.72566376 </i>
    <i name="e_wo_entrp">    -48.73413636 </i>
    <i name="e_0_energy">    -48.72848796 </i>
   </energy>
  </scstep>
  <scstep>
   <time name="diag">    1.10    1.10</time>
   <time name="diis">    7.48    7.49</time>
   <time name="orth">    0.05    0.05</time>
   <time name="total">   10.48   10.48</time>
   <energy>
    <i name="e_fr_energy">    -48.72682290 </i>
    <i name="e_wo_entrp">    -48.73527583 </i>
    <i name="e_0_energy">    -48.72964054 </i>
   </energy>
  </scstep>
  <scstep>
   <time name="diag">    1.10    1.10</time>
   <time name="diis">    6.46    6.46</time>
   <time name="orth">    0.05    0.05</time>
   <time name="total">    9.45    9.45</time>
   <energy>
    <i name="e_fr_energy">    -48.72843616 </i>
    <i name="e_wo_entrp">    -48.73690770 </i>
    <i name="e_0_energy">    -48.73126001 </i>
   </energy>
  </scstep>
  <scstep>
   <time name="diag">    1.10    1.10</time>
   <time name="diis">    6.59    6.59</time>
   <time name="orth">    0.05    0.05</time>
   <time name="total">    9.58    9.59</time>
   <energy>
    <i name="e_fr_energy">    -48.73005488 </i>
    <i name="e_wo_entrp">    -48.73853284 </i>
    <i name="e_0_energy">    -48.73288087 </i>
   </energy>
  </scstep>
  <scstep>
   <time name="diag">    1.10    1.10</time>
   <time name="diis">    6.78    6.78</time>
   <time name="orth">    0.05    0.05</time>
   <time name="total">    9.78    9.78</time>
   <energy>
    <i name="e_fr_energy">    -48.73090508 </i>
    <i name="e_wo_entrp">    -48.73938357 </i>
    <i name="e_0_energy">    -48.73373124 </i>
   </energy>
  </scstep>
  <scstep>
   <time name="diag">    1.10    1.10</time>
   <time name="diis">    7.66    7.66</time>
   <time name="orth">    0.05    0.05</time>
   <time name="total">   10.65   10.66</time>
   <energy>
    <i name="e_fr_energy">    -48.73164323 </i>
    <i name="e_wo_entrp">    -48.74012111 </i>
    <i name="e_0_energy">    -48.73446919 </i>
   </energy>
  </scstep>
  <scstep>
   <time name="diag">    1.10    1.10</time>
   <time name="diis">    6.53    6.54</time>
   <time name="orth">    0.05    0.05</time>
   <time name="total">    9.53    9.54</time>
   <energy>
    <i name="e_fr_energy">    -48.73219213 </i>
    <i name="e_wo_entrp">    -48.74066658 </i>
    <i name="e_0_energy">    -48.73501695 </i>
   </energy>
  </scstep>
  <scstep>
   <time name="diag">    1.10    1.10</time>
   <time name="diis">    6.76    6.77</time>
   <time name="orth">    0.05    0.05</time>
   <time name="total">    9.76    9.77</time>
   <energy>
    <i name="e_fr_energy">    -48.73257710 </i>
    <i name="e_wo_entrp">    -48.74104873 </i>
    <i name="e_0_energy">    -48.73540098 </i>
   </energy>
  </scstep>
  <scstep>
   <time name="diag">    1.10    1.10</time>
   <time name="diis">    6.58    6.61</time>
   <time name="orth">    0.05    0.05</time>
   <time name="total">    9.58    9.61</time>
   <energy>
    <i name="e_fr_energy">    -48.73280196 </i>
    <i name="e_wo_entrp">    -48.74127659 </i>
    <i name="e_0_energy">    -48.73562684 </i>
   </energy>
  </scstep>
  <scstep>
   <time name="diag">    1.10    1.10</time>
   <time name="diis">    6.40    6.41</time>
   <time name="orth">    0.05    0.05</time>
   <time name="total">    9.41    9.41</time>
   <energy>
    <i name="e_fr_energy">    -48.73292233 </i>
    <i name="e_wo_entrp">    -48.74139707 </i>
    <i name="e_0_energy">    -48.73574725 </i>
   </energy>
  </scstep>
  <scstep>
   <time name="diag">    1.10    1.10</time>
   <time name="diis">    6.79    6.79</time>
   <time name="orth">    0.05    0.05</time>
   <time name="total">    9.79    9.80</time>
   <energy>
    <i name="e_fr_energy">    -48.73302641 </i>
    <i name="e_wo_entrp">    -48.74150137 </i>
    <i name="e_0_energy">    -48.73585139 </i>
   </energy>
  </scstep>
  <scstep>
   <time name="diag">    1.10    1.10</time>
   <time name="diis">    6.41    6.41</time>
   <time name="orth">    0.05    0.05</time>
   <time name="total">    9.41    9.42</time>
   <energy>
    <i name="e_fr_energy">    -48.73308695 </i>
    <i name="e_wo_entrp">    -48.74156164 </i>
    <i name="e_0_energy">    -48.73591185 </i>
   </energy>
  </scstep>
  <scstep>
   <time name="diag">    1.10    1.10</time>
   <time name="diis">    6.08    6.09</time>
   <time name="orth">    0.05    0.05</time>
   <time name="total">    9.09    9.10</time>
   <energy>
    <i name="e_fr_energy">    -48.73312003 </i>
    <i name="e_wo_entrp">    -48.74159488 </i>
    <i name="e_0_energy">    -48.73594498 </i>
   </energy>
  </scstep>
  <scstep>
   <time name="diag">    1.10    1.10</time>
   <time name="diis">    4.84    4.84</time>
   <time name="orth">    0.05    0.05</time>
   <time name="total">    7.85    7.85</time>
   <energy>
    <i name="e_fr_energy">    -48.73313423 </i>
    <i name="e_wo_entrp">    -48.74160909 </i>
    <i name="e_0_energy">    -48.73595918 </i>
   </energy>
  </scstep>
  <scstep>
   <time name="diag">    1.10    1.10</time>
   <time name="diis">    4.38    4.39</time>
   <time name="orth">    0.05    0.05</time>
   <time name="total">    7.40    7.40</time>
   <energy>
    <i name="e_fr_energy">    -48.73313908 </i>
    <i name="e_wo_entrp">    -48.74161377 </i>
    <i name="e_0_energy">    -48.73596398 </i>
   </energy>
  </scstep>
  <scstep>
   <time name="diag">    1.10    1.10</time>
   <time name="diis">    4.43    4.44</time>
   <time name="orth">    0.05    0.05</time>
   <time name="total">    7.45    7.45</time>
   <energy>
    <i name="e_fr_energy">    -48.73314241 </i>
    <i name="e_wo_entrp">    -48.74161706 </i>
    <i name="e_0_energy">    -48.73596730 </i>
   </energy>
  </scstep>
  <scstep>
   <time name="diag">    1.10    1.10</time>
   <time name="diis">    4.37    4.38</time>
   <time name="orth">    0.05    0.05</time>
   <time name="total">    7.40    7.40</time>
   <energy>
    <i name="e_fr_energy">    -48.73314454 </i>
    <i name="e_wo_entrp">    -48.74161921 </i>
    <i name="e_0_energy">    -48.73596943 </i>
   </energy>
  </scstep>
  <scstep>
   <time name="diag">    1.10    1.10</time>
   <time name="diis">    4.79    4.80</time>
   <time name="orth">    0.05    0.05</time>
   <time name="total">    7.83    7.83</time>
   <energy>
    <i name="e_fr_energy">    -48.73314534 </i>
    <i name="e_wo_entrp">    -48.74162000 </i>
    <i name="e_0_energy">    -48.73597023 </i>
   </energy>
  </scstep>
  <scstep>
   <time name="diag">    1.10    1.10</time>
   <time name="diis">    4.37    4.37</time>
   <time name="orth">    0.05    0.05</time>
   <time name="total">    7.42    7.42</time>
   <energy>
    <i name="e_fr_energy">    -48.73314599 </i>
    <i name="e_wo_entrp">    -48.74162065 </i>
    <i name="e_0_energy">    -48.73597087 </i>
   </energy>
  </scstep>
  <scstep>
   <time name="diag">    1.10    1.10</time>
   <time name="diis">    4.26    4.26</time>
   <time name="orth">    0.05    0.05</time>
   <time name="total">    7.31    7.31</time>
   <energy>
    <i name="e_fr_energy">    -48.73314649 </i>
    <i name="e_wo_entrp">    -48.74162113 </i>
    <i name="e_0_energy">    -48.73597137 </i>
   </energy>
  </scstep>
  <scstep>
   <time name="diag">    1.10    1.10</time>
   <time name="diis">    3.90    3.90</time>
   <time name="orth">    0.05    0.05</time>
   <time name="total">    6.95    6.96</time>
   <energy>
    <i name="e_fr_energy">    -48.73314695 </i>
    <i name="e_wo_entrp">    -48.74162161 </i>
    <i name="e_0_energy">    -48.73597184 </i>
   </energy>
  </scstep>
  <scstep>
   <time name="diag">    1.10    1.10</time>
   <time name="diis">    3.92    3.92</time>
   <time name="orth">    0.05    0.05</time>
   <time name="total">    6.98    6.99</time>
   <energy>
    <i name="e_fr_energy">    -48.73314718 </i>
    <i name="e_wo_entrp">    -48.74162183 </i>
    <i name="e_0_energy">    -48.73597206 </i>
   </energy>
  </scstep>
  <scstep>
   <time name="diag">    1.10    1.10</time>
   <time name="diis">    3.62    3.62</time>
   <time name="orth">    0.05    0.05</time>
   <time name="total">    6.69    6.69</time>
   <energy>
    <i name="e_fr_energy">    -48.73314733 </i>
    <i name="e_wo_entrp">    -48.74162198 </i>
    <i name="e_0_energy">    -48.73597221 </i>
   </energy>
  </scstep>
  <scstep>
   <time name="diag">    1.10    1.10</time>
   <time name="diis">    3.64    3.64</time>
   <time name="orth">    0.05    0.05</time>
   <time name="total">    6.71    6.72</time>
   <energy>
    <i name="e_fr_energy">    -48.73314744 </i>
    <i name="e_wo_entrp">    -48.74162209 </i>
    <i name="e_0_energy">    -48.73597233 </i>
   </energy>
  </scstep>
  <scstep>
   <time name="diag">    1.10    1.10</time>
   <time name="diis">    3.49    3.49</time>
   <time name="orth">    0.05    0.05</time>
   <time name="total">    5.81    5.81</time>
   <energy>
    <i name="alphaZ">     41.16232785 </i>
    <i name="ewald">  16117.70447438 </i>
    <i name="hartreedc"> -33105.04384194 </i>
    <i name="XCdc">    615.12972702 </i>
    <i name="pawpsdc">  17567.31685894 </i>
    <i name="pawaedc"> -18964.84257430 </i>
    <i name="eentropy">      0.00847465 </i>
    <i name="bandstr">   -982.38784119 </i>
    <i name="atom">  18662.21924712 </i>
    <i name="e_fr_energy">    -48.73314748 </i>
    <i name="e_wo_entrp">    -48.74162213 </i>
    <i name="e_0_energy">    -48.73597236 </i>
   </energy>
  </scstep>
  <structure>
   <crystal>
    <varray name="basis" >
     <v>      15.00000000       0.00000000       0.00000000 </v>
     <v>       0.00000000      15.00000000       0.00000000 </v>
     <v>       0.00000000       0.00000000      15.00000000 </v>
    </varray>
    <i name="volume">   3375.00000000 </i>
    <varray name="rec_basis" >
     <v>       0.06666667       0.00000000       0.00000000 </v>
     <v>       0.00000000       0.06666667       0.00000000 </v>
     <v>       0.00000000       0.00000000       0.06666667 </v>
    </varray>
   </crystal>
   <varray name="positions" >
    <v>       0.28760800       0.41473600       0.56126733 </v>
    <v>       0.37516667       0.54397133       0.49336933 </v>
    <v>       0.39335800       0.29249200       0.56382000 </v>
    <v>       0.53721333       0.50558933       0.47712133 </v>
    <v>       0.54531800       0.34766067       0.53221200 </v>
    <v>       0.44292600       0.44010533       0.61560467 </v>
    <v>       0.41790333       0.39815333       0.44523933 </v>
    <v>       0.22734533       0.56675067       0.54883133 </v>
    <v>       0.33278000       0.54270333       0.66294400 </v>
    <v>       0.35300667       0.68475333       0.57056467 </v>
    <v>       0.48421133       0.66526867       0.47368200 </v>
    <v>       0.63016000       0.48977133       0.59596200 </v>
    <v>       0.48682267       0.59211267       0.61272533 </v>
    <v>       0.74728667       0.50595333       0.64677000 </v>
    <v>       0.82374000       0.49476533       0.65566200 </v>
   </varray>
  </structure>
  <varray name="forces" >
   <v>       0.28249356       0.27311817      -0.10256212 </v>
   <v>      -0.00064032       0.19482341       0.14613140 </v>
   <v>       0.09941614      -0.04366762       0.07808766 </v>
   <v>      -0.61391735       0.05494865      -0.17481244 </v>
   <v>       0.21625421       0.33071982       0.02498605 </v>
   <v>       0.44871068      -0.53737212      -0.39413405 </v>
   <v>      -0.11540513      -0.06159746       0.37657301 </v>
   <v>      -0.08383013       0.20411858       0.00242257 </v>
   <v>       0.20079756       0.29891686      -0.38316935 </v>
   <v>      -0.10273781      -0.36130431       0.03186839 </v>
   <v>      -0.02146850      -0.08106813       0.00715347 </v>
   <v>       0.56249563      -0.00637842       0.72443752 </v>
   <v>      -0.04951876       0.00795701      -0.00198197 </v>
   <v>       0.33985566      -0.61977041      -0.20889653 </v>
   <v>      -1.16250545       0.34655598      -0.12610361 </v>
  </varray>
  <varray name="stress" >
   <v>      -2.28245000      -0.84200590       0.29882040 </v>
   <v>      -0.84200591      -0.59868411      -0.26973711 </v>
   <v>       0.29882040      -0.26973711      -0.79861136 </v>
  </varray>
  <energy>
   <i name="e_fr_energy">    -48.73314748 </i>
   <i name="e_wo_entrp">    -48.73597236 </i>
   <i name="e_0_energy">      0.00847465 </i>
  </energy>
  <time name="totalsc">  353.78  354.06</time>
  <eigenvalues>
   <array>
    <dimension dim="1">band</dimension>
    <dimension dim="2">kpoint</dimension>
    <dimension dim="3">spin</dimension>
    <field>eigene</field>
    <field>occ</field>
    <set>
     <set comment="spin 1">
      <set comment="kpoint 1">
       <r>  -28.3853    1.0000 </r>
       <r>  -13.8101    1.0000 </r>
       <r>  -11.2204    1.0000 </r>
       <r>  -11.0976    1.0000 </r>
       <r>  -10.7256    1.0000 </r>
       <r>  -10.0690    1.0000 </r>
       <r>   -8.4907    1.0000 </r>
       <r>   -8.1757    1.0000 </r>
       <r>   -7.6390    1.0000 </r>
       <r>   -7.4282    1.0000 </r>
       <r>   -7.3381    1.0000 </r>
       <r>   -7.2298    1.0000 </r>
       <r>   -7.1765    1.0000 </r>
       <r>   -7.0722    1.0000 </r>
       <r>   -6.9510    1.0000 </r>
       <r>   -6.8776    1.0000 </r>
       <r>   -6.7202    1.0000 </r>
       <r>   -6.6735    1.0000 </r>
       <r>   -6.5852    1.0000 </r>
       <r>   -6.5262    1.0000 </r>
       <r>   -6.5058    1.0000 </r>
       <r>   -6.4852    1.0000 </r>
       <r>   -6.4233    1.0000 </r>
       <r>   -6.3970    1.0000 </r>
       <r>   -6.3444    1.0000 </r>
       <r>   -6.2864    1.0000 </r>
       <r>   -6.2590    1.0000 </r>
       <r>   -6.2362    1.0000 </r>
       <r>   -6.2014    1.0000 </r>
       <r>   -6.1730    1.0000 </r>
       <r>   -6.1167    1.0000 </r>
       <r>   -6.0930    1.0000 </r>
       <r>   -6.0121    1.0000 </r>
       <r>   -5.9608    1.0000 </r>
       <r>   -5.8835    1.0000 </r>
       <r>   -5.8408    1.0000 </r>
       <r>   -5.8183    1.0000 </r>
       <r>   -5.6809    1.0000 </r>
       <r>   -5.6694    1.0000 </r>
       <r>   -5.6306    1.0000 </r>
       <r>   -5.5483    1.0000 </r>
       <r>   -5.5197    1.0000 </r>
       <r>   -5.4899    1.0000 </r>
       <r>   -5.4663    1.0000 </r>
       <r>   -5.4258    1.0000 </r>
       <r>   -5.4009    1.0000 </r>
       <r>   -5.3626    1.0000 </r>
       <r>   -5.3381    1.0000 </r>
       <r>   -5.3219    1.0000 </r>
       <r>   -5.3093    1.0000 </r>
       <r>   -5.2848    1.0000 </r>
       <r>   -5.2463    1.0000 </r>
       <r>   -5.2289    1.0000 </r>
       <r>   -5.2052    1.0000 </r>
       <r>   -5.1961    1.0000 </r>
       <r>   -5.1628    1.0000 </r>
       <r>   -5.1334    1.0000 </r>
       <r>   -5.1190    1.0000 </r>
       <r>   -5.0943    1.0000 </r>
       <r>   -5.0599    1.0000 </r>
       <r>   -5.0487    1.0000 </r>
       <r>   -5.0119    1.0000 </r>
       <r>   -5.0004    1.0000 </r>
       <r>   -4.9900    1.0000 </r>
       <r>   -4.9257    1.0000 </r>
       <r>   -4.8957    1.0000 </r>
       <r>   -4.8754    1.0000 </r>
       <r>   -4.8607    1.0000 </r>
       <r>   -4.8581    1.0000 </r>
       <r>   -4.8167    1.0000 </r>
       <r>   -4.8067    1.0000 </r>
       <r>   -4.7805    1.0000 </r>
       <r>   -4.7222    1.0000 </r>
       <r>   -4.5071    1.0000 </r>
       <r>   -4.1975    1.0000 </r>
       <r>   -4.0827    1.0000 </r>
       <r>   -3.5939    1.0000 </r>
       <r>   -2.9942   -0.0000 </r>
       <r>   -2.8464   -0.0000 </r>
       <r>   -2.6200   -0.0000 </r>
       <r>   -2.4190   -0.0000 </r>
       <r>   -1.9713   -0.0000 </r>
       <r>   -1.9376   -0.0000 </r>
       <r>   -1.7773   -0.0000 </r>
       <r>   -1.4811   -0.0000 </r>
       <r>   -1.1271   -0.0000 </r>
       <r>   -0.9212   -0.0000 </r>
       <r>   -0.7096    0.0000 </r>
       <r>   -0.2921    0.0000 </r>
       <r>   -0.0916    0.0000 </r>
       <r>    0.0722    0.0000 </r>
       <r>    0.1470    0.0000 </r>
      </set>
     </set>
     <set comment="spin 2">
      <set comment="kpoint 1">
       <r>  -28.3643    1.0000 </r>
       <r>  -13.7722    1.0000 </r>
       <r>  -11.1932    1.0000 </r>
       <r>  -11.0608    1.0000 </r>
       <r>  -10.6730    1.0000 </r>
       <r>  -10.0267    1.0000 </r>
       <r>   -8.4688    1.0000 </r>
       <r>   -8.1273    1.0000 </r>
       <r>   -7.5956    1.0000 </r>
       <r>   -7.4047    1.0000 </r>
       <r>   -7.3048    1.0000 </r>
       <r>   -7.1815    1.0000 </r>
       <r>   -7.1443    1.0000 </r>
       <r>   -7.0444    1.0000 </r>
       <r>   -6.9165    1.0000 </r>
       <r>   -6.8407    1.0000 </r>
       <r>   -6.6967    1.0000 </r>
       <r>   -6.6429    1.0000 </r>
       <r>   -6.5535    1.0000 </r>
       <r>   -6.5057    1.0000 </r>
       <r>   -6.4774    1.0000 </r>
       <r>   -6.4638    1.0000 </r>
       <r>   -6.3948    1.0000 </r>
       <r>   -6.3700    1.0000 </r>
       <r>   -6.3203    1.0000 </r>
       <r>   -6.2651    1.0000 </r>
       <r>   -6.2322    1.0000 </r>
       <r>   -6.2071    1.0000 </r>
       <r>   -6.1733    1.0000 </r>
       <r>   -6.1527    1.0000 </r>
       <r>   -6.0923    1.0000 </r>
       <r>   -6.0635    1.0000 </r>
       <r>   -5.9859    1.0000 </r>
       <r>   -5.9403    1.0000 </r>
       <r>   -5.8570    1.0000 </r>
       <r>   -5.8158    1.0000 </r>
       <r>   -5.7864    1.0000 </r>
       <r>   -5.6613    1.0000 </r>
       <r>   -5.6494    1.0000 </r>
       <r>   -5.6048    1.0000 </r>
       <r>   -5.5214    1.0000 </r>
       <r>   -5.4872    1.0000 </r>
       <r>   -5.4650    1.0000 </r>
       <r>   -5.4375    1.0000 </r>
       <r>   -5.4025    1.0000 </r>
       <r>   -5.3753    1.0000 </r>
       <r>   -5.3319    1.0000 </r>
       <r>   -5.3134    1.0000 </r>
       <r>   -5.2971    1.0000 </r>
       <r>   -5.2802    1.0000 </r>
       <r>   -5.2570    1.0000 </r>
       <r>   -5.2210    1.0000 </r>
       <r>   -5.1991    1.0000 </r>
       <r>   -5.1821    1.0000 </r>
       <r>   -5.1717    1.0000 </r>
       <r>   -5.1348    1.0000 </r>
       <r>   -5.1111    1.0000 </r>
       <r>   -5.0983    1.0000 </r>
       <r>   -5.0757    1.0000 </r>
       <r>   -5.0337    1.0000 </r>
       <r>   -5.0168    1.0000 </r>
       <r>   -4.9922    1.0000 </r>
       <r>   -4.9797    1.0000 </r>
       <r>   -4.9593    1.0000 </r>
       <r>   -4.8972    1.0000 </r>
       <r>   -4.8660    1.0000 </r>
       <r>   -4.8417    1.0000 </r>
       <r>   -4.8327    1.0000 </r>
       <r>   -4.8223    1.0000 </r>
       <r>   -4.7863    1.0000 </r>
       <r>   -4.7737    1.0000 </r>
       <r>   -4.7578    1.0000 </r>
       <r>   -4.6920    1.0000 </r>
       <r>   -4.4649    1.0000 </r>
       <r>   -4.1319    1.0233 </r>
       <r>   -4.0476    0.9767 </r>
       <r>   -3.3871   -0.0000 </r>
       <r>   -2.9455   -0.0000 </r>
       <r>   -2.7955   -0.0000 </r>
       <r>   -2.5518   -0.0000 </r>
       <r>   -2.3292   -0.0000 </r>
       <r>   -1.9191   -0.0000 </r>
       <r>   -1.8801   -0.0000 </r>
       <r>   -1.7063   -0.0000 </r>
       <r>   -1.3743   -0.0000 </r>
       <r>   -0.9846    0.0000 </r>
       <r>   -0.8624    0.0000 </r>
       <r>   -0.6467    0.0000 </r>
       <r>   -0.3779    0.0000 </r>
       <r>   -0.2053    0.0000 </r>
       <r>   -0.0182    0.0000 </r>
       <r>    0.1549    0.0000 </r>
      </set>
     </set>
    </set>
   </array>
  </eigenvalues>
  <separator name="orbital magnetization" >
   <v name="MAGDIPOLOUT">      0.00000000      0.00000000      0.00000000</v>
  </separator>
  <dos>
   <i name="efermi">     -3.97241117 </i>
   <total>
    <array>
     <dimension dim="1">gridpoints</dimension>
     <dimension dim="2">spin</dimension>
     <field>energy</field>
     <field>total</field>
     <field>integrated</field>
     <set>
      <set comment="spin 1">
       <r>   -29.8123     0.0000     0.0000 </r>
       <r>   -29.7076     0.0000     0.0000 </r>
       <r>   -29.6030     0.0000     0.0000 </r>
       <r>   -29.4983     0.0000     0.0000 </r>
       <r>   -29.3937     0.0000     0.0000 </r>
       <r>   -29.2890    -0.0000    -0.0000 </r>
       <r>   -29.1844    -0.0000    -0.0000 </r>
       <r>   -29.0797    -0.0000    -0.0000 </r>
       <r>   -28.9751    -0.0000    -0.0000 </r>
       <r>   -28.8704    -0.0000    -0.0000 </r>
       <r>   -28.7658    -0.0000    -0.0000 </r>
       <r>   -28.6612    -0.0064    -0.0007 </r>
       <r>   -28.5565    -0.3378    -0.0360 </r>
       <r>   -28.4519     1.3492     0.1052 </r>
       <r>   -28.3472    14.2394     1.5953 </r>
       <r>   -28.2426     4.4550     2.0615 </r>
       <r>   -28.1379    -0.5627     2.0026 </r>
       <r>   -28.0333    -0.0248     2.0000 </r>
       <r>   -27.9286    -0.0001     2.0000 </r>
       <r>   -27.8240    -0.0000     2.0000 </r>
       <r>   -27.7193    -0.0000     2.0000 </r>
       <r>   -27.6147     0.0000     2.0000 </r>
       <r>   -27.5100     0.0000     2.0000 </r>
       <r>   -27.4054     0.0000     2.0000 </r>
       <r>   -27.3007     0.0000     2.0000 </r>
       <r>   -27.1961     0.0000     2.0000 </r>
       <r>   -27.0914     0.0000     2.0000 </r>
       <r>   -26.9868     0.0000     2.0000 </r>
       <r>   -26.8821     0.0000     2.0000 </r>
       <r>   -26.7775     0.0000     2.0000 </r>
       <r>   -26.6729     0.0000     2.0000 </r>
       <r>   -26.5682     0.0000     2.0000 </r>
       <r>   -26.4636     0.0000     2.0000 </r>
       <r>   -26.3589     0.0000     2.0000 </r>
       <r>   -26.2543     0.0000     2.0000 </r>
       <r>   -26.1496     0.0000     2.0000 </r>
       <r>   -26.0450     0.0000     2.0000 </r>
       <r>   -25.9403     0.0000     2.0000 </r>
       <r>   -25.8357     0.0000     2.0000 </r>
       <r>   -25.7310     0.0000     2.0000 </r>
       <r>   -25.6264     0.0000     2.0000 </r>
       <r>   -25.5217     0.0000     2.0000 </r>
       <r>   -25.4171     0.0000     2.0000 </r>
       <r>   -25.3124     0.0000     2.0000 </r>
       <r>   -25.2078     0.0000     2.0000 </r>
       <r>   -25.1031     0.0000     2.0000 </r>
       <r>   -24.9985     0.0000     2.0000 </r>
       <r>   -24.8938     0.0000     2.0000 </r>
       <r>   -24.7892     0.0000     2.0000 </r>
       <r>   -24.6845     0.0000     2.0000 </r>
       <r>   -24.5799     0.0000     2.0000 </r>
       <r>   -24.4753     0.0000     2.0000 </r>
       <r>   -24.3706     0.0000     2.0000 </r>
       <r>   -24.2660     0.0000     2.0000 </r>
       <r>   -24.1613     0.0000     2.0000 </r>
       <r>   -24.0567     0.0000     2.0000 </r>
       <r>   -23.9520     0.0000     2.0000 </r>
       <r>   -23.8474     0.0000     2.0000 </r>
       <r>   -23.7427     0.0000     2.0000 </r>
       <r>   -23.6381     0.0000     2.0000 </r>
       <r>   -23.5334     0.0000     2.0000 </r>
       <r>   -23.4288     0.0000     2.0000 </r>
       <r>   -23.3241     0.0000     2.0000 </r>
       <r>   -23.2195     0.0000     2.0000 </r>
       <r>   -23.1148     0.0000     2.0000 </r>
       <r>   -23.0102     0.0000     2.0000 </r>
       <r>   -22.9055     0.0000     2.0000 </r>
       <r>   -22.8009     0.0000     2.0000 </r>
       <r>   -22.6962     0.0000     2.0000 </r>
       <r>   -22.5916     0.0000     2.0000 </r>
       <r>   -22.4870     0.0000     2.0000 </r>
       <r>   -22.3823     0.0000     2.0000 </r>
       <r>   -22.2777     0.0000     2.0000 </r>
       <r>   -22.1730     0.0000     2.0000 </r>
       <r>   -22.0684     0.0000     2.0000 </r>
       <r>   -21.9637     0.0000     2.0000 </r>
       <r>   -21.8591     0.0000     2.0000 </r>
       <r>   -21.7544     0.0000     2.0000 </r>
       <r>   -21.6498     0.0000     2.0000 </r>
       <r>   -21.5451     0.0000     2.0000 </r>
       <r>   -21.4405     0.0000     2.0000 </r>
       <r>   -21.3358     0.0000     2.0000 </r>
       <r>   -21.2312     0.0000     2.0000 </r>
       <r>   -21.1265     0.0000     2.0000 </r>
       <r>   -21.0219     0.0000     2.0000 </r>
       <r>   -20.9172     0.0000     2.0000 </r>
       <r>   -20.8126     0.0000     2.0000 </r>
       <r>   -20.7079     0.0000     2.0000 </r>
       <r>   -20.6033     0.0000     2.0000 </r>
       <r>   -20.4987     0.0000     2.0000 </r>
       <r>   -20.3940     0.0000     2.0000 </r>
       <r>   -20.2894     0.0000     2.0000 </r>
       <r>   -20.1847     0.0000     2.0000 </r>
       <r>   -20.0801     0.0000     2.0000 </r>
       <r>   -19.9754     0.0000     2.0000 </r>
       <r>   -19.8708     0.0000     2.0000 </r>
       <r>   -19.7661     0.0000     2.0000 </r>
       <r>   -19.6615     0.0000     2.0000 </r>
       <r>   -19.5568     0.0000     2.0000 </r>
       <r>   -19.4522     0.0000     2.0000 </r>
       <r>   -19.3475     0.0000     2.0000 </r>
       <r>   -19.2429     0.0000     2.0000 </r>
       <r>   -19.1382     0.0000     2.0000 </r>
       <r>   -19.0336     0.0000     2.0000 </r>
       <r>   -18.9289     0.0000     2.0000 </r>
       <r>   -18.8243     0.0000     2.0000 </r>
       <r>   -18.7196     0.0000     2.0000 </r>
       <r>   -18.6150     0.0000     2.0000 </r>
       <r>   -18.5104     0.0000     2.0000 </r>
       <r>   -18.4057     0.0000     2.0000 </r>
       <r>   -18.3011     0.0000     2.0000 </r>
       <r>   -18.1964     0.0000     2.0000 </r>
       <r>   -18.0918     0.0000     2.0000 </r>
       <r>   -17.9871     0.0000     2.0000 </r>
       <r>   -17.8825     0.0000     2.0000 </r>
       <r>   -17.7778     0.0000     2.0000 </r>
       <r>   -17.6732     0.0000     2.0000 </r>
       <r>   -17.5685     0.0000     2.0000 </r>
       <r>   -17.4639     0.0000     2.0000 </r>
       <r>   -17.3592     0.0000     2.0000 </r>
       <r>   -17.2546     0.0000     2.0000 </r>
       <r>   -17.1499     0.0000     2.0000 </r>
       <r>   -17.0453     0.0000     2.0000 </r>
       <r>   -16.9406     0.0000     2.0000 </r>
       <r>   -16.8360     0.0000     2.0000 </r>
       <r>   -16.7313     0.0000     2.0000 </r>
       <r>   -16.6267     0.0000     2.0000 </r>
       <r>   -16.5220     0.0000     2.0000 </r>
       <r>   -16.4174     0.0000     2.0000 </r>
       <r>   -16.3128     0.0000     2.0000 </r>
       <r>   -16.2081     0.0000     2.0000 </r>
       <r>   -16.1035     0.0000     2.0000 </r>
       <r>   -15.9988     0.0000     2.0000 </r>
       <r>   -15.8942     0.0000     2.0000 </r>
       <r>   -15.7895     0.0000     2.0000 </r>
       <r>   -15.6849     0.0000     2.0000 </r>
       <r>   -15.5802     0.0000     2.0000 </r>
       <r>   -15.4756     0.0000     2.0000 </r>
       <r>   -15.3709     0.0000     2.0000 </r>
       <r>   -15.2663     0.0000     2.0000 </r>
       <r>   -15.1616     0.0000     2.0000 </r>
       <r>   -15.0570     0.0000     2.0000 </r>
       <r>   -14.9523     0.0000     2.0000 </r>
       <r>   -14.8477     0.0000     2.0000 </r>
       <r>   -14.7430     0.0000     2.0000 </r>
       <r>   -14.6384    -0.0000     2.0000 </r>
       <r>   -14.5337    -0.0000     2.0000 </r>
       <r>   -14.4291    -0.0000     2.0000 </r>
       <r>   -14.3245    -0.0000     2.0000 </r>
       <r>   -14.2198    -0.0000     2.0000 </r>
       <r>   -14.1152    -0.0013     1.9999 </r>
       <r>   -14.0105    -0.1494     1.9842 </r>
       <r>   -13.9059    -0.2347     1.9597 </r>
       <r>   -13.8012    11.3705     3.1496 </r>
       <r>   -13.6966     8.7777     4.0681 </r>
       <r>   -13.5919    -0.5697     4.0085 </r>
       <r>   -13.4873    -0.0809     4.0000 </r>
       <r>   -13.3826    -0.0005     4.0000 </r>
       <r>   -13.2780    -0.0000     4.0000 </r>
       <r>   -13.1733    -0.0000     4.0000 </r>
       <r>   -13.0687     0.0000     4.0000 </r>
       <r>   -12.9640     0.0000     4.0000 </r>
       <r>   -12.8594     0.0000     4.0000 </r>
       <r>   -12.7547     0.0000     4.0000 </r>
       <r>   -12.6501     0.0000     4.0000 </r>
       <r>   -12.5454     0.0000     4.0000 </r>
       <r>   -12.4408     0.0000     4.0000 </r>
       <r>   -12.3362     0.0000     4.0000 </r>
       <r>   -12.2315     0.0000     4.0000 </r>
       <r>   -12.1269     0.0000     4.0000 </r>
       <r>   -12.0222    -0.0000     4.0000 </r>
       <r>   -11.9176    -0.0000     4.0000 </r>
       <r>   -11.8129    -0.0000     4.0000 </r>
       <r>   -11.7083    -0.0000     4.0000 </r>
       <r>   -11.6036    -0.0000     4.0000 </r>
       <r>   -11.4990    -0.0056     3.9994 </r>
       <r>   -11.3943    -0.3192     3.9660 </r>
       <r>   -11.2897     0.9470     4.0651 </r>
       <r>   -11.1850    14.1523     5.5461 </r>
       <r>   -11.0804    17.2356     7.3498 </r>
       <r>   -10.9757     6.8970     8.0715 </r>
       <r>   -10.8711    -1.1898     7.9470 </r>
       <r>   -10.7664     4.0251     8.3682 </r>
       <r>   -10.6618    14.3748     9.8725 </r>
       <r>   -10.5571     1.5858    10.0385 </r>
       <r>   -10.4525    -0.3602    10.0008 </r>
       <r>   -10.3478    -0.0129     9.9994 </r>
       <r>   -10.2432    -0.3144     9.9665 </r>
       <r>   -10.1386     1.1139    10.0831 </r>
       <r>   -10.0339    14.0634    11.5548 </r>
       <r>    -9.9293     4.8637    12.0638 </r>
       <r>    -9.8246    -0.5809    12.0030 </r>
       <r>    -9.7200    -0.0283    12.0000 </r>
       <r>    -9.6153    -0.0001    12.0000 </r>
       <r>    -9.5107    -0.0000    12.0000 </r>
       <r>    -9.4060    -0.0000    12.0000 </r>
       <r>    -9.3014    -0.0000    12.0000 </r>
       <r>    -9.1967    -0.0000    12.0000 </r>
       <r>    -9.0921    -0.0000    12.0000 </r>
       <r>    -8.9874    -0.0000    12.0000 </r>
       <r>    -8.8828    -0.0000    12.0000 </r>
       <r>    -8.7781    -0.0035    11.9996 </r>
       <r>    -8.6735    -0.2524    11.9732 </r>
       <r>    -8.5688     0.5413    12.0299 </r>
       <r>    -8.4642    13.3955    13.4317 </r>
       <r>    -8.3595     5.8404    14.0429 </r>
       <r>    -8.2549    -0.1394    14.0283 </r>
       <r>    -8.1503    13.2565    15.4155 </r>
       <r>    -8.0456     6.2474    16.0693 </r>
       <r>    -7.9410    -0.6213    16.0043 </r>
       <r>    -7.8363    -0.2076    15.9826 </r>
       <r>    -7.7317    -0.1344    15.9685 </r>
       <r>    -7.6270    11.6250    17.1850 </r>
       <r>    -7.5224     7.8632    18.0079 </r>
       <r>    -7.4177    11.1898    19.1789 </r>
       <r>    -7.3131    21.3432    21.4124 </r>
       <r>    -7.2084    23.3075    23.8515 </r>
       <r>    -7.1038    24.8204    26.4489 </r>
       <r>    -6.9991    16.5950    28.1855 </r>
       <r>    -6.8945    22.2628    30.5152 </r>
       <r>    -6.7898    14.7382    32.0575 </r>
       <r>    -6.6852    20.7992    34.2341 </r>
       <r>    -6.5805    29.4779    37.3189 </r>
       <r>    -6.4759    50.6571    42.6200 </r>
       <r>    -6.3712    49.0155    47.7494 </r>
       <r>    -6.2666    48.2668    52.8004 </r>
       <r>    -6.1620    61.3698    59.2226 </r>
       <r>    -6.0573    43.7819    63.8043 </r>
       <r>    -5.9527    30.9193    67.0399 </r>
       <r>    -5.8480    37.7985    70.9954 </r>
       <r>    -5.7434    30.3025    74.1665 </r>
       <r>    -5.6387    35.2082    77.8509 </r>
       <r>    -5.5341    43.3141    82.3836 </r>
       <r>    -5.4294    61.7392    88.8445 </r>
       <r>    -5.3248    75.9101    96.7883 </r>
       <r>    -5.2201    88.0807   106.0057 </r>
       <r>    -5.1155    86.0553   115.0112 </r>
       <r>    -5.0108    83.7446   123.7748 </r>
       <r>    -4.9062    72.1882   131.3291 </r>
       <r>    -4.8015    90.1590   140.7640 </r>
       <r>    -4.6969    46.8304   145.6647 </r>
       <r>    -4.5922     4.2315   146.1075 </r>
       <r>    -4.4876    11.6670   147.3285 </r>
       <r>    -4.3829     6.8546   148.0458 </r>
       <r>    -4.2783    -0.4057   148.0033 </r>
       <r>    -4.1737    13.0184   149.3657 </r>
       <r>    -4.0690    18.4742   151.2990 </r>
       <r>    -3.9644     7.4167   152.0751 </r>
       <r>    -3.8597    -0.6602   152.0060 </r>
       <r>    -3.7551    -0.4876   151.9550 </r>
       <r>    -3.6504     2.2689   152.1924 </r>
       <r>    -3.5458    14.5904   153.7193 </r>
       <r>    -3.4411     3.1872   154.0528 </r>
       <r>    -3.3365    -0.4889   154.0016 </r>
       <r>    -3.2318    -0.0534   153.9961 </r>
       <r>    -3.1272    -0.6168   153.9315 </r>
       <r>    -3.0225     5.5186   154.5090 </r>
       <r>    -2.9179    14.5314   156.0297 </r>
       <r>    -2.8132    14.3999   157.5366 </r>
       <r>    -2.7086     4.8825   158.0475 </r>
       <r>    -2.6039    11.4570   159.2465 </r>
       <r>    -2.4993     8.0527   160.0892 </r>
       <r>    -2.3946    12.5762   161.4052 </r>
       <r>    -2.2900     6.3492   162.0697 </r>
       <r>    -2.1853    -0.7403   161.9922 </r>
       <r>    -2.0807    -1.1289   161.8741 </r>
       <r>    -1.9761    13.6463   163.3021 </r>
       <r>    -1.8714    24.8787   165.9056 </r>
       <r>    -1.7668    12.6206   167.2263 </r>
       <r>    -1.6621     7.7926   168.0418 </r>
       <r>    -1.5575     0.0561   168.0477 </r>
       <r>    -1.4528    13.4774   169.4580 </r>
       <r>    -1.3482     5.7557   170.0604 </r>
       <r>    -1.2435    -1.2053   169.9342 </r>
       <r>    -1.1389     8.2163   170.7941 </r>
       <r>    -1.0342    11.1837   171.9644 </r>
       <r>    -0.9296     8.6412   172.8687 </r>
       <r>    -0.8249    10.5498   173.9727 </r>
       <r>    -0.7203     8.2460   174.8356 </r>
       <r>    -0.6156    11.4651   176.0354 </r>
       <r>    -0.5110    -0.2578   176.0084 </r>
       <r>    -0.4063    -0.7351   175.9315 </r>
       <r>    -0.3017     8.5613   176.8274 </r>
       <r>    -0.1970    10.9921   177.9777 </r>
       <r>    -0.0924     9.3582   178.9570 </r>
       <r>     0.0122    11.4087   180.1509 </r>
       <r>     0.1169    19.6366   182.2058 </r>
       <r>     0.2215    17.1947   184.0052 </r>
       <r>     0.3262     0.2506   184.0315 </r>
       <r>     0.4308    -0.2962   184.0005 </r>
       <r>     0.5355    -0.0043   184.0000 </r>
       <r>     0.6401    -0.0000   184.0000 </r>
       <r>     0.7448    -0.0000   184.0000 </r>
       <r>     0.8494    -0.0000   184.0000 </r>
       <r>     0.9541     0.0000   184.0000 </r>
       <r>     1.0587     0.0000   184.0000 </r>
       <r>     1.1634     0.0000   184.0000 </r>
       <r>     1.2680     0.0000   184.0000 </r>
       <r>     1.3727     0.0000   184.0000 </r>
       <r>     1.4773     0.0000   184.0000 </r>
       <r>     1.5820     0.0000   184.0000 </r>
      </set>
      <set comment="spin 2">
       <r>   -29.8123     0.0000     0.0000 </r>
       <r>   -29.7076     0.0000     0.0000 </r>
       <r>   -29.6030     0.0000     0.0000 </r>
       <r>   -29.4983     0.0000     0.0000 </r>
       <r>   -29.3937     0.0000     0.0000 </r>
       <r>   -29.2890     0.0000     0.0000 </r>
       <r>   -29.1844    -0.0000    -0.0000 </r>
       <r>   -29.0797    -0.0000    -0.0000 </r>
       <r>   -28.9751    -0.0000    -0.0000 </r>
       <r>   -28.8704    -0.0000    -0.0000 </r>
       <r>   -28.7658    -0.0000    -0.0000 </r>
       <r>   -28.6612    -0.0021    -0.0002 </r>
       <r>   -28.5565    -0.1931    -0.0204 </r>
       <r>   -28.4519     0.0643    -0.0137 </r>
       <r>   -28.3472    12.4136     1.2854 </r>
       <r>   -28.2426     7.5066     2.0709 </r>
       <r>   -28.1379    -0.6181     2.0062 </r>
       <r>   -28.0333    -0.0591     2.0000 </r>
       <r>   -27.9286    -0.0003     2.0000 </r>
       <r>   -27.8240    -0.0000     2.0000 </r>
       <r>   -27.7193    -0.0000     2.0000 </r>
       <r>   -27.6147     0.0000     2.0000 </r>
       <r>   -27.5100     0.0000     2.0000 </r>
       <r>   -27.4054     0.0000     2.0000 </r>
       <r>   -27.3007     0.0000     2.0000 </r>
       <r>   -27.1961     0.0000     2.0000 </r>
       <r>   -27.0914     0.0000     2.0000 </r>
       <r>   -26.9868     0.0000     2.0000 </r>
       <r>   -26.8821     0.0000     2.0000 </r>
       <r>   -26.7775     0.0000     2.0000 </r>
       <r>   -26.6729     0.0000     2.0000 </r>
       <r>   -26.5682     0.0000     2.0000 </r>
       <r>   -26.4636     0.0000     2.0000 </r>
       <r>   -26.3589     0.0000     2.0000 </r>
       <r>   -26.2543     0.0000     2.0000 </r>
       <r>   -26.1496     0.0000     2.0000 </r>
       <r>   -26.0450     0.0000     2.0000 </r>
       <r>   -25.9403     0.0000     2.0000 </r>
       <r>   -25.8357     0.0000     2.0000 </r>
       <r>   -25.7310     0.0000     2.0000 </r>
       <r>   -25.6264     0.0000     2.0000 </r>
       <r>   -25.5217     0.0000     2.0000 </r>
       <r>   -25.4171     0.0000     2.0000 </r>
       <r>   -25.3124     0.0000     2.0000 </r>
       <r>   -25.2078     0.0000     2.0000 </r>
       <r>   -25.1031     0.0000     2.0000 </r>
       <r>   -24.9985     0.0000     2.0000 </r>
       <r>   -24.8938     0.0000     2.0000 </r>
       <r>   -24.7892     0.0000     2.0000 </r>
       <r>   -24.6845     0.0000     2.0000 </r>
       <r>   -24.5799     0.0000     2.0000 </r>
       <r>   -24.4753     0.0000     2.0000 </r>
       <r>   -24.3706     0.0000     2.0000 </r>
       <r>   -24.2660     0.0000     2.0000 </r>
       <r>   -24.1613     0.0000     2.0000 </r>
       <r>   -24.0567     0.0000     2.0000 </r>
       <r>   -23.9520     0.0000     2.0000 </r>
       <r>   -23.8474     0.0000     2.0000 </r>
       <r>   -23.7427     0.0000     2.0000 </r>
       <r>   -23.6381     0.0000     2.0000 </r>
       <r>   -23.5334     0.0000     2.0000 </r>
       <r>   -23.4288     0.0000     2.0000 </r>
       <r>   -23.3241     0.0000     2.0000 </r>
       <r>   -23.2195     0.0000     2.0000 </r>
       <r>   -23.1148     0.0000     2.0000 </r>
       <r>   -23.0102     0.0000     2.0000 </r>
       <r>   -22.9055     0.0000     2.0000 </r>
       <r>   -22.8009     0.0000     2.0000 </r>
       <r>   -22.6962     0.0000     2.0000 </r>
       <r>   -22.5916     0.0000     2.0000 </r>
       <r>   -22.4870     0.0000     2.0000 </r>
       <r>   -22.3823     0.0000     2.0000 </r>
       <r>   -22.2777     0.0000     2.0000 </r>
       <r>   -22.1730     0.0000     2.0000 </r>
       <r>   -22.0684     0.0000     2.0000 </r>
       <r>   -21.9637     0.0000     2.0000 </r>
       <r>   -21.8591     0.0000     2.0000 </r>
       <r>   -21.7544     0.0000     2.0000 </r>
       <r>   -21.6498     0.0000     2.0000 </r>
       <r>   -21.5451     0.0000     2.0000 </r>
       <r>   -21.4405     0.0000     2.0000 </r>
       <r>   -21.3358     0.0000     2.0000 </r>
       <r>   -21.2312     0.0000     2.0000 </r>
       <r>   -21.1265     0.0000     2.0000 </r>
       <r>   -21.0219     0.0000     2.0000 </r>
       <r>   -20.9172     0.0000     2.0000 </r>
       <r>   -20.8126     0.0000     2.0000 </r>
       <r>   -20.7079     0.0000     2.0000 </r>
       <r>   -20.6033     0.0000     2.0000 </r>
       <r>   -20.4987     0.0000     2.0000 </r>
       <r>   -20.3940     0.0000     2.0000 </r>
       <r>   -20.2894     0.0000     2.0000 </r>
       <r>   -20.1847     0.0000     2.0000 </r>
       <r>   -20.0801     0.0000     2.0000 </r>
       <r>   -19.9754     0.0000     2.0000 </r>
       <r>   -19.8708     0.0000     2.0000 </r>
       <r>   -19.7661     0.0000     2.0000 </r>
       <r>   -19.6615     0.0000     2.0000 </r>
       <r>   -19.5568     0.0000     2.0000 </r>
       <r>   -19.4522     0.0000     2.0000 </r>
       <r>   -19.3475     0.0000     2.0000 </r>
       <r>   -19.2429     0.0000     2.0000 </r>
       <r>   -19.1382     0.0000     2.0000 </r>
       <r>   -19.0336     0.0000     2.0000 </r>
       <r>   -18.9289     0.0000     2.0000 </r>
       <r>   -18.8243     0.0000     2.0000 </r>
       <r>   -18.7196     0.0000     2.0000 </r>
       <r>   -18.6150     0.0000     2.0000 </r>
       <r>   -18.5104     0.0000     2.0000 </r>
       <r>   -18.4057     0.0000     2.0000 </r>
       <r>   -18.3011     0.0000     2.0000 </r>
       <r>   -18.1964     0.0000     2.0000 </r>
       <r>   -18.0918     0.0000     2.0000 </r>
       <r>   -17.9871     0.0000     2.0000 </r>
       <r>   -17.8825     0.0000     2.0000 </r>
       <r>   -17.7778     0.0000     2.0000 </r>
       <r>   -17.6732     0.0000     2.0000 </r>
       <r>   -17.5685     0.0000     2.0000 </r>
       <r>   -17.4639     0.0000     2.0000 </r>
       <r>   -17.3592     0.0000     2.0000 </r>
       <r>   -17.2546     0.0000     2.0000 </r>
       <r>   -17.1499     0.0000     2.0000 </r>
       <r>   -17.0453     0.0000     2.0000 </r>
       <r>   -16.9406     0.0000     2.0000 </r>
       <r>   -16.8360     0.0000     2.0000 </r>
       <r>   -16.7313     0.0000     2.0000 </r>
       <r>   -16.6267     0.0000     2.0000 </r>
       <r>   -16.5220     0.0000     2.0000 </r>
       <r>   -16.4174     0.0000     2.0000 </r>
       <r>   -16.3128     0.0000     2.0000 </r>
       <r>   -16.2081     0.0000     2.0000 </r>
       <r>   -16.1035     0.0000     2.0000 </r>
       <r>   -15.9988     0.0000     2.0000 </r>
       <r>   -15.8942     0.0000     2.0000 </r>
       <r>   -15.7895     0.0000     2.0000 </r>
       <r>   -15.6849     0.0000     2.0000 </r>
       <r>   -15.5802     0.0000     2.0000 </r>
       <r>   -15.4756     0.0000     2.0000 </r>
       <r>   -15.3709     0.0000     2.0000 </r>
       <r>   -15.2663     0.0000     2.0000 </r>
       <r>   -15.1616     0.0000     2.0000 </r>
       <r>   -15.0570     0.0000     2.0000 </r>
       <r>   -14.9523     0.0000     2.0000 </r>
       <r>   -14.8477     0.0000     2.0000 </r>
       <r>   -14.7430     0.0000     2.0000 </r>
       <r>   -14.6384    -0.0000     2.0000 </r>
       <r>   -14.5337    -0.0000     2.0000 </r>
       <r>   -14.4291    -0.0000     2.0000 </r>
       <r>   -14.3245    -0.0000     2.0000 </r>
       <r>   -14.2198    -0.0000     2.0000 </r>
       <r>   -14.1152    -0.0001     2.0000 </r>
       <r>   -14.0105    -0.0365     1.9962 </r>
       <r>   -13.9059    -0.6093     1.9324 </r>
       <r>   -13.8012     5.7152     2.5305 </r>
       <r>   -13.6966    13.6201     3.9558 </r>
       <r>   -13.5919     0.6965     4.0287 </r>
       <r>   -13.4873    -0.2700     4.0004 </r>
       <r>   -13.3826    -0.0040     4.0000 </r>
       <r>   -13.2780    -0.0000     4.0000 </r>
       <r>   -13.1733    -0.0000     4.0000 </r>
       <r>   -13.0687    -0.0000     4.0000 </r>
       <r>   -12.9640     0.0000     4.0000 </r>
       <r>   -12.8594     0.0000     4.0000 </r>
       <r>   -12.7547     0.0000     4.0000 </r>
       <r>   -12.6501     0.0000     4.0000 </r>
       <r>   -12.5454     0.0000     4.0000 </r>
       <r>   -12.4408     0.0000     4.0000 </r>
       <r>   -12.3362     0.0000     4.0000 </r>
       <r>   -12.2315     0.0000     4.0000 </r>
       <r>   -12.1269     0.0000     4.0000 </r>
       <r>   -12.0222    -0.0000     4.0000 </r>
       <r>   -11.9176    -0.0000     4.0000 </r>
       <r>   -11.8129    -0.0000     4.0000 </r>
       <r>   -11.7083    -0.0000     4.0000 </r>
       <r>   -11.6036    -0.0000     4.0000 </r>
       <r>   -11.4990    -0.0013     3.9999 </r>
       <r>   -11.3943    -0.1461     3.9846 </r>
       <r>   -11.2897    -0.3102     3.9521 </r>
       <r>   -11.1850    10.6478     5.0664 </r>
       <r>   -11.0804    16.0246     6.7433 </r>
       <r>   -10.9757    12.1275     8.0124 </r>
       <r>   -10.8711    -0.0707     8.0050 </r>
       <r>   -10.7664    -0.3695     7.9664 </r>
       <r>   -10.6618    11.6740     9.1880 </r>
       <r>   -10.5571     8.4226    10.0694 </r>
       <r>   -10.4525    -0.5888    10.0078 </r>
       <r>   -10.3478    -0.0747    10.0000 </r>
       <r>   -10.2432    -0.0865     9.9909 </r>
       <r>   -10.1386    -0.5526     9.9331 </r>
       <r>   -10.0339     9.0376    10.8789 </r>
       <r>    -9.9293    11.1396    12.0446 </r>
       <r>    -9.8246    -0.2836    12.0149 </r>
       <r>    -9.7200    -0.1414    12.0001 </r>
       <r>    -9.6153    -0.0012    12.0000 </r>
       <r>    -9.5107    -0.0000    12.0000 </r>
       <r>    -9.4060    -0.0000    12.0000 </r>
       <r>    -9.3014    -0.0000    12.0000 </r>
       <r>    -9.1967    -0.0000    12.0000 </r>
       <r>    -9.0921    -0.0000    12.0000 </r>
       <r>    -8.9874    -0.0000    12.0000 </r>
       <r>    -8.8828    -0.0000    12.0000 </r>
       <r>    -8.7781    -0.0010    11.9999 </r>
       <r>    -8.6735    -0.1298    11.9863 </r>
       <r>    -8.5688    -0.3507    11.9496 </r>
       <r>    -8.4642    10.7774    13.0774 </r>
       <r>    -8.3595     9.3851    14.0596 </r>
       <r>    -8.2549    -1.1444    13.9398 </r>
       <r>    -8.1503     6.5203    14.6221 </r>
       <r>    -8.0456    13.0553    15.9883 </r>
       <r>    -7.9410     0.3431    16.0242 </r>
       <r>    -7.8363    -0.2620    15.9968 </r>
       <r>    -7.7317    -0.6031    15.9337 </r>
       <r>    -7.6270     5.3110    16.4895 </r>
       <r>    -7.5224    13.1221    17.8627 </r>
       <r>    -7.4177     8.3767    18.7393 </r>
       <r>    -7.3131    19.5099    20.7810 </r>
       <r>    -7.2084    18.3738    22.7037 </r>
       <r>    -7.1038    29.1293    25.7520 </r>
       <r>    -6.9991    18.9223    27.7322 </r>
       <r>    -6.8945    18.0516    29.6212 </r>
       <r>    -6.7898    20.1131    31.7260 </r>
       <r>    -6.6852    16.7680    33.4808 </r>
       <r>    -6.5805    27.6772    36.3771 </r>
       <r>    -6.4759    46.1429    41.2058 </r>
       <r>    -6.3712    51.6340    46.6092 </r>
       <r>    -6.2666    45.6017    51.3813 </r>
       <r>    -6.1620    60.9313    57.7576 </r>
       <r>    -6.0573    48.6675    62.8505 </r>
       <r>    -5.9527    33.2731    66.3325 </r>
       <r>    -5.8480    33.5795    69.8465 </r>
       <r>    -5.7434    35.7179    73.5843 </r>
       <r>    -5.6387    31.9661    76.9294 </r>
       <r>    -5.5341    39.3584    81.0482 </r>
       <r>    -5.4294    57.5930    87.0752 </r>
       <r>    -5.3248    71.1818    94.5242 </r>
       <r>    -5.2201    87.4529   103.6759 </r>
       <r>    -5.1155    89.3368   113.0247 </r>
       <r>    -5.0108    84.0167   121.8169 </r>
       <r>    -4.9062    69.9893   129.1411 </r>
       <r>    -4.8015    85.2420   138.0614 </r>
       <r>    -4.6969    66.2804   144.9975 </r>
       <r>    -4.5922    10.3427   146.0799 </r>
       <r>    -4.4876     5.3738   146.6422 </r>
       <r>    -4.3829    12.8574   147.9877 </r>
       <r>    -4.2783    -0.2618   147.9603 </r>
       <r>    -4.1737     3.1253   148.2874 </r>
       <r>    -4.0690    21.2630   150.5125 </r>
       <r>    -3.9644    14.5494   152.0350 </r>
       <r>    -3.8597    -0.1056   152.0240 </r>
       <r>    -3.7551    -0.2265   152.0003 </r>
       <r>    -3.6504    -0.0146   151.9987 </r>
       <r>    -3.5458    -0.4405   151.9527 </r>
       <r>    -3.4411     2.5264   152.2170 </r>
       <r>    -3.3365    14.6184   153.7468 </r>
       <r>    -3.2318     2.8984   154.0501 </r>
       <r>    -3.1272    -0.7290   153.9738 </r>
       <r>    -3.0225     0.5355   154.0299 </r>
       <r>    -2.9179    12.8776   155.3775 </r>
       <r>    -2.8132    13.3230   156.7717 </r>
       <r>    -2.7086    11.4151   157.9663 </r>
       <r>    -2.6039     2.7753   158.2567 </r>
       <r>    -2.4993    14.0799   159.7301 </r>
       <r>    -2.3946     4.1389   160.1633 </r>
       <r>    -2.2900    13.8474   161.6123 </r>
       <r>    -2.1853     4.2711   162.0593 </r>
       <r>    -2.0807    -1.1195   161.9421 </r>
       <r>    -1.9761     1.9506   162.1463 </r>
       <r>    -1.8714    25.5456   164.8196 </r>
       <r>    -1.7668    13.9327   166.2776 </r>
       <r>    -1.6621    13.4352   167.6835 </r>
       <r>    -1.5575     3.3093   168.0298 </r>
       <r>    -1.4528    -0.0009   168.0297 </r>
       <r>    -1.3482    13.3444   169.4262 </r>
       <r>    -1.2435     6.1279   170.0675 </r>
       <r>    -1.1389    -1.1009   169.9523 </r>
       <r>    -1.0342     2.6374   170.2283 </r>
       <r>    -0.9296    15.9038   171.8926 </r>
       <r>    -0.8249    16.3456   173.6031 </r>
       <r>    -0.7203     4.9369   174.1197 </r>
       <r>    -0.6156    13.1671   175.4976 </r>
       <r>    -0.5110     4.7852   175.9984 </r>
       <r>    -0.4063     5.0578   176.5277 </r>
       <r>    -0.3017    13.2775   177.9171 </r>
       <r>    -0.1970    11.6679   179.1381 </r>
       <r>    -0.0924     9.3623   180.1179 </r>
       <r>     0.0122    12.5990   181.4363 </r>
       <r>     0.1169     9.8931   182.4716 </r>
       <r>     0.2215    13.6349   183.8985 </r>
       <r>     0.3262     1.3147   184.0360 </r>
       <r>     0.4308    -0.3379   184.0007 </r>
       <r>     0.5355    -0.0064   184.0000 </r>
       <r>     0.6401    -0.0000   184.0000 </r>
       <r>     0.7448    -0.0000   184.0000 </r>
       <r>     0.8494    -0.0000   184.0000 </r>
       <r>     0.9541     0.0000   184.0000 </r>
       <r>     1.0587     0.0000   184.0000 </r>
       <r>     1.1634     0.0000   184.0000 </r>
       <r>     1.2680     0.0000   184.0000 </r>
       <r>     1.3727     0.0000   184.0000 </r>
       <r>     1.4773     0.0000   184.0000 </r>
       <r>     1.5820     0.0000   184.0000 </r>
      </set>
     </set>
    </array>
   </total>
  </dos>
 </calculation>
 <structure name="finalpos" >
  <crystal>
   <varray name="basis" >
    <v>      15.00000000       0.00000000       0.00000000 </v>
    <v>       0.00000000      15.00000000       0.00000000 </v>
    <v>       0.00000000       0.00000000      15.00000000 </v>
   </varray>
   <i name="volume">   3375.00000000 </i>
   <varray name="rec_basis" >
    <v>       0.06666667       0.00000000       0.00000000 </v>
    <v>       0.00000000       0.06666667       0.00000000 </v>
    <v>       0.00000000       0.00000000       0.06666667 </v>
   </varray>
  </crystal>
  <varray name="positions" >
   <v>       0.28760800       0.41473600       0.56126733 </v>
   <v>       0.37516667       0.54397133       0.49336933 </v>
   <v>       0.39335800       0.29249200       0.56382000 </v>
   <v>       0.53721333       0.50558933       0.47712133 </v>
   <v>       0.54531800       0.34766067       0.53221200 </v>
   <v>       0.44292600       0.44010533       0.61560467 </v>
   <v>       0.41790333       0.39815333       0.44523933 </v>
   <v>       0.22734533       0.56675067       0.54883133 </v>
   <v>       0.33278000       0.54270333       0.66294400 </v>
   <v>       0.35300667       0.68475333       0.57056467 </v>
   <v>       0.48421133       0.66526867       0.47368200 </v>
   <v>       0.63016000       0.48977133       0.59596200 </v>
   <v>       0.48682267       0.59211267       0.61272533 </v>
   <v>       0.74728667       0.50595333       0.64677000 </v>
   <v>       0.82374000       0.49476533       0.65566200 </v>
  </varray>
 </structure>
</modeling>
