 vasp.5.4.4.18Apr17-6-g9f103f2a35 (build May 08 2019 13:49:07) complex          
  
 executed on             LinuxIFC date 2019.11.13  11:41:44
 running on   24 total cores
 distrk:  each k-point on   24 cores,    1 groups
 distr:  one band on NCORES_PER_BAND=   6 cores,    4 groups


--------------------------------------------------------------------------------------------------------


 INCAR:
 POTCAR:    PAW_PBE Cu 22Jun2005                  
 POTCAR:    PAW_PBE C 08Apr2002                   
 POTCAR:    PAW_PBE O 08Apr2002                   
 POTCAR:    PAW_PBE Cu 22Jun2005                  
   VRHFIN =Cu: d10 p1                                                           
   LEXCH  = PE                                                                  
   EATOM  =  1390.9808 eV,  102.2342 Ry                                         
                                                                                
   TITEL  = PAW_PBE Cu 22Jun2005                                                
   LULTRA =        F    use ultrasoft PP ?                                      
   IUNSCR =        1    unscreen: 0-lin 1-nonlin 2-no                           
   RPACOR =    2.000    partial core radius                                     
   POMASS =   63.546; ZVAL   =   11.000    mass and valenz                      
   RCORE  =    2.300    outmost cutoff radius                                   
   RWIGS  =    2.200; RWIGS  =    1.164    wigner-seitz radius (au A)           
   ENMAX  =  295.446; ENMIN  =  221.585 eV                                      
   ICORE  =        3    local potential                                         
   LCOR   =        T    correct aug charges                                     
   LPAW   =        T    paw PP                                                  
   EAUG   =  586.980                                                            
   DEXC   =    0.000                                                            
   RMAX   =    2.344    core radius for proj-oper                               
   RAUG   =    1.300    factor for augmentation sphere                          
   RDEP   =    2.302    radius for radial grids                                 
   RDEPT  =    1.771    core radius for aug-charge                              
                                                                                
   Atomic configuration                                                         
    9 entries                                                                   
     n  l   j            E        occ.                                          
     1  0  0.50     -8850.2468   2.0000                                         
     2  0  0.50     -1062.3498   2.0000                                         
     2  1  1.50      -916.8226   6.0000                                         
     3  0  0.50      -114.6929   2.0000                                         
     3  1  1.50       -72.1325   6.0000                                         
     3  2  2.50        -5.0394  10.0000                                         
     4  0  0.50        -4.6097   1.0000                                         
     4  1  0.50        -4.0817   0.0000                                         
     4  3  2.50        -1.3606   0.0000                                         
   Description                                                                  
     l       E           TYP  RCUT    TYP  RCUT                                 
     2     -5.0393973     23  2.200                                             
     2     10.8846608     23  2.200                                             
     0     -4.6097109     23  2.200                                             
     0      8.2520465     23  2.200                                             
     1     -2.7211652     23  2.200                                             
     1     21.7055443     23  2.200                                             
     3      2.7211652     23  2.300                                             
  local pseudopotential read in
  partial core-charges read in
  partial kinetic energy density read in
  atomic valenz-charges read in
  non local Contribution for L=           2  read in
    real space projection operators read in
  non local Contribution for L=           2  read in
    real space projection operators read in
  non local Contribution for L=           0  read in
    real space projection operators read in
  non local Contribution for L=           0  read in
    real space projection operators read in
  non local Contribution for L=           1  read in
    real space projection operators read in
  non local Contribution for L=           1  read in
    real space projection operators read in
    PAW grid and wavefunctions read in
 
   number of l-projection  operators is LMAX  =           6
   number of lm-projection operators is LMMAX =          18
 
 POTCAR:    PAW_PBE C 08Apr2002                   
   VRHFIN =C: s2p2                                                              
   LEXCH  = PE                                                                  
   EATOM  =   147.1560 eV,   10.8157 Ry                                         
                                                                                
   TITEL  = PAW_PBE C 08Apr2002                                                 
   LULTRA =        F    use ultrasoft PP ?                                      
   IUNSCR =        1    unscreen: 0-lin 1-nonlin 2-no                           
   RPACOR =    1.200    partial core radius                                     
   POMASS =   12.011; ZVAL   =    4.000    mass and valenz                      
   RCORE  =    1.500    outmost cutoff radius                                   
   RWIGS  =    1.630; RWIGS  =    0.863    wigner-seitz radius (au A)           
   ENMAX  =  400.000; ENMIN  =  300.000 eV                                      
   ICORE  =        2    local potential                                         
   LCOR   =        T    correct aug charges                                     
   LPAW   =        T    paw PP                                                  
   EAUG   =  644.873                                                            
   DEXC   =    0.000                                                            
   RMAX   =    1.529    core radius for proj-oper                               
   RAUG   =    1.300    factor for augmentation sphere                          
   RDEP   =    1.501    radius for radial grids                                 
   RDEPT  =    1.300    core radius for aug-charge                              
                                                                                
   Atomic configuration                                                         
    4 entries                                                                   
     n  l   j            E        occ.                                          
     1  0  0.50      -273.3789   2.0000                                         
     2  0  0.50       -13.7508   2.0000                                         
     2  1  0.50        -5.2854   2.0000                                         
     3  2  1.50        -5.4423   0.0000                                         
   Description                                                                  
     l       E           TYP  RCUT    TYP  RCUT                                 
     0    -13.7508458     23  1.200                                             
     0     -8.2022199     23  1.200                                             
     1     -5.2854383     23  1.500                                             
     1     34.0145650     23  1.500                                             
     2     -5.4423304      7  1.500                                             
  local pseudopotential read in
  partial core-charges read in
  partial kinetic energy density read in
  atomic valenz-charges read in
  non local Contribution for L=           0  read in
    real space projection operators read in
  non local Contribution for L=           0  read in
    real space projection operators read in
  non local Contribution for L=           1  read in
    real space projection operators read in
  non local Contribution for L=           1  read in
    real space projection operators read in
    PAW grid and wavefunctions read in
 
   number of l-projection  operators is LMAX  =           4
   number of lm-projection operators is LMMAX =           8
 
 POTCAR:    PAW_PBE O 08Apr2002                   
   VRHFIN =O: s2p4                                                              
   LEXCH  = PE                                                                  
   EATOM  =   432.3788 eV,   31.7789 Ry                                         
                                                                                
   TITEL  = PAW_PBE O 08Apr2002                                                 
   LULTRA =        F    use ultrasoft PP ?                                      
   IUNSCR =        1    unscreen: 0-lin 1-nonlin 2-no                           
   RPACOR =    1.200    partial core radius                                     
   POMASS =   16.000; ZVAL   =    6.000    mass and valenz                      
   RCORE  =    1.520    outmost cutoff radius                                   
   RWIGS  =    1.550; RWIGS  =    0.820    wigner-seitz radius (au A)           
   ENMAX  =  400.000; ENMIN  =  300.000 eV                                      
   ICORE  =        2    local potential                                         
   LCOR   =        T    correct aug charges                                     
   LPAW   =        T    paw PP                                                  
   EAUG   =  605.392                                                            
   DEXC   =    0.000                                                            
   RMAX   =    1.553    core radius for proj-oper                               
   RAUG   =    1.300    factor for augmentation sphere                          
   RDEP   =    1.550    radius for radial grids                                 
   RDEPT  =    1.329    core radius for aug-charge                              
                                                                                
   Atomic configuration                                                         
    4 entries                                                                   
     n  l   j            E        occ.                                          
     1  0  0.50      -514.6923   2.0000                                         
     2  0  0.50       -23.9615   2.0000                                         
     2  1  0.50        -9.0305   4.0000                                         
     3  2  1.50        -9.5241   0.0000                                         
   Description                                                                  
     l       E           TYP  RCUT    TYP  RCUT                                 
     0    -23.9615318     23  1.200                                             
     0     -9.5240782     23  1.200                                             
     1     -9.0304911     23  1.520                                             
     1      8.1634956     23  1.520                                             
     2     -9.5240782      7  1.500                                             
  local pseudopotential read in
  partial core-charges read in
  partial kinetic energy density read in
  kinetic energy density of atom read in
  atomic valenz-charges read in
  non local Contribution for L=           0  read in
    real space projection operators read in
  non local Contribution for L=           0  read in
    real space projection operators read in
  non local Contribution for L=           1  read in
    real space projection operators read in
  non local Contribution for L=           1  read in
    real space projection operators read in
    PAW grid and wavefunctions read in
 
   number of l-projection  operators is LMAX  =           4
   number of lm-projection operators is LMMAX =           8
 
  PAW_PBE Cu 22Jun2005                  :
 energy of atom  1       EATOM=-1390.9808
 kinetic energy error for atom=    0.0033 (will be added to EATOM!!)
  PAW_PBE C 08Apr2002                   :
 energy of atom  2       EATOM= -147.1560
 kinetic energy error for atom=    0.0057 (will be added to EATOM!!)
  PAW_PBE O 08Apr2002                   :
 energy of atom  3       EATOM= -432.3788
 kinetic energy error for atom=    0.0168 (will be added to EATOM!!)
 
 
 POSCAR: Cu13 C1 O1                              
  positions in cartesian coordinates
  No initial velocities read in
 exchange correlation table for  LEXCH =        8
   RHO(1)=    0.500       N(1)  =     2000
   RHO(2)=  100.500       N(2)  =     4000
 


--------------------------------------------------------------------------------------------------------


 ion  position               nearest neighbor table
   1  0.293  0.422  0.560-   6 2.46   2 2.47   9 2.47   8 2.51   3 2.51   7 2.56
   2  0.372  0.548  0.488-   8 2.35  10 2.38   7 2.45   4 2.46   1 2.47  11 2.47   9 2.57  13 2.70

   3  0.390  0.285  0.556-   7 2.37   1 2.51   6 2.52   5 2.59
   4  0.531  0.508  0.481-  12 2.34   7 2.41  13 2.43  11 2.45   2 2.46   5 2.56   6 2.63
   5  0.550  0.347  0.534-   6 2.34   7 2.46   4 2.56  12 2.57   3 2.59
   6  0.448  0.432  0.615-   5 2.34   1 2.46   9 2.47  13 2.47   3 2.52   7 2.60   4 2.63  12 2.72

   7  0.419  0.397  0.448-   3 2.37   4 2.41   2 2.45   5 2.46   1 2.56   6 2.60
   8  0.228  0.575  0.544-   2 2.35   9 2.40  10 2.50   1 2.51
   9  0.339  0.548  0.656-  10 2.40   8 2.40  13 2.46   6 2.47   1 2.47   2 2.57
  10  0.353  0.682  0.570-   2 2.38   9 2.40  11 2.48   8 2.50  13 2.59
  11  0.487  0.665  0.475-  13 2.38   4 2.45   2 2.47  10 2.48
  12  0.621  0.485  0.606-  14 1.80   4 2.34  13 2.50   5 2.57   6 2.72
  13  0.492  0.591  0.615-  11 2.38   4 2.43   9 2.46   6 2.47  12 2.50  10 2.59   2 2.70
  14  0.729  0.497  0.657-  15 1.16  12 1.80
  15  0.805  0.502  0.671-  14 1.16
 

IMPORTANT INFORMATION: All symmetrisations will be switched off!
NOSYMM: (Re-)initialisation of all symmetry stuff for point group C_1.

 
 

Automatic generation of k-mesh.
 generate k-points for:    1    1    1
Space group operators:
 irot       det(A)        alpha          n_x          n_y          n_z        tau_x        tau_y        tau_z
    1     1.000000     0.000000     1.000000     0.000000     0.000000     0.000000     0.000000     0.000000
 
 Subroutine IBZKPT returns following result:
 ===========================================
 
 Found      1 irreducible k-points:
 
 Following reciprocal coordinates:
            Coordinates               Weight
  0.000000  0.000000  0.000000      1.000000
 
 Following cartesian coordinates:
            Coordinates               Weight
  0.000000  0.000000  0.000000      1.000000
 


--------------------------------------------------------------------------------------------------------




 Dimension of arrays:
   k-points           NKPTS =      1   k-points in BZ     NKDIM =      1   number of bands    NBANDS=     92
   number of dos      NEDOS =    301   number of ions     NIONS =     15
   non local maximal  LDIM  =      6   non local SUM 2l+1 LMDIM =     18
   total plane-waves  NPLWV = ******
   max r-space proj   IRMAX =      1   max aug-charges    IRDMAX=  15028
   dimension x,y,z NGX =   120 NGY =  120 NGZ =  120
   dimension x,y,z NGXF=   240 NGYF=  240 NGZF=  240
   support grid    NGXF=   240 NGYF=  240 NGZF=  240
   ions per type =              13   1   1
   NGX,Y,Z   is equivalent  to a cutoff of  13.30, 13.30, 13.30 a.u.
   NGXF,Y,Z  is equivalent  to a cutoff of  26.60, 26.60, 26.60 a.u.

 SYSTEM =  CuCO                                    
 POSCAR =  Cu13 C1 O1                              

 Startparameter for this run:
   NWRITE =      2    write-flag & timer
   PREC   = accura    normal or accurate (medium, high low for compatibility)
   ISTART =      0    job   : 0-new  1-cont  2-samecut
   ICHARG =      2    charge: 1-file 2-atom 10-const
   ISPIN  =      2    spin polarized calculation?
   LNONCOLLINEAR =      F non collinear calculations
   LSORBIT =      F    spin-orbit coupling
   INIWAV =      1    electr: 0-lowe 1-rand  2-diag
   LASPH  =      F    aspherical Exc in radial PAW
   METAGGA=      F    non-selfconsistent MetaGGA calc.

 Electronic Relaxation 1
   ENCUT  =  600.0 eV  44.10 Ry    6.64 a.u.  29.96 29.96 29.96*2*pi/ulx,y,z
   ENINI  =  600.0     initial cutoff
   ENAUG  =  644.9 eV  augmentation charge cutoff
   NELM   =    300;   NELMIN=  3; NELMDL= -5     # of ELM steps 
   EDIFF  = 0.1E-06   stopping-criterion for ELM
   LREAL  =      F    real-space projection
   NLSPLINE    = F    spline interpolate recip. space projectors
   LCOMPAT=      F    compatible to vasp.4.4
   GGA_COMPAT  = T    GGA compatible to vasp.4.4-vasp.4.6
   LMAXPAW     = -100 max onsite density
   LMAXMIX     =    2 max onsite mixed and CHGCAR
   VOSKOWN=      0    Vosko Wilk Nusair interpolation
   ROPT   =    0.00000   0.00000   0.00000
 Ionic relaxation
   EDIFFG = -.1E-02   stopping-criterion for IOM
   NSW    =      0    number of steps for IOM
   NBLOCK =      1;   KBLOCK =      1    inner block; outer block 
   IBRION =     -1    ionic relax: 0-MD 1-quasi-New 2-CG
   NFREE  =      0    steps in history (QN), initial steepest desc. (CG)
   ISIF   =      2    stress and relaxation
   IWAVPR =     10    prediction:  0-non 1-charg 2-wave 3-comb
   ISYM   =      0    0-nonsym 1-usesym 2-fastsym
   LCORR  =      T    Harris-Foulkes like correction to forces

   POTIM  = 0.5000    time-step for ionic-motion
   TEIN   =    0.0    initial temperature
   TEBEG  =    0.0;   TEEND  =   0.0 temperature during run
   SMASS  =  -3.00    Nose mass-parameter (am)
   estimated Nose-frequenzy (Omega)   =  0.10E-29 period in steps =****** mass=  -0.514E-26a.u.
   SCALEE = 1.0000    scale energy and forces
   NPACO  =    256;   APACO  = 16.0  distance and # of slots for P.C.
   PSTRESS=    0.0 pullay stress

  Mass of Ions in am
   POMASS =  63.55 12.01 16.00
  Ionic Valenz
   ZVAL   =  11.00  4.00  6.00
  Atomic Wigner-Seitz radii
   RWIGS  =  -1.00 -1.00 -1.00
  virtual crystal weights 
   VCA    =   1.00  1.00  1.00
   NELECT =     153.0000    total number of electrons
   NUPDOWN=       1.0000    fix difference up-down

 DOS related values:
   EMIN   =  10.00;   EMAX   =-10.00  energy-range for DOS
   EFERMI =   0.00
   ISMEAR =     1;   SIGMA  =   0.10  broadening in eV -4-tet -1-fermi 0-gaus

 Electronic relaxation 2 (details)
   IALGO  =     68    algorithm
   LDIAG  =      T    sub-space diagonalisation (order eigenvalues)
   LSUBROT=      F    optimize rotation matrix (better conditioning)
   TURBO    =      0    0=normal 1=particle mesh
   IRESTART =      0    0=no restart 2=restart with 2 vectors
   NREBOOT  =      0    no. of reboots
   NMIN     =      0    reboot dimension
   EREF     =   0.00    reference energy to select bands
   IMIX   =      4    mixing-type and parameters
     AMIX     =   0.40;   BMIX     =  1.00
     AMIX_MAG =   1.60;   BMIX_MAG =  1.00
     AMIN     =   0.10
     WC   =   100.;   INIMIX=   1;  MIXPRE=   1;  MAXMIX= -45

 Intra band minimization:
   WEIMIN = 0.0000     energy-eigenvalue tresh-hold
   EBREAK =  0.27E-09  absolut break condition
   DEPER  =   0.30     relativ break condition  

   TIME   =   0.40     timestep for ELM

  volume/ion in A,a.u.               =     225.00      1518.37
  Fermi-wavevector in a.u.,A,eV,Ry     =   0.583733  1.103095  4.636102  0.340744
  Thomas-Fermi vector in A             =   1.629149
 
 Write flags
   LWAVE        =      F    write WAVECAR
   LDOWNSAMPLE  =      F    k-point downsampling of WAVECAR
   LCHARG       =      F    write CHGCAR
   LVTOT        =      F    write LOCPOT, total local potential
   LVHAR        =      F    write LOCPOT, Hartree potential only
   LELF         =      F    write electronic localiz. function (ELF)
   LORBIT       =      0    0 simple, 1 ext, 2 COOP (PROOUT), +10 PAW based schemes


 Dipole corrections
   LMONO  =      F    monopole corrections only (constant potential shift)
   LDIPOL =      F    correct potential (dipole corrections)
   IDIPOL =      0    1-x, 2-y, 3-z, 4-all directions 
   EPSILON=  1.0000000 bulk dielectric constant

 Exchange correlation treatment:
   GGA     =    PE    GGA type
   LEXCH   =     8    internal setting for exchange type
   VOSKOWN=      0    Vosko Wilk Nusair interpolation
   LHFCALC =     F    Hartree Fock is set to
   LHFONE  =     F    Hartree Fock one center treatment
   AEXX    =    0.0000 exact exchange contribution

 Linear response parameters
   LEPSILON=     F    determine dielectric tensor
   LRPA    =     F    only Hartree local field effects (RPA)
   LNABLA  =     F    use nabla operator in PAW spheres
   LVEL    =     F    velocity operator in full k-point grid
   LINTERFAST=   F  fast interpolation
   KINTER  =     0    interpolate to denser k-point grid
   CSHIFT  =0.1000    complex shift for real part using Kramers Kronig
   OMEGAMAX=  -1.0    maximum frequency
   DEG_THRESHOLD= 0.2000000E-02 threshold for treating states as degnerate
   RTIME   =   -0.100 relaxation time in fs
  (WPLASMAI=    0.000 imaginary part of plasma frequency in eV, 0.658/RTIME)
   DFIELD  = 0.0000000 0.0000000 0.0000000 field for delta impulse in time
 
 Orbital magnetization related:
   ORBITALMAG=     F  switch on orbital magnetization
   LCHIMAG   =     F  perturbation theory with respect to B field
   DQ        =  0.001000  dq finite difference perturbation B field
   LLRAUG    =     F  two centre corrections for induced B field



--------------------------------------------------------------------------------------------------------


 Static calculation
 charge density and potential will be updated during run
 spin polarized calculation
 RMM-DIIS sequential band-by-band and
  variant of blocked Davidson during initial phase
 perform sub-space diagonalisation
    before iterative eigenvector-optimisation
 modified Broyden-mixing scheme, WC =      100.0
 initial mixing is a Kerker type mixing with AMIX =  0.4000 and BMIX =      1.0000
 Hartree-type preconditioning will be used
 using additional bands           15
 reciprocal scheme for non local part
 use partial core corrections
 calculate Harris-corrections to forces 
   (improved forces if not selfconsistent)
 use gradient corrections 
 use of overlap-Matrix (Vanderbilt PP)
 Methfessel and Paxton  Order N= 1 SIGMA  =   0.10


--------------------------------------------------------------------------------------------------------


  energy-cutoff  :      600.00
  volume of cell :     3375.00
      direct lattice vectors                 reciprocal lattice vectors
    15.000000000  0.000000000  0.000000000     0.066666667  0.000000000  0.000000000
     0.000000000 15.000000000  0.000000000     0.000000000  0.066666667  0.000000000
     0.000000000  0.000000000 15.000000000     0.000000000  0.000000000  0.066666667

  length of vectors
    15.000000000 15.000000000 15.000000000     0.066666667  0.066666667  0.066666667


 
 k-points in units of 2pi/SCALE and weight: read from INCAR                         
   0.00000000  0.00000000  0.00000000       1.000
 
 k-points in reciprocal lattice and weights: read from INCAR                         
   0.00000000  0.00000000  0.00000000       1.000
 
 position of ions in fractional coordinates (direct lattice) 
   0.29332067  0.42192000  0.55996600
   0.37175800  0.54763467  0.48800133
   0.39039000  0.28532400  0.55641667
   0.53079867  0.50778000  0.48082000
   0.55018867  0.34678600  0.53351600
   0.44756200  0.43175867  0.61504000
   0.41913333  0.39663800  0.44786733
   0.22794067  0.57525467  0.54382133
   0.33885733  0.54816667  0.65588800
   0.35290067  0.68235333  0.57016600
   0.48674667  0.66519467  0.47488933
   0.62053600  0.48458800  0.60638867
   0.49195600  0.59054667  0.61484333
   0.72890000  0.49704667  0.65708200
   0.80470000  0.50194533  0.67064000
 
 position of ions in cartesian coordinates  (Angst):
   4.39981000  6.32880000  8.39949000
   5.57637000  8.21452000  7.32002000
   5.85585000  4.27986000  8.34625000
   7.96198000  7.61670000  7.21230000
   8.25283000  5.20179000  8.00274000
   6.71343000  6.47638000  9.22560000
   6.28700000  5.94957000  6.71801000
   3.41911000  8.62882000  8.15732000
   5.08286000  8.22250000  9.83832000
   5.29351000 10.23530000  8.55249000
   7.30120000  9.97792000  7.12334000
   9.30804000  7.26882000  9.09583000
   7.37934000  8.85820000  9.22265000
  10.93350000  7.45570000  9.85623000
  12.07050000  7.52918000 10.05960000
 


--------------------------------------------------------------------------------------------------------


 k-point  1 :   0.0000 0.0000 0.0000  plane waves:  112451

 maximum and minimum number of plane-waves per node :     18753    18726

 maximum number of plane-waves:    112451
 maximum index in each direction: 
   IXMAX=   29   IYMAX=   29   IZMAX=   29
   IXMIN=  -29   IYMIN=  -29   IZMIN=  -29


 parallel 3D FFT for wavefunctions:
    minimum data exchange during FFTs selected (reduces bandwidth)
 parallel 3D FFT for charge:
    minimum data exchange during FFTs selected (reduces bandwidth)


 total amount of memory used by VASP MPI-rank0   158680. kBytes
=======================================================================

   base      :      30000. kBytes
   nonl-proj :      12601. kBytes
   fftplans  :      27994. kBytes
   grid      :      74150. kBytes
   one-center:         93. kBytes
   wavefun   :      13842. kBytes
 
     INWAV:  cpu time    0.0000: real time    0.0001
 Broyden mixing: mesh for mixing (old mesh)
   NGX = 59   NGY = 59   NGZ = 59
  (NGX  =240   NGY  =240   NGZ  =240)
  gives a total of 205379 points

 initial charge density was supplied:
 charge density of overlapping atoms calculated
 number of electron     153.0000000 magnetization       1.0000000
 keeping initial charge density in first step


--------------------------------------------------------------------------------------------------------


 Maximum index for augmentation-charges          711 (set IRDMAX)


--------------------------------------------------------------------------------------------------------


 First call to EWALD:  gamma=   0.118
 Maximum number of real-space cells 3x 3x 3
 Maximum number of reciprocal cells 3x 3x 3

    FEWALD:  cpu time    0.0016: real time    0.0021


--------------------------------------- Iteration      1(   1)  ---------------------------------------


    POTLOK:  cpu time    1.1788: real time    1.1816
    SETDIJ:  cpu time    0.0191: real time    0.0190
     EDDAV:  cpu time    7.5564: real time    7.5613
       DOS:  cpu time    0.0012: real time    0.0012
    --------------------------------------------
      LOOP:  cpu time    8.7554: real time    8.7631

 eigenvalue-minimisations  :   376
 total energy-change (2. order) : 0.1119755E+04  (-0.4461424E+04)
 number of electron     153.0000000 magnetization       1.0000000
 augmentation part      153.0000000 magnetization       1.0000000

 Free energy of the ion-electron system (eV)
  ---------------------------------------------------
  alpha Z        PSCENC =        41.16232785
  Ewald energy   TEWEN  =     16358.39811862
  -Hartree energ DENC   =    -33381.01977128
  -exchange      EXHF   =         0.00000000
  -V(xc)+E(xc)   XCENC  =       623.46057020
  PAW double counting   =     16421.75059358   -17800.06104309
  entropy T*S    EENTRO =         0.01652928
  eigenvalues    EBANDS =       193.82842865
  atomic energy  EATOM  =     18662.21924712
  Solvation  Ediel_sol  =         0.00000000
  ---------------------------------------------------
  free energy    TOTEN  =      1119.75500093 eV

  energy without entropy =     1119.73847165  energy(sigma->0) =     1119.74949117


--------------------------------------------------------------------------------------------------------




--------------------------------------- Iteration      1(   2)  ---------------------------------------


     EDDAV:  cpu time    7.4296: real time    7.4348
       DOS:  cpu time    0.0009: real time    0.0009
    --------------------------------------------
      LOOP:  cpu time    7.4305: real time    7.4357

 eigenvalue-minimisations  :   368
 total energy-change (2. order) :-0.1031066E+04  (-0.9776357E+03)
 number of electron     153.0000000 magnetization       1.0000000
 augmentation part      153.0000000 magnetization       1.0000000

 Free energy of the ion-electron system (eV)
  ---------------------------------------------------
  alpha Z        PSCENC =        41.16232785
  Ewald energy   TEWEN  =     16358.39811862
  -Hartree energ DENC   =    -33381.01977128
  -exchange      EXHF   =         0.00000000
  -V(xc)+E(xc)   XCENC  =       623.46057020
  PAW double counting   =     16421.75059358   -17800.06104309
  entropy T*S    EENTRO =         0.00579855
  eigenvalues    EBANDS =      -837.22634787
  atomic energy  EATOM  =     18662.21924712
  Solvation  Ediel_sol  =         0.00000000
  ---------------------------------------------------
  free energy    TOTEN  =        88.68949368 eV

  energy without entropy =       88.68369513  energy(sigma->0) =       88.68756083


--------------------------------------------------------------------------------------------------------




--------------------------------------- Iteration      1(   3)  ---------------------------------------


     EDDAV:  cpu time   11.4763: real time   11.4850
       DOS:  cpu time    0.0007: real time    0.0007
    --------------------------------------------
      LOOP:  cpu time   11.4770: real time   11.4857

 eigenvalue-minimisations  :   648
 total energy-change (2. order) :-0.1219511E+03  (-0.1140345E+03)
 number of electron     153.0000000 magnetization       1.0000000
 augmentation part      153.0000000 magnetization       1.0000000

 Free energy of the ion-electron system (eV)
  ---------------------------------------------------
  alpha Z        PSCENC =        41.16232785
  Ewald energy   TEWEN  =     16358.39811862
  -Hartree energ DENC   =    -33381.01977128
  -exchange      EXHF   =         0.00000000
  -V(xc)+E(xc)   XCENC  =       623.46057020
  PAW double counting   =     16421.75059358   -17800.06104309
  entropy T*S    EENTRO =         0.01868649
  eigenvalues    EBANDS =      -959.19030458
  atomic energy  EATOM  =     18662.21924712
  Solvation  Ediel_sol  =         0.00000000
  ---------------------------------------------------
  free energy    TOTEN  =       -33.26157510 eV

  energy without entropy =      -33.28026159  energy(sigma->0) =      -33.26780393


--------------------------------------------------------------------------------------------------------




--------------------------------------- Iteration      1(   4)  ---------------------------------------


     EDDAV:  cpu time   10.2016: real time   10.2088
       DOS:  cpu time    0.0008: real time    0.0008
    --------------------------------------------
      LOOP:  cpu time   10.2024: real time   10.2096

 eigenvalue-minimisations  :   560
 total energy-change (2. order) :-0.2262051E+02  (-0.2226717E+02)
 number of electron     153.0000000 magnetization       1.0000000
 augmentation part      153.0000000 magnetization       1.0000000

 Free energy of the ion-electron system (eV)
  ---------------------------------------------------
  alpha Z        PSCENC =        41.16232785
  Ewald energy   TEWEN  =     16358.39811862
  -Hartree energ DENC   =    -33381.01977128
  -exchange      EXHF   =         0.00000000
  -V(xc)+E(xc)   XCENC  =       623.46057020
  PAW double counting   =     16421.75059358   -17800.06104309
  entropy T*S    EENTRO =         0.00943345
  eigenvalues    EBANDS =      -981.80156024
  atomic energy  EATOM  =     18662.21924712
  Solvation  Ediel_sol  =         0.00000000
  ---------------------------------------------------
  free energy    TOTEN  =       -55.88208380 eV

  energy without entropy =      -55.89151725  energy(sigma->0) =      -55.88522828


--------------------------------------------------------------------------------------------------------




--------------------------------------- Iteration      1(   5)  ---------------------------------------


     EDDAV:  cpu time   11.8820: real time   11.8900
       DOS:  cpu time    0.0008: real time    0.0008
    CHARGE:  cpu time    0.6604: real time    0.6609
    MIXING:  cpu time    0.0244: real time    0.0245
    --------------------------------------------
      LOOP:  cpu time   12.5676: real time   12.5761

 eigenvalue-minimisations  :   672
 total energy-change (2. order) :-0.1731554E+01  (-0.1580204E+01)
 number of electron     152.9999979 magnetization       1.0000000
 augmentation part       87.3900907 magnetization       0.3845604

 Broyden mixing:
  rms(total) = 0.24064E+01    rms(broyden)= 0.24063E+01
  rms(prec ) = 0.27620E+01
  weight for this iteration     100.00

 Free energy of the ion-electron system (eV)
  ---------------------------------------------------
  alpha Z        PSCENC =        41.16232785
  Ewald energy   TEWEN  =     16358.39811862
  -Hartree energ DENC   =    -33381.01977128
  -exchange      EXHF   =         0.00000000
  -V(xc)+E(xc)   XCENC  =       623.46057020
  PAW double counting   =     16421.75059358   -17800.06104309
  entropy T*S    EENTRO =         0.00939369
  eigenvalues    EBANDS =      -983.53307425
  atomic energy  EATOM  =     18662.21924712
  Solvation  Ediel_sol  =         0.00000000
  ---------------------------------------------------
  free energy    TOTEN  =       -57.61363757 eV

  energy without entropy =      -57.62303126  energy(sigma->0) =      -57.61676880


--------------------------------------------------------------------------------------------------------




--------------------------------------- Iteration      1(   6)  ---------------------------------------


    POTLOK:  cpu time    1.1620: real time    1.1647
    SETDIJ:  cpu time    0.0201: real time    0.0201
    EDDIAG:  cpu time    1.0870: real time    1.0878
  RMM-DIIS:  cpu time    6.8712: real time    6.8749
    ORTHCH:  cpu time    0.0583: real time    0.0583
       DOS:  cpu time    0.0004: real time    0.0004
    CHARGE:  cpu time    0.6341: real time    0.6345
    MIXING:  cpu time    0.0248: real time    0.0248
    --------------------------------------------
      LOOP:  cpu time    9.8579: real time    9.8655

 eigenvalue-minimisations  :   422
 total energy-change (2. order) : 0.7256949E+00  (-0.1240611E+02)
 number of electron     152.9999978 magnetization       1.0000000
 augmentation part       95.7757404 magnetization       0.0775572

 Broyden mixing:
  rms(total) = 0.15910E+01    rms(broyden)= 0.15908E+01
  rms(prec ) = 0.18362E+01
  weight for this iteration     100.00

 eigenvalues of (default mixing * dielectric matrix)
  average eigenvalue GAMMA=   0.6112
  0.6112

 Free energy of the ion-electron system (eV)
  ---------------------------------------------------
  alpha Z        PSCENC =        41.16232785
  Ewald energy   TEWEN  =     16358.39811862
  -Hartree energ DENC   =    -33124.30888001
  -exchange      EXHF   =         0.00000000
  -V(xc)+E(xc)   XCENC  =       611.14071048
  PAW double counting   =     16694.21315263   -18017.05578554
  entropy T*S    EENTRO =         0.00826300
  eigenvalues    EBANDS =     -1282.66509683
  atomic energy  EATOM  =     18662.21924712
  Solvation  Ediel_sol  =         0.00000000
  ---------------------------------------------------
  free energy    TOTEN  =       -56.88794268 eV

  energy without entropy =      -56.89620569  energy(sigma->0) =      -56.89069702


--------------------------------------------------------------------------------------------------------




--------------------------------------- Iteration      1(   7)  ---------------------------------------


    POTLOK:  cpu time    1.1603: real time    1.1650
    SETDIJ:  cpu time    0.0206: real time    0.0206
    EDDIAG:  cpu time    1.0884: real time    1.0893
  RMM-DIIS:  cpu time    7.3312: real time    7.3362
    ORTHCH:  cpu time    0.0579: real time    0.0579
       DOS:  cpu time    0.0004: real time    0.0004
    CHARGE:  cpu time    0.6437: real time    0.6438
    MIXING:  cpu time    0.0262: real time    0.0261
    --------------------------------------------
      LOOP:  cpu time   10.3286: real time   10.3394

 eigenvalue-minimisations  :   386
 total energy-change (2. order) : 0.7511958E+01  (-0.2577285E+01)
 number of electron     152.9999979 magnetization       1.0000000
 augmentation part       92.8958717 magnetization       0.0995869

 Broyden mixing:
  rms(total) = 0.38495E+00    rms(broyden)= 0.38492E+00
  rms(prec ) = 0.47917E+00
  weight for this iteration     100.00

 eigenvalues of (default mixing * dielectric matrix)
  average eigenvalue GAMMA=   0.9118
  1.1563  0.6672

 Free energy of the ion-electron system (eV)
  ---------------------------------------------------
  alpha Z        PSCENC =        41.16232785
  Ewald energy   TEWEN  =     16358.39811862
  -Hartree energ DENC   =    -33262.39796863
  -exchange      EXHF   =         0.00000000
  -V(xc)+E(xc)   XCENC  =       615.65032514
  PAW double counting   =     17038.10453967   -18411.48696542
  entropy T*S    EENTRO =         0.00933050
  eigenvalues    EBANDS =     -1091.03493938
  atomic energy  EATOM  =     18662.21924712
  Solvation  Ediel_sol  =         0.00000000
  ---------------------------------------------------
  free energy    TOTEN  =       -49.37598454 eV

  energy without entropy =      -49.38531504  energy(sigma->0) =      -49.37909471


--------------------------------------------------------------------------------------------------------




--------------------------------------- Iteration      1(   8)  ---------------------------------------


    POTLOK:  cpu time    1.1619: real time    1.1638
    SETDIJ:  cpu time    0.0196: real time    0.0196
    EDDIAG:  cpu time    1.0868: real time    1.0877
  RMM-DIIS:  cpu time    7.2928: real time    7.2985
    ORTHCH:  cpu time    0.0580: real time    0.0580
       DOS:  cpu time    0.0004: real time    0.0004
    CHARGE:  cpu time    0.6461: real time    0.6466
    MIXING:  cpu time    0.0245: real time    0.0245
    --------------------------------------------
      LOOP:  cpu time   10.2903: real time   10.2994

 eigenvalue-minimisations  :   423
 total energy-change (2. order) : 0.2540212E+00  (-0.4050094E+00)
 number of electron     152.9999979 magnetization       1.0000000
 augmentation part       92.0746494 magnetization       0.0988711

 Broyden mixing:
  rms(total) = 0.28776E+00    rms(broyden)= 0.28774E+00
  rms(prec ) = 0.32398E+00
  weight for this iteration     100.00

 eigenvalues of (default mixing * dielectric matrix)
  average eigenvalue GAMMA=   0.9570
  1.4132  0.7290  0.7290

 Free energy of the ion-electron system (eV)
  ---------------------------------------------------
  alpha Z        PSCENC =        41.16232785
  Ewald energy   TEWEN  =     16358.39811862
  -Hartree energ DENC   =    -33312.20075740
  -exchange      EXHF   =         0.00000000
  -V(xc)+E(xc)   XCENC  =       616.11756365
  PAW double counting   =     17388.48666821   -18781.51308869
  entropy T*S    EENTRO =         0.00934806
  eigenvalues    EBANDS =     -1021.80139078
  atomic energy  EATOM  =     18662.21924712
  Solvation  Ediel_sol  =         0.00000000
  ---------------------------------------------------
  free energy    TOTEN  =       -49.12196336 eV

  energy without entropy =      -49.13131142  energy(sigma->0) =      -49.12507938


--------------------------------------------------------------------------------------------------------




--------------------------------------- Iteration      1(   9)  ---------------------------------------


    POTLOK:  cpu time    1.1631: real time    1.1662
    SETDIJ:  cpu time    0.0202: real time    0.0202
    EDDIAG:  cpu time    1.0901: real time    1.0913
  RMM-DIIS:  cpu time    7.3976: real time    7.4020
    ORTHCH:  cpu time    0.0564: real time    0.0564
       DOS:  cpu time    0.0004: real time    0.0004
    CHARGE:  cpu time    0.6468: real time    0.6471
    MIXING:  cpu time    0.0259: real time    0.0259
    --------------------------------------------
      LOOP:  cpu time   10.4007: real time   10.4095

 eigenvalue-minimisations  :   412
 total energy-change (2. order) : 0.3604177E-01  (-0.9730608E-01)
 number of electron     152.9999979 magnetization       1.0000000
 augmentation part       92.3080872 magnetization       0.0831734

 Broyden mixing:
  rms(total) = 0.18123E+00    rms(broyden)= 0.18122E+00
  rms(prec ) = 0.21543E+00
  weight for this iteration     100.00

 eigenvalues of (default mixing * dielectric matrix)
  average eigenvalue GAMMA=   1.0369
  2.0884  0.7743  0.7743  0.5107

 Free energy of the ion-electron system (eV)
  ---------------------------------------------------
  alpha Z        PSCENC =        41.16232785
  Ewald energy   TEWEN  =     16358.39811862
  -Hartree energ DENC   =    -33309.40555953
  -exchange      EXHF   =         0.00000000
  -V(xc)+E(xc)   XCENC  =       615.53896263
  PAW double counting   =     17515.25755671   -18910.22541095
  entropy T*S    EENTRO =         0.00929093
  eigenvalues    EBANDS =     -1022.04045497
  atomic energy  EATOM  =     18662.21924712
  Solvation  Ediel_sol  =         0.00000000
  ---------------------------------------------------
  free energy    TOTEN  =       -49.08592159 eV

  energy without entropy =      -49.09521252  energy(sigma->0) =      -49.08901857


--------------------------------------------------------------------------------------------------------




--------------------------------------- Iteration      1(  10)  ---------------------------------------


    POTLOK:  cpu time    1.1623: real time    1.1635
    SETDIJ:  cpu time    0.0188: real time    0.0188
    EDDIAG:  cpu time    1.0889: real time    1.0897
  RMM-DIIS:  cpu time    7.0139: real time    7.0177
    ORTHCH:  cpu time    0.0562: real time    0.0562
       DOS:  cpu time    0.0004: real time    0.0004
    CHARGE:  cpu time    0.6466: real time    0.6472
    MIXING:  cpu time    0.0260: real time    0.0260
    --------------------------------------------
      LOOP:  cpu time   10.0130: real time   10.0194

 eigenvalue-minimisations  :   415
 total energy-change (2. order) : 0.5786595E-01  (-0.2449155E-01)
 number of electron     152.9999979 magnetization       1.0000000
 augmentation part       92.4498536 magnetization       0.0732541

 Broyden mixing:
  rms(total) = 0.53187E-01    rms(broyden)= 0.53182E-01
  rms(prec ) = 0.70321E-01
  weight for this iteration     100.00

 eigenvalues of (default mixing * dielectric matrix)
  average eigenvalue GAMMA=   1.0404
  2.0808  1.1061  0.7705  0.7705  0.4739

 Free energy of the ion-electron system (eV)
  ---------------------------------------------------
  alpha Z        PSCENC =        41.16232785
  Ewald energy   TEWEN  =     16358.39811862
  -Hartree energ DENC   =    -33308.77689971
  -exchange      EXHF   =         0.00000000
  -V(xc)+E(xc)   XCENC  =       615.20082529
  PAW double counting   =     17607.41861482   -19003.98287969
  entropy T*S    EENTRO =         0.00935034
  eigenvalues    EBANDS =     -1020.67676027
  atomic energy  EATOM  =     18662.21924712
  Solvation  Ediel_sol  =         0.00000000
  ---------------------------------------------------
  free energy    TOTEN  =       -49.02805564 eV

  energy without entropy =      -49.03740597  energy(sigma->0) =      -49.03117242


--------------------------------------------------------------------------------------------------------




--------------------------------------- Iteration      1(  11)  ---------------------------------------


    POTLOK:  cpu time    1.1613: real time    1.1617
    SETDIJ:  cpu time    0.0185: real time    0.0185
    EDDIAG:  cpu time    1.0898: real time    1.0903
  RMM-DIIS:  cpu time    7.1765: real time    7.1805
    ORTHCH:  cpu time    0.0554: real time    0.0554
       DOS:  cpu time    0.0004: real time    0.0004
    CHARGE:  cpu time    0.6456: real time    0.6461
    MIXING:  cpu time    0.0270: real time    0.0270
    --------------------------------------------
      LOOP:  cpu time   10.1744: real time   10.1799

 eigenvalue-minimisations  :   439
 total energy-change (2. order) : 0.8687496E-02  (-0.6331586E-02)
 number of electron     152.9999979 magnetization       1.0000000
 augmentation part       92.3886253 magnetization       0.0755372

 Broyden mixing:
  rms(total) = 0.34879E-01    rms(broyden)= 0.34877E-01
  rms(prec ) = 0.46536E-01
  weight for this iteration     100.00

 eigenvalues of (default mixing * dielectric matrix)
  average eigenvalue GAMMA=   1.0543
  2.1531  1.4896  0.7639  0.7639  0.6759  0.4796

 Free energy of the ion-electron system (eV)
  ---------------------------------------------------
  alpha Z        PSCENC =        41.16232785
  Ewald energy   TEWEN  =     16358.39811862
  -Hartree energ DENC   =    -33316.07656155
  -exchange      EXHF   =         0.00000000
  -V(xc)+E(xc)   XCENC  =       615.33939435
  PAW double counting   =     17649.55518172   -19048.04522611
  entropy T*S    EENTRO =         0.00934323
  eigenvalues    EBANDS =     -1011.58119336
  atomic energy  EATOM  =     18662.21924712
  Solvation  Ediel_sol  =         0.00000000
  ---------------------------------------------------
  free energy    TOTEN  =       -49.01936814 eV

  energy without entropy =      -49.02871137  energy(sigma->0) =      -49.02248255


--------------------------------------------------------------------------------------------------------




--------------------------------------- Iteration      1(  12)  ---------------------------------------


    POTLOK:  cpu time    1.1608: real time    1.1635
    SETDIJ:  cpu time    0.0187: real time    0.0187
    EDDIAG:  cpu time    1.0883: real time    1.0889
  RMM-DIIS:  cpu time    6.7998: real time    6.8038
    ORTHCH:  cpu time    0.0547: real time    0.0547
       DOS:  cpu time    0.0005: real time    0.0005
    CHARGE:  cpu time    0.6445: real time    0.6452
    MIXING:  cpu time    0.0289: real time    0.0289
    --------------------------------------------
      LOOP:  cpu time    9.7962: real time    9.8043

 eigenvalue-minimisations  :   422
 total energy-change (2. order) : 0.1881797E-02  (-0.1730648E-02)
 number of electron     152.9999979 magnetization       1.0000000
 augmentation part       92.3912788 magnetization       0.0750371

 Broyden mixing:
  rms(total) = 0.17852E-01    rms(broyden)= 0.17851E-01
  rms(prec ) = 0.29512E-01
  weight for this iteration     100.00

 eigenvalues of (default mixing * dielectric matrix)
  average eigenvalue GAMMA=   1.0785
  2.3790  1.6962  1.0118  0.7185  0.7185  0.5579  0.4679

 Free energy of the ion-electron system (eV)
  ---------------------------------------------------
  alpha Z        PSCENC =        41.16232785
  Ewald energy   TEWEN  =     16358.39811862
  -Hartree energ DENC   =    -33319.13874215
  -exchange      EXHF   =         0.00000000
  -V(xc)+E(xc)   XCENC  =       615.37090291
  PAW double counting   =     17660.13812584   -19058.97751739
  entropy T*S    EENTRO =         0.00934983
  eigenvalues    EBANDS =     -1008.19929897
  atomic energy  EATOM  =     18662.21924712
  Solvation  Ediel_sol  =         0.00000000
  ---------------------------------------------------
  free energy    TOTEN  =       -49.01748634 eV

  energy without entropy =      -49.02683618  energy(sigma->0) =      -49.02060296


--------------------------------------------------------------------------------------------------------




--------------------------------------- Iteration      1(  13)  ---------------------------------------


    POTLOK:  cpu time    1.1610: real time    1.1622
    SETDIJ:  cpu time    0.0187: real time    0.0187
    EDDIAG:  cpu time    1.0895: real time    1.0902
  RMM-DIIS:  cpu time    6.8240: real time    6.8280
    ORTHCH:  cpu time    0.0546: real time    0.0551
       DOS:  cpu time    0.0004: real time    0.0004
    CHARGE:  cpu time    0.6457: real time    0.6462
    MIXING:  cpu time    0.0291: real time    0.0291
    --------------------------------------------
      LOOP:  cpu time    9.8229: real time    9.8300

 eigenvalue-minimisations  :   427
 total energy-change (2. order) : 0.9262867E-03  (-0.5009971E-03)
 number of electron     152.9999979 magnetization       1.0000000
 augmentation part       92.4022192 magnetization       0.0751304

 Broyden mixing:
  rms(total) = 0.93129E-02    rms(broyden)= 0.93126E-02
  rms(prec ) = 0.19314E-01
  weight for this iteration     100.00

 eigenvalues of (default mixing * dielectric matrix)
  average eigenvalue GAMMA=   1.1146
  2.4224  1.8346  1.3889  0.7680  0.7680  0.7548  0.5284  0.4515

 Free energy of the ion-electron system (eV)
  ---------------------------------------------------
  alpha Z        PSCENC =        41.16232785
  Ewald energy   TEWEN  =     16358.39811862
  -Hartree energ DENC   =    -33322.74574068
  -exchange      EXHF   =         0.00000000
  -V(xc)+E(xc)   XCENC  =       615.37950601
  PAW double counting   =     17665.95549366   -19064.85534751
  entropy T*S    EENTRO =         0.00935054
  eigenvalues    EBANDS =     -1004.53951566
  atomic energy  EATOM  =     18662.21924712
  Solvation  Ediel_sol  =         0.00000000
  ---------------------------------------------------
  free energy    TOTEN  =       -49.01656006 eV

  energy without entropy =      -49.02591059  energy(sigma->0) =      -49.01967690


--------------------------------------------------------------------------------------------------------




--------------------------------------- Iteration      1(  14)  ---------------------------------------


    POTLOK:  cpu time    1.1606: real time    1.1618
    SETDIJ:  cpu time    0.0188: real time    0.0188
    EDDIAG:  cpu time    1.0880: real time    1.0893
  RMM-DIIS:  cpu time    6.9818: real time    7.0047
    ORTHCH:  cpu time    0.0545: real time    0.0546
       DOS:  cpu time    0.0004: real time    0.0004
    CHARGE:  cpu time    0.6448: real time    0.6452
    MIXING:  cpu time    0.0301: real time    0.0301
    --------------------------------------------
      LOOP:  cpu time    9.9791: real time   10.0049

 eigenvalue-minimisations  :   428
 total energy-change (2. order) :-0.1117029E-02  (-0.3207813E-03)
 number of electron     152.9999979 magnetization       1.0000000
 augmentation part       92.4077666 magnetization       0.0750701

 Broyden mixing:
  rms(total) = 0.91249E-02    rms(broyden)= 0.91247E-02
  rms(prec ) = 0.14939E-01
  weight for this iteration     100.00

 eigenvalues of (default mixing * dielectric matrix)
  average eigenvalue GAMMA=   1.1562
  2.4150  2.4150  1.3123  1.0347  0.7613  0.7613  0.7448  0.5042  0.4571

 Free energy of the ion-electron system (eV)
  ---------------------------------------------------
  alpha Z        PSCENC =        41.16232785
  Ewald energy   TEWEN  =     16358.39811862
  -Hartree energ DENC   =    -33328.15754820
  -exchange      EXHF   =         0.00000000
  -V(xc)+E(xc)   XCENC  =       615.41411374
  PAW double counting   =     17659.80095342   -19058.43071269
  entropy T*S    EENTRO =         0.00935056
  eigenvalues    EBANDS =      -999.43352751
  atomic energy  EATOM  =     18662.21924712
  Solvation  Ediel_sol  =         0.00000000
  ---------------------------------------------------
  free energy    TOTEN  =       -49.01767709 eV

  energy without entropy =      -49.02702764  energy(sigma->0) =      -49.02079394


--------------------------------------------------------------------------------------------------------




--------------------------------------- Iteration      1(  15)  ---------------------------------------


    POTLOK:  cpu time    1.1618: real time    1.1624
    SETDIJ:  cpu time    0.0188: real time    0.0188
    EDDIAG:  cpu time    1.0885: real time    1.0891
  RMM-DIIS:  cpu time    6.5084: real time    6.5122
    ORTHCH:  cpu time    0.0568: real time    0.0568
       DOS:  cpu time    0.0004: real time    0.0004
    CHARGE:  cpu time    0.6481: real time    0.6482
    MIXING:  cpu time    0.0299: real time    0.0299
    --------------------------------------------
      LOOP:  cpu time    9.5126: real time    9.5177

 eigenvalue-minimisations  :   398
 total energy-change (2. order) :-0.1279516E-02  (-0.1472417E-03)
 number of electron     152.9999979 magnetization       1.0000000
 augmentation part       92.4017860 magnetization       0.0754537

 Broyden mixing:
  rms(total) = 0.50943E-02    rms(broyden)= 0.50941E-02
  rms(prec ) = 0.92448E-02
  weight for this iteration     100.00

 eigenvalues of (default mixing * dielectric matrix)
  average eigenvalue GAMMA=   1.1862
  2.6902  2.6902  1.3339  1.3339  0.7547  0.7547  0.7647  0.5918  0.4884  0.4591

 Free energy of the ion-electron system (eV)
  ---------------------------------------------------
  alpha Z        PSCENC =        41.16232785
  Ewald energy   TEWEN  =     16358.39811862
  -Hartree energ DENC   =    -33331.80087331
  -exchange      EXHF   =         0.00000000
  -V(xc)+E(xc)   XCENC  =       615.45611167
  PAW double counting   =     17653.86620802   -19052.37972915
  entropy T*S    EENTRO =         0.00935064
  eigenvalues    EBANDS =      -995.94971807
  atomic energy  EATOM  =     18662.21924712
  Solvation  Ediel_sol  =         0.00000000
  ---------------------------------------------------
  free energy    TOTEN  =       -49.01895660 eV

  energy without entropy =      -49.02830725  energy(sigma->0) =      -49.02207348


--------------------------------------------------------------------------------------------------------




--------------------------------------- Iteration      1(  16)  ---------------------------------------


    POTLOK:  cpu time    1.1591: real time    1.1626
    SETDIJ:  cpu time    0.0189: real time    0.0189
    EDDIAG:  cpu time    1.0890: real time    1.0897
  RMM-DIIS:  cpu time    6.7078: real time    6.7112
    ORTHCH:  cpu time    0.0563: real time    0.0563
       DOS:  cpu time    0.0005: real time    0.0005
    CHARGE:  cpu time    0.6459: real time    0.6465
    MIXING:  cpu time    0.0315: real time    0.0315
    --------------------------------------------
      LOOP:  cpu time    9.7090: real time    9.7171

 eigenvalue-minimisations  :   400
 total energy-change (2. order) :-0.1416985E-02  (-0.7422418E-04)
 number of electron     152.9999979 magnetization       1.0000000
 augmentation part       92.3997451 magnetization       0.0755722

 Broyden mixing:
  rms(total) = 0.46638E-02    rms(broyden)= 0.46637E-02
  rms(prec ) = 0.71527E-02
  weight for this iteration     100.00

 eigenvalues of (default mixing * dielectric matrix)
  average eigenvalue GAMMA=   1.2291
  3.1758  2.5962  1.5384  1.5384  0.8385  0.8385  0.7515  0.7515  0.4548  0.5047
  0.5320

 Free energy of the ion-electron system (eV)
  ---------------------------------------------------
  alpha Z        PSCENC =        41.16232785
  Ewald energy   TEWEN  =     16358.39811862
  -Hartree energ DENC   =    -33334.14588704
  -exchange      EXHF   =         0.00000000
  -V(xc)+E(xc)   XCENC  =       615.47954184
  PAW double counting   =     17650.05645316   -19048.50057900
  entropy T*S    EENTRO =         0.00935056
  eigenvalues    EBANDS =      -993.69894670
  atomic energy  EATOM  =     18662.21924712
  Solvation  Ediel_sol  =         0.00000000
  ---------------------------------------------------
  free energy    TOTEN  =       -49.02037359 eV

  energy without entropy =      -49.02972415  energy(sigma->0) =      -49.02349044


--------------------------------------------------------------------------------------------------------




--------------------------------------- Iteration      1(  17)  ---------------------------------------


    POTLOK:  cpu time    1.1608: real time    1.1621
    SETDIJ:  cpu time    0.0187: real time    0.0187
    EDDIAG:  cpu time    1.0893: real time    1.0902
  RMM-DIIS:  cpu time    6.4211: real time    6.4249
    ORTHCH:  cpu time    0.0566: real time    0.0566
       DOS:  cpu time    0.0004: real time    0.0004
    CHARGE:  cpu time    0.6463: real time    0.6466
    MIXING:  cpu time    0.0318: real time    0.0318
    --------------------------------------------
      LOOP:  cpu time    9.4251: real time    9.4313

 eigenvalue-minimisations  :   394
 total energy-change (2. order) :-0.1700732E-02  (-0.5234620E-04)
 number of electron     152.9999979 magnetization       1.0000000
 augmentation part       92.4025570 magnetization       0.0755651

 Broyden mixing:
  rms(total) = 0.23260E-02    rms(broyden)= 0.23260E-02
  rms(prec ) = 0.39298E-02
  weight for this iteration     100.00

 eigenvalues of (default mixing * dielectric matrix)
  average eigenvalue GAMMA=   1.3419
  4.4324  2.5718  2.1279  1.4370  1.0487  0.7653  0.7653  0.8179  0.6709  0.4558
  0.5186  0.4906

 Free energy of the ion-electron system (eV)
  ---------------------------------------------------
  alpha Z        PSCENC =        41.16232785
  Ewald energy   TEWEN  =     16358.39811862
  -Hartree energ DENC   =    -33336.11849827
  -exchange      EXHF   =         0.00000000
  -V(xc)+E(xc)   XCENC  =       615.48452087
  PAW double counting   =     17648.40971904   -19046.81843128
  entropy T*S    EENTRO =         0.00935032
  eigenvalues    EBANDS =      -991.76842860
  atomic energy  EATOM  =     18662.21924712
  Solvation  Ediel_sol  =         0.00000000
  ---------------------------------------------------
  free energy    TOTEN  =       -49.02207432 eV

  energy without entropy =      -49.03142464  energy(sigma->0) =      -49.02519109


--------------------------------------------------------------------------------------------------------




--------------------------------------- Iteration      1(  18)  ---------------------------------------


    POTLOK:  cpu time    1.1620: real time    1.1626
    SETDIJ:  cpu time    0.0190: real time    0.0190
    EDDIAG:  cpu time    1.0886: real time    1.0892
  RMM-DIIS:  cpu time    7.1309: real time    7.1348
    ORTHCH:  cpu time    0.0564: real time    0.0563
       DOS:  cpu time    0.0005: real time    0.0005
    CHARGE:  cpu time    0.6470: real time    0.6472
    MIXING:  cpu time    0.0334: real time    0.0334
    --------------------------------------------
      LOOP:  cpu time   10.1376: real time   10.1431

 eigenvalue-minimisations  :   420
 total energy-change (2. order) :-0.8075692E-03  (-0.2129060E-04)
 number of electron     152.9999979 magnetization       1.0000000
 augmentation part       92.4000899 magnetization       0.0756438

 Broyden mixing:
  rms(total) = 0.14694E-02    rms(broyden)= 0.14693E-02
  rms(prec ) = 0.26131E-02
  weight for this iteration     100.00

 eigenvalues of (default mixing * dielectric matrix)
  average eigenvalue GAMMA=   1.3679
  5.0949  2.6562  2.2046  1.3038  1.3038  0.8475  0.8475  0.7302  0.7302  0.6145
  0.4566  0.5103  0.4831

 Free energy of the ion-electron system (eV)
  ---------------------------------------------------
  alpha Z        PSCENC =        41.16232785
  Ewald energy   TEWEN  =     16358.39811862
  -Hartree energ DENC   =    -33337.14787973
  -exchange      EXHF   =         0.00000000
  -V(xc)+E(xc)   XCENC  =       615.48847575
  PAW double counting   =     17648.38198456   -19046.82112015
  entropy T*S    EENTRO =         0.00935048
  eigenvalues    EBANDS =      -990.71338638
  atomic energy  EATOM  =     18662.21924712
  Solvation  Ediel_sol  =         0.00000000
  ---------------------------------------------------
  free energy    TOTEN  =       -49.02288189 eV

  energy without entropy =      -49.03223237  energy(sigma->0) =      -49.02599872


--------------------------------------------------------------------------------------------------------




--------------------------------------- Iteration      1(  19)  ---------------------------------------


    POTLOK:  cpu time    1.1613: real time    1.1624
    SETDIJ:  cpu time    0.0185: real time    0.0185
    EDDIAG:  cpu time    1.0858: real time    1.0867
  RMM-DIIS:  cpu time    7.6128: real time    7.6174
    ORTHCH:  cpu time    0.0566: real time    0.0566
       DOS:  cpu time    0.0005: real time    0.0005
    CHARGE:  cpu time    0.6467: real time    0.6472
    MIXING:  cpu time    0.0346: real time    0.0346
    --------------------------------------------
      LOOP:  cpu time   10.6167: real time   10.6238

 eigenvalue-minimisations  :   468
 total energy-change (2. order) :-0.6584695E-03  (-0.1206020E-04)
 number of electron     152.9999979 magnetization       1.0000000
 augmentation part       92.3990966 magnetization       0.0756478

 Broyden mixing:
  rms(total) = 0.12432E-02    rms(broyden)= 0.12432E-02
  rms(prec ) = 0.20873E-02
  weight for this iteration     100.00

 eigenvalues of (default mixing * dielectric matrix)
  average eigenvalue GAMMA=   1.4351
  5.8848  2.7254  2.1614  1.6342  1.6342  0.9508  0.9508  0.7399  0.7399  0.6653
  0.5633  0.4550  0.5056  0.4804

 Free energy of the ion-electron system (eV)
  ---------------------------------------------------
  alpha Z        PSCENC =        41.16232785
  Ewald energy   TEWEN  =     16358.39811862
  -Hartree energ DENC   =    -33337.64560748
  -exchange      EXHF   =         0.00000000
  -V(xc)+E(xc)   XCENC  =       615.48893446
  PAW double counting   =     17648.50346583   -19046.96026496
  entropy T*S    EENTRO =         0.00935043
  eigenvalues    EBANDS =      -990.19911224
  atomic energy  EATOM  =     18662.21924712
  Solvation  Ediel_sol  =         0.00000000
  ---------------------------------------------------
  free energy    TOTEN  =       -49.02354036 eV

  energy without entropy =      -49.03289079  energy(sigma->0) =      -49.02665717


--------------------------------------------------------------------------------------------------------




--------------------------------------- Iteration      1(  20)  ---------------------------------------


    POTLOK:  cpu time    1.1618: real time    1.1657
    SETDIJ:  cpu time    0.0190: real time    0.0190
    EDDIAG:  cpu time    1.0887: real time    1.0894
  RMM-DIIS:  cpu time    6.6077: real time    6.6125
    ORTHCH:  cpu time    0.0571: real time    0.0571
       DOS:  cpu time    0.0004: real time    0.0004
    CHARGE:  cpu time    0.6474: real time    0.6478
    MIXING:  cpu time    0.0359: real time    0.0359
    --------------------------------------------
      LOOP:  cpu time    9.6179: real time    9.6278

 eigenvalue-minimisations  :   401
 total energy-change (2. order) :-0.5629990E-03  (-0.4486812E-05)
 number of electron     152.9999979 magnetization       1.0000000
 augmentation part       92.3997455 magnetization       0.0756556

 Broyden mixing:
  rms(total) = 0.77575E-03    rms(broyden)= 0.77571E-03
  rms(prec ) = 0.13188E-02
  weight for this iteration     100.00

 eigenvalues of (default mixing * dielectric matrix)
  average eigenvalue GAMMA=   1.4539
  6.3933  2.7723  2.2965  1.9903  1.3264  1.1975  0.8674  0.8674  0.7412  0.7412
  0.6459  0.5193  0.5193  0.4553  0.4758

 Free energy of the ion-electron system (eV)
  ---------------------------------------------------
  alpha Z        PSCENC =        41.16232785
  Ewald energy   TEWEN  =     16358.39811862
  -Hartree energ DENC   =    -33337.73430155
  -exchange      EXHF   =         0.00000000
  -V(xc)+E(xc)   XCENC  =       615.48778362
  PAW double counting   =     17648.69190974   -19047.15063720
  entropy T*S    EENTRO =         0.00935051
  eigenvalues    EBANDS =      -990.10790207
  atomic energy  EATOM  =     18662.21924712
  Solvation  Ediel_sol  =         0.00000000
  ---------------------------------------------------
  free energy    TOTEN  =       -49.02410336 eV

  energy without entropy =      -49.03345387  energy(sigma->0) =      -49.02722020


--------------------------------------------------------------------------------------------------------




--------------------------------------- Iteration      1(  21)  ---------------------------------------


    POTLOK:  cpu time    1.1599: real time    1.1608
    SETDIJ:  cpu time    0.0191: real time    0.0191
    EDDIAG:  cpu time    1.0869: real time    1.0876
  RMM-DIIS:  cpu time    6.4906: real time    6.4955
    ORTHCH:  cpu time    0.0566: real time    0.0566
       DOS:  cpu time    0.0004: real time    0.0004
    CHARGE:  cpu time    0.6476: real time    0.6481
    MIXING:  cpu time    0.0380: real time    0.0380
    --------------------------------------------
      LOOP:  cpu time    9.4990: real time    9.5061

 eigenvalue-minimisations  :   404
 total energy-change (2. order) :-0.3759097E-03  (-0.3646064E-05)
 number of electron     152.9999979 magnetization       1.0000000
 augmentation part       92.4016175 magnetization       0.0756495

 Broyden mixing:
  rms(total) = 0.77560E-03    rms(broyden)= 0.77556E-03
  rms(prec ) = 0.11081E-02
  weight for this iteration     100.00

 eigenvalues of (default mixing * dielectric matrix)
  average eigenvalue GAMMA=   1.4962
  6.6776  3.1641  2.4590  2.1263  1.4021  1.4021  0.9508  0.9508  0.7551  0.7551
  0.6859  0.6503  0.4554  0.5208  0.5093  0.4749

 Free energy of the ion-electron system (eV)
  ---------------------------------------------------
  alpha Z        PSCENC =        41.16232785
  Ewald energy   TEWEN  =     16358.39811862
  -Hartree energ DENC   =    -33337.67464547
  -exchange      EXHF   =         0.00000000
  -V(xc)+E(xc)   XCENC  =       615.48476473
  PAW double counting   =     17648.83935991   -19047.28520271
  entropy T*S    EENTRO =         0.00935053
  eigenvalues    EBANDS =      -990.17779985
  atomic energy  EATOM  =     18662.21924712
  Solvation  Ediel_sol  =         0.00000000
  ---------------------------------------------------
  free energy    TOTEN  =       -49.02447927 eV

  energy without entropy =      -49.03382980  energy(sigma->0) =      -49.02759611


--------------------------------------------------------------------------------------------------------




--------------------------------------- Iteration      1(  22)  ---------------------------------------


    POTLOK:  cpu time    1.1606: real time    1.1611
    SETDIJ:  cpu time    0.0189: real time    0.0189
    EDDIAG:  cpu time    1.0874: real time    1.0884
  RMM-DIIS:  cpu time    6.7215: real time    6.7252
    ORTHCH:  cpu time    0.0564: real time    0.0564
       DOS:  cpu time    0.0004: real time    0.0004
    CHARGE:  cpu time    0.6458: real time    0.6463
    MIXING:  cpu time    0.0399: real time    0.0399
    --------------------------------------------
      LOOP:  cpu time    9.7309: real time    9.7365

 eigenvalue-minimisations  :   405
 total energy-change (2. order) :-0.2642513E-03  (-0.2109860E-05)
 number of electron     152.9999979 magnetization       1.0000000
 augmentation part       92.4011285 magnetization       0.0756395

 Broyden mixing:
  rms(total) = 0.40901E-03    rms(broyden)= 0.40896E-03
  rms(prec ) = 0.63751E-03
  weight for this iteration     100.00

 eigenvalues of (default mixing * dielectric matrix)
  average eigenvalue GAMMA=   1.5315
  7.0262  3.8629  2.4790  2.0922  1.5317  1.5317  0.9271  0.9093  0.9093  0.7712
  0.7712  0.6861  0.5775  0.4550  0.5258  0.5035  0.4753

 Free energy of the ion-electron system (eV)
  ---------------------------------------------------
  alpha Z        PSCENC =        41.16232785
  Ewald energy   TEWEN  =     16358.39811862
  -Hartree energ DENC   =    -33337.77136826
  -exchange      EXHF   =         0.00000000
  -V(xc)+E(xc)   XCENC  =       615.48430937
  PAW double counting   =     17649.08305824   -19047.53516494
  entropy T*S    EENTRO =         0.00935050
  eigenvalues    EBANDS =      -990.07462201
  atomic energy  EATOM  =     18662.21924712
  Solvation  Ediel_sol  =         0.00000000
  ---------------------------------------------------
  free energy    TOTEN  =       -49.02474352 eV

  energy without entropy =      -49.03409402  energy(sigma->0) =      -49.02786035


--------------------------------------------------------------------------------------------------------




--------------------------------------- Iteration      1(  23)  ---------------------------------------


    POTLOK:  cpu time    1.1592: real time    1.1610
    SETDIJ:  cpu time    0.0185: real time    0.0185
    EDDIAG:  cpu time    1.0881: real time    1.0886
  RMM-DIIS:  cpu time    6.6847: real time    6.6889
    ORTHCH:  cpu time    0.0581: real time    0.0581
       DOS:  cpu time    0.0005: real time    0.0005
    CHARGE:  cpu time    0.6460: real time    0.6467
    MIXING:  cpu time    0.0415: real time    0.0415
    --------------------------------------------
      LOOP:  cpu time    9.6968: real time    9.7040

 eigenvalue-minimisations  :   399
 total energy-change (2. order) :-0.1253077E-03  (-0.7872400E-06)
 number of electron     152.9999979 magnetization       1.0000000
 augmentation part       92.4004286 magnetization       0.0756216

 Broyden mixing:
  rms(total) = 0.25271E-03    rms(broyden)= 0.25270E-03
  rms(prec ) = 0.39547E-03
  weight for this iteration     100.00

 eigenvalues of (default mixing * dielectric matrix)
  average eigenvalue GAMMA=   1.5565
  7.3899  4.2279  2.4736  2.1500  1.8078  1.3007  1.3007  0.9639  0.9639  0.7655
  0.7655  0.6939  0.6939  0.5645  0.4552  0.5133  0.5133  0.4738

 Free energy of the ion-electron system (eV)
  ---------------------------------------------------
  alpha Z        PSCENC =        41.16232785
  Ewald energy   TEWEN  =     16358.39811862
  -Hartree energ DENC   =    -33337.84929545
  -exchange      EXHF   =         0.00000000
  -V(xc)+E(xc)   XCENC  =       615.48480185
  PAW double counting   =     17649.13917576   -19047.59707123
  entropy T*S    EENTRO =         0.00935051
  eigenvalues    EBANDS =      -989.99152385
  atomic energy  EATOM  =     18662.21924712
  Solvation  Ediel_sol  =         0.00000000
  ---------------------------------------------------
  free energy    TOTEN  =       -49.02486883 eV

  energy without entropy =      -49.03421934  energy(sigma->0) =      -49.02798566


--------------------------------------------------------------------------------------------------------




--------------------------------------- Iteration      1(  24)  ---------------------------------------


    POTLOK:  cpu time    1.1612: real time    1.1644
    SETDIJ:  cpu time    0.0191: real time    0.0191
    EDDIAG:  cpu time    1.0901: real time    1.0910
  RMM-DIIS:  cpu time    6.4046: real time    6.4084
    ORTHCH:  cpu time    0.0572: real time    0.0572
       DOS:  cpu time    0.0005: real time    0.0005
    CHARGE:  cpu time    0.6441: real time    0.6446
    MIXING:  cpu time    0.0458: real time    0.0458
    --------------------------------------------
      LOOP:  cpu time    9.4225: real time    9.4309

 eigenvalue-minimisations  :   400
 total energy-change (2. order) :-0.1038350E-03  (-0.7949930E-06)
 number of electron     152.9999979 magnetization       1.0000000
 augmentation part       92.4002620 magnetization       0.0756204

 Broyden mixing:
  rms(total) = 0.19522E-03    rms(broyden)= 0.19521E-03
  rms(prec ) = 0.28593E-03
  weight for this iteration     100.00

 eigenvalues of (default mixing * dielectric matrix)
  average eigenvalue GAMMA=   1.5680
  7.6653  4.5146  2.3775  2.3775  1.9025  1.3926  1.3926  0.9787  0.9787  0.7903
  0.7903  0.7447  0.7447  0.6218  0.5610  0.4551  0.5175  0.5125  0.4741

 Free energy of the ion-electron system (eV)
  ---------------------------------------------------
  alpha Z        PSCENC =        41.16232785
  Ewald energy   TEWEN  =     16358.39811862
  -Hartree energ DENC   =    -33337.87275690
  -exchange      EXHF   =         0.00000000
  -V(xc)+E(xc)   XCENC  =       615.48518942
  PAW double counting   =     17649.06925243   -19047.52729670
  entropy T*S    EENTRO =         0.00935050
  eigenvalues    EBANDS =      -989.96840501
  atomic energy  EATOM  =     18662.21924712
  Solvation  Ediel_sol  =         0.00000000
  ---------------------------------------------------
  free energy    TOTEN  =       -49.02497266 eV

  energy without entropy =      -49.03432316  energy(sigma->0) =      -49.02808950


--------------------------------------------------------------------------------------------------------




--------------------------------------- Iteration      1(  25)  ---------------------------------------


    POTLOK:  cpu time    1.1610: real time    1.1623
    SETDIJ:  cpu time    0.0188: real time    0.0188
    EDDIAG:  cpu time    1.0879: real time    1.0889
  RMM-DIIS:  cpu time    6.5290: real time    6.5325
    ORTHCH:  cpu time    0.0575: real time    0.0575
       DOS:  cpu time    0.0005: real time    0.0005
    CHARGE:  cpu time    0.6462: real time    0.6466
    MIXING:  cpu time    0.0464: real time    0.0464
    --------------------------------------------
      LOOP:  cpu time    9.5472: real time    9.5534

 eigenvalue-minimisations  :   399
 total energy-change (2. order) :-0.6070454E-04  (-0.4680049E-06)
 number of electron     152.9999979 magnetization       1.0000000
 augmentation part       92.4004999 magnetization       0.0756292

 Broyden mixing:
  rms(total) = 0.12979E-03    rms(broyden)= 0.12977E-03
  rms(prec ) = 0.19485E-03
  weight for this iteration     100.00

 eigenvalues of (default mixing * dielectric matrix)
  average eigenvalue GAMMA=   1.6115
  7.8918  4.9763  2.5810  2.5810  1.8129  1.8129  1.2666  1.2666  0.9760  0.9760
  0.7673  0.7673  0.7319  0.6960  0.6169  0.5551  0.4552  0.5130  0.5130  0.4737

 Free energy of the ion-electron system (eV)
  ---------------------------------------------------
  alpha Z        PSCENC =        41.16232785
  Ewald energy   TEWEN  =     16358.39811862
  -Hartree energ DENC   =    -33337.86094951
  -exchange      EXHF   =         0.00000000
  -V(xc)+E(xc)   XCENC  =       615.48488818
  PAW double counting   =     17648.96840656   -19047.42194169
  entropy T*S    EENTRO =         0.00935050
  eigenvalues    EBANDS =      -989.98448099
  atomic energy  EATOM  =     18662.21924712
  Solvation  Ediel_sol  =         0.00000000
  ---------------------------------------------------
  free energy    TOTEN  =       -49.02503337 eV

  energy without entropy =      -49.03438387  energy(sigma->0) =      -49.02815020


--------------------------------------------------------------------------------------------------------




--------------------------------------- Iteration      1(  26)  ---------------------------------------


    POTLOK:  cpu time    1.1608: real time    1.1615
    SETDIJ:  cpu time    0.0187: real time    0.0187
    EDDIAG:  cpu time    1.0895: real time    1.0901
  RMM-DIIS:  cpu time    6.2731: real time    6.2766
    ORTHCH:  cpu time    0.0575: real time    0.0575
       DOS:  cpu time    0.0004: real time    0.0004
    CHARGE:  cpu time    0.6448: real time    0.6453
    MIXING:  cpu time    0.0495: real time    0.0495
    --------------------------------------------
      LOOP:  cpu time    9.2943: real time    9.2996

 eigenvalue-minimisations  :   388
 total energy-change (2. order) :-0.3960331E-04  (-0.3724864E-06)
 number of electron     152.9999979 magnetization       1.0000000
 augmentation part       92.4006362 magnetization       0.0756398

 Broyden mixing:
  rms(total) = 0.60587E-04    rms(broyden)= 0.60581E-04
  rms(prec ) = 0.96950E-04
  weight for this iteration     100.00

 eigenvalues of (default mixing * dielectric matrix)
  average eigenvalue GAMMA=   1.6277
  8.1174  5.3409  3.0017  2.5462  1.8903  1.8903  1.2896  1.2896  0.9915  0.9915
  0.8040  0.8040  0.7468  0.7468  0.6180  0.6180  0.4552  0.4734  0.5105  0.5105
  0.5445

 Free energy of the ion-electron system (eV)
  ---------------------------------------------------
  alpha Z        PSCENC =        41.16232785
  Ewald energy   TEWEN  =     16358.39811862
  -Hartree energ DENC   =    -33337.85649542
  -exchange      EXHF   =         0.00000000
  -V(xc)+E(xc)   XCENC  =       615.48462221
  PAW double counting   =     17648.91557723   -19047.36622930
  entropy T*S    EENTRO =         0.00935050
  eigenvalues    EBANDS =      -989.99159179
  atomic energy  EATOM  =     18662.21924712
  Solvation  Ediel_sol  =         0.00000000
  ---------------------------------------------------
  free energy    TOTEN  =       -49.02507297 eV

  energy without entropy =      -49.03442347  energy(sigma->0) =      -49.02818980


--------------------------------------------------------------------------------------------------------




--------------------------------------- Iteration      1(  27)  ---------------------------------------


    POTLOK:  cpu time    1.1608: real time    1.1611
    SETDIJ:  cpu time    0.0187: real time    0.0186
    EDDIAG:  cpu time    1.0900: real time    1.0908
  RMM-DIIS:  cpu time    4.9451: real time    4.9477
    ORTHCH:  cpu time    0.0573: real time    0.0573
       DOS:  cpu time    0.0004: real time    0.0004
    CHARGE:  cpu time    0.6450: real time    0.6456
    MIXING:  cpu time    0.0527: real time    0.0527
    --------------------------------------------
      LOOP:  cpu time    7.9700: real time    7.9743

 eigenvalue-minimisations  :   289
 total energy-change (2. order) :-0.1360663E-04  (-0.1223900E-06)
 number of electron     152.9999979 magnetization       1.0000000
 augmentation part       92.4006475 magnetization       0.0756378

 Broyden mixing:
  rms(total) = 0.67920E-04    rms(broyden)= 0.67918E-04
  rms(prec ) = 0.91300E-04
  weight for this iteration     100.00

 eigenvalues of (default mixing * dielectric matrix)
  average eigenvalue GAMMA=   1.6374
  8.1867  5.6396  3.2337  2.4573  1.9784  1.9784  1.2902  1.2902  1.2262  1.0136
  1.0136  0.7650  0.7650  0.7825  0.6825  0.6035  0.6035  0.4551  0.5594  0.4738
  0.5121  0.5121

 Free energy of the ion-electron system (eV)
  ---------------------------------------------------
  alpha Z        PSCENC =        41.16232785
  Ewald energy   TEWEN  =     16358.39811862
  -Hartree energ DENC   =    -33337.85738885
  -exchange      EXHF   =         0.00000000
  -V(xc)+E(xc)   XCENC  =       615.48463009
  PAW double counting   =     17648.91007242   -19047.36097693
  entropy T*S    EENTRO =         0.00935051
  eigenvalues    EBANDS =      -989.99046739
  atomic energy  EATOM  =     18662.21924712
  Solvation  Ediel_sol  =         0.00000000
  ---------------------------------------------------
  free energy    TOTEN  =       -49.02508658 eV

  energy without entropy =      -49.03443708  energy(sigma->0) =      -49.02820341


--------------------------------------------------------------------------------------------------------




--------------------------------------- Iteration      1(  28)  ---------------------------------------


    POTLOK:  cpu time    1.1614: real time    1.1648
    SETDIJ:  cpu time    0.0188: real time    0.0188
    EDDIAG:  cpu time    1.0901: real time    1.0907
  RMM-DIIS:  cpu time    4.6414: real time    4.6441
    ORTHCH:  cpu time    0.0578: real time    0.0578
       DOS:  cpu time    0.0004: real time    0.0004
    CHARGE:  cpu time    0.6448: real time    0.6448
    MIXING:  cpu time    0.0569: real time    0.0571
[...]
     66      -4.9327      1.00000
     67      -4.8996      1.00000
     68      -4.8800      1.00000
     69      -4.8773      1.00000
     70      -4.8331      1.00000
     71      -4.8229      1.00000
     72      -4.7895      1.00000
     73      -4.7492      1.00000
     74      -4.5230      1.00000
     75      -4.2164      1.00000
     76      -4.1545      1.00000
     77      -3.5282      1.00000
     78      -3.0597     -0.00000
     79      -2.9083     -0.00000
     80      -2.4949     -0.00000
     81      -2.3164     -0.00000
     82      -1.9792     -0.00000
     83      -1.9194     -0.00000
     84      -1.7301     -0.00000
     85      -1.3546     -0.00000
     86      -1.0470     -0.00000
     87      -0.9511     -0.00000
     88      -0.6478      0.00000
     89      -0.3873      0.00000
     90      -0.3187      0.00000
     91      -0.1753      0.00000
     92       0.1181      0.00000

 spin component 2

 k-point     1 :       0.0000    0.0000    0.0000
  band No.  band energies     occupation 
      1     -28.3722      1.00000
      2     -13.7772      1.00000
      3     -11.2836      1.00000
      4     -11.0526      1.00000
      5     -10.9189      1.00000
      6     -10.0557      1.00000
      7      -8.5706      1.00000
      8      -8.1608      1.00000
      9      -7.6554      1.00000
     10      -7.4592      1.00000
     11      -7.3879      1.00000
     12      -7.3430      1.00000
     13      -7.2213      1.00000
     14      -7.1395      1.00000
     15      -7.0128      1.00000
     16      -6.9160      1.00000
     17      -6.8078      1.00000
     18      -6.7745      1.00000
     19      -6.7200      1.00000
     20      -6.6608      1.00000
     21      -6.5946      1.00000
     22      -6.5651      1.00000
     23      -6.5146      1.00000
     24      -6.4437      1.00000
     25      -6.4054      1.00000
     26      -6.3369      1.00000
     27      -6.3168      1.00000
     28      -6.2844      1.00000
     29      -6.2429      1.00000
     30      -6.1751      1.00000
     31      -6.1306      1.00000
     32      -6.1257      1.00000
     33      -6.0279      1.00000
     34      -5.9975      1.00000
     35      -5.9189      1.00000
     36      -5.8165      1.00000
     37      -5.7833      1.00000
     38      -5.6745      1.00000
     39      -5.6606      1.00000
     40      -5.6134      1.00000
     41      -5.5678      1.00000
     42      -5.5088      1.00000
     43      -5.4961      1.00000
     44      -5.4684      1.00000
     45      -5.4504      1.00000
     46      -5.3852      1.00000
     47      -5.3691      1.00000
     48      -5.3389      1.00000
     49      -5.3284      1.00000
     50      -5.2880      1.00000
     51      -5.2791      1.00000
     52      -5.2574      1.00000
     53      -5.2491      1.00000
     54      -5.2112      1.00000
     55      -5.2080      1.00000
     56      -5.1651      1.00000
     57      -5.1526      1.00000
     58      -5.1395      1.00000
     59      -5.1002      1.00000
     60      -5.0575      1.00000
     61      -5.0382      1.00000
     62      -4.9928      1.00000
     63      -4.9798      1.00000
     64      -4.9595      1.00000
     65      -4.9230      1.00000
     66      -4.9099      1.00000
     67      -4.8789      1.00000
     68      -4.8547      1.00000
     69      -4.8291      1.00000
     70      -4.8033      1.00000
     71      -4.7890      1.00000
     72      -4.7650      1.00000
     73      -4.7217      1.00000
     74      -4.4818      1.00000
     75      -4.1617      1.03545
     76      -4.1111      0.96455
     77      -3.3178     -0.00000
     78      -3.0092     -0.00000
     79      -2.8557     -0.00000
     80      -2.4266     -0.00000
     81      -2.2135     -0.00000
     82      -1.9499     -0.00000
     83      -1.8399     -0.00000
     84      -1.6569     -0.00000
     85      -1.2469      0.00000
     86      -0.9709      0.00000
     87      -0.8373      0.00000
     88      -0.5611      0.00000
     89      -0.3068      0.00000
     90      -0.2320      0.00000
     91      -0.1228      0.00000
     92       0.1662      0.00000


--------------------------------------------------------------------------------------------------------


 soft charge-density along one line, spin component           1
         0         1         2         3         4         5         6         7         8         9
 total charge-density along one line
 
 soft charge-density along one line, spin component           2
         0         1         2         3         4         5         6         7         8         9
 total charge-density along one line
 
 pseudopotential strength for first ion, spin component:           1
-10.504  -0.000  -0.011   0.000  -0.009   1.009   0.000   0.011
 -0.000 -10.491  -0.006   0.003   0.006   0.000   0.999   0.005
 -0.011  -0.006 -10.474   0.002  -0.009   0.011   0.005   0.986
  0.000   0.003   0.002 -10.480  -0.005  -0.000  -0.004  -0.001
 -0.009   0.006  -0.009  -0.005 -10.494   0.007  -0.005   0.008
  1.009   0.000   0.011  -0.000   0.007   6.298  -0.000  -0.009
  0.000   0.999   0.005  -0.004  -0.005  -0.000   6.303  -0.003
  0.011   0.005   0.986  -0.001   0.008  -0.009  -0.003   6.314
 -0.000  -0.004  -0.001   0.989   0.004   0.000   0.005   0.001
  0.007  -0.005   0.008   0.004   1.002  -0.005   0.003  -0.007
 -0.006   0.001  -0.004   0.000  -0.004   0.005  -0.000  -0.000
 -0.011   0.002  -0.008   0.001  -0.008   0.009   0.000  -0.001
 -0.013   0.002   0.004  -0.000   0.008   0.009  -0.001  -0.003
 -0.000  -0.006   0.002  -0.012  -0.000   0.000   0.004  -0.001
 -0.005  -0.000   0.008   0.002  -0.013   0.003   0.000  -0.006
 -0.014   0.002   0.004  -0.000   0.009   0.009  -0.001  -0.004
 -0.000  -0.006   0.002  -0.013  -0.000   0.001   0.004  -0.001
 -0.005  -0.000   0.009   0.002  -0.014   0.002   0.001  -0.006
 pseudopotential strength for first ion, spin component:           2
-10.467  -0.003  -0.003  -0.008   0.006   0.980   0.002   0.003
 -0.003 -10.479  -0.007   0.003   0.003   0.002   0.989   0.005
 -0.003  -0.007 -10.461  -0.000  -0.005   0.003   0.005   0.975
 -0.008   0.003  -0.000 -10.466  -0.009   0.006  -0.003   0.000
  0.006   0.003  -0.005  -0.009 -10.478  -0.004  -0.003   0.004
  0.980   0.002   0.003   0.006  -0.004   6.317  -0.001  -0.002
  0.002   0.989   0.005  -0.003  -0.003  -0.001   6.309  -0.004
  0.003   0.005   0.975   0.000   0.004  -0.002  -0.004   6.319
  0.006  -0.003   0.000   0.978   0.006  -0.004   0.003  -0.000
 -0.004  -0.003   0.004   0.006   0.988   0.003   0.002  -0.003
 -0.002   0.002  -0.002   0.001  -0.002   0.001   0.000  -0.002
 -0.004   0.003  -0.003   0.001  -0.004   0.002   0.000  -0.003
 -0.014   0.002   0.005   0.000   0.007   0.012  -0.002  -0.004
  0.000  -0.007   0.003  -0.014   0.000  -0.000   0.006  -0.002
 -0.008   0.000   0.009   0.003  -0.014   0.006  -0.000  -0.007
 -0.016   0.003   0.005   0.001   0.008   0.013  -0.002  -0.005
  0.001  -0.008   0.004  -0.015   0.001  -0.000   0.006  -0.003
 -0.009   0.001   0.010   0.004  -0.016   0.007  -0.000  -0.009
 total augmentation occupancy for first ion, spin component:           1
  1.936   0.003  -0.008   0.001  -0.003  -0.015  -0.002   0.005  -0.000   0.001  -0.006   0.011   0.035   0.001   0.030  -0.020
  0.003   1.927  -0.005   0.007   0.000  -0.002  -0.017   0.005  -0.000  -0.001  -0.002  -0.001   0.000   0.042  -0.002   0.001
 -0.008  -0.005   1.946   0.002  -0.005   0.005   0.005  -0.028  -0.003   0.003  -0.009   0.009  -0.008  -0.001  -0.019   0.006
  0.001   0.007   0.002   1.937  -0.006  -0.000  -0.000  -0.003  -0.021   0.004   0.005   0.001   0.006   0.062   0.001  -0.000
 -0.003   0.000  -0.005  -0.006   1.937   0.001  -0.001   0.003   0.004  -0.014  -0.004   0.007  -0.013   0.009   0.038   0.011
 -0.015  -0.002   0.005  -0.000   0.001   0.013   0.000   0.001   0.001   0.001  -0.019  -0.000   0.022   0.002   0.008  -0.001
 -0.002  -0.017   0.005  -0.000  -0.001   0.000   0.008   0.000   0.001  -0.000   0.009  -0.001  -0.002   0.013   0.003   0.000
  0.005   0.005  -0.028  -0.003   0.003   0.001   0.000   0.007  -0.001   0.001  -0.034   0.005  -0.005  -0.002  -0.007   0.001
 -0.000  -0.000  -0.003  -0.021   0.004   0.001   0.001  -0.001   0.009  -0.001  -0.003   0.001   0.000   0.020  -0.002  -0.000
  0.001  -0.001   0.003   0.004  -0.014   0.001  -0.000   0.001  -0.001   0.012  -0.016   0.000  -0.018  -0.002   0.021   0.001
 -0.006  -0.002  -0.009   0.005  -0.004  -0.019   0.009  -0.034  -0.003  -0.016   1.629  -0.115   0.118  -0.008   0.189  -0.016
  0.011  -0.001   0.009   0.001   0.007  -0.000  -0.001   0.005   0.001   0.000  -0.115   0.013  -0.017   0.002  -0.026   0.002
  0.035   0.000  -0.008   0.006  -0.013   0.022  -0.002  -0.005   0.000  -0.018   0.118  -0.017   0.180   0.003  -0.032  -0.011
  0.001   0.042  -0.001   0.062   0.009   0.002   0.013  -0.002   0.020  -0.002  -0.008   0.002   0.003   0.087  -0.005  -0.000
  0.030  -0.002  -0.019   0.001   0.038   0.008   0.003  -0.007  -0.002   0.021   0.189  -0.026  -0.032  -0.005   0.133   0.001
 -0.020   0.001   0.006  -0.000   0.011  -0.001   0.000   0.001  -0.000   0.001  -0.016   0.002  -0.011  -0.000   0.001   0.001
 -0.000  -0.013   0.001  -0.022  -0.000  -0.000  -0.001   0.000  -0.001   0.000   0.002  -0.000  -0.001  -0.006   0.000   0.000
 -0.012  -0.000   0.011   0.001  -0.020  -0.000  -0.000   0.001   0.000  -0.001  -0.026   0.003   0.001   0.000  -0.010   0.000
 total augmentation occupancy for first ion, spin component:           2
  0.014  -0.002   0.003  -0.005   0.008  -0.002   0.000  -0.002   0.001  -0.002   0.029   0.005  -0.009   0.005  -0.016  -0.001
 -0.002   0.000  -0.001   0.001  -0.001   0.000   0.001   0.000   0.000   0.001  -0.003  -0.001   0.002  -0.002   0.002   0.000
  0.003  -0.001   0.002  -0.002   0.001  -0.002   0.000   0.001   0.000  -0.001   0.006   0.001  -0.001   0.003  -0.001   0.000
 -0.005   0.001  -0.002   0.003  -0.003   0.001   0.000   0.000   0.002   0.000  -0.009  -0.002   0.002  -0.005   0.006   0.000
  0.008  -0.001   0.001  -0.003   0.003  -0.002   0.000  -0.001   0.000   0.001   0.016   0.003  -0.003   0.003  -0.011  -0.000
 -0.002   0.000  -0.002   0.001  -0.002   0.001  -0.000   0.000  -0.000   0.000  -0.007  -0.001   0.001  -0.001   0.004   0.000
  0.000   0.001   0.000   0.000   0.000  -0.000  -0.000  -0.000  -0.000  -0.000   0.001   0.000   0.000   0.000  -0.001  -0.000
 -0.002   0.000   0.001   0.000  -0.001   0.000  -0.000   0.000  -0.000   0.000  -0.002  -0.000   0.001  -0.000   0.001   0.000
  0.001   0.000   0.000   0.002   0.000  -0.000  -0.000  -0.000  -0.000  -0.000   0.002   0.000  -0.001   0.000  -0.001  -0.000
 -0.002   0.001  -0.001   0.000   0.001   0.000  -0.000   0.000  -0.000   0.000  -0.003  -0.000   0.001  -0.001   0.002  -0.000
  0.029  -0.003   0.006  -0.009   0.016  -0.007   0.001  -0.002   0.002  -0.003   0.071   0.004  -0.014   0.013  -0.037  -0.000
  0.005  -0.001   0.001  -0.002   0.003  -0.001   0.000  -0.000   0.000  -0.000   0.004   0.000  -0.001   0.001  -0.002  -0.000
 -0.009   0.002  -0.001   0.002  -0.003   0.001   0.000   0.001  -0.001   0.001  -0.014  -0.001   0.003  -0.002   0.005   0.000
  0.005  -0.002   0.003  -0.005   0.003  -0.001   0.000  -0.000   0.000  -0.001   0.013   0.001  -0.002   0.002  -0.005  -0.000
 -0.016   0.002  -0.001   0.006  -0.011   0.004  -0.001   0.001  -0.001   0.002  -0.037  -0.002   0.005  -0.005   0.014   0.000
 -0.001   0.000   0.000   0.000  -0.000   0.000  -0.000   0.000  -0.000  -0.000  -0.000  -0.000   0.000  -0.000   0.000   0.000
  0.000  -0.000   0.000  -0.001   0.000   0.000  -0.000  -0.000   0.000  -0.000  -0.000   0.000  -0.000   0.000  -0.000  -0.000
 -0.001   0.000   0.000   0.001  -0.001   0.000   0.000   0.000  -0.000   0.000  -0.000  -0.000   0.000  -0.000   0.000   0.000


------------------------ aborting loop because EDIFF is reached ----------------------------------------


    CHARGE:  cpu time    0.6438: real time    0.6443
    FORLOC:  cpu time    0.0654: real time    0.0654
    FORNL :  cpu time    1.5310: real time    1.5316
    STRESS:  cpu time    6.0306: real time    6.0338
    FORCOR:  cpu time    1.1684: real time    1.1690
    FORHAR:  cpu time    0.1860: real time    0.1860
    MIXING:  cpu time    0.1103: real time    0.1103
    OFIELD:  cpu time    0.0001: real time    0.0001

  FORCE on cell =-STRESS in cart. coord.  units (eV):
  Direction    XX          YY          ZZ          XY          YZ          ZX
  --------------------------------------------------------------------------------------
  Alpha Z    41.16233    41.16233    41.16233
  Ewald   10008.00979  7717.92412 -1367.55182  -829.49521   318.73923   454.45673
  Hartree 15148.45587 13179.15445  5010.25652  -752.63295   277.01142   359.70962
  E(xc)    -876.32958  -877.69815  -879.41532    -0.04176     0.06499     0.39091
  Local  -26552.91708-22328.36213 -5078.67088  1583.87818  -594.10989  -806.18154
  n-local  -329.17715  -322.49890  -327.87415    -1.76247    -0.14360    -0.54792
  augment  1223.07186  1226.37139  1232.25230     0.38623    -0.56220    -1.41273
  Kinetic  1337.13982  1362.87599  1369.14258    -0.96550    -1.12530    -6.27899
  Fock        0.00000     0.00000     0.00000     0.00000     0.00000     0.00000
  -------------------------------------------------------------------------------------
  Total      -0.58414    -1.07089    -0.69844    -0.63348    -0.12535     0.13607
  in kB      -0.27730    -0.50837    -0.33156    -0.30072    -0.05950     0.06460
  external pressure =       -0.37 kB  Pullay stress =        0.00 kB


 VOLUME and BASIS-vectors are now :
 -----------------------------------------------------------------------------
  energy-cutoff  :      600.00
  volume of cell :     3375.00
      direct lattice vectors                 reciprocal lattice vectors
    15.000000000  0.000000000  0.000000000     0.066666667  0.000000000  0.000000000
     0.000000000 15.000000000  0.000000000     0.000000000  0.066666667  0.000000000
     0.000000000  0.000000000 15.000000000     0.000000000  0.000000000  0.066666667

  length of vectors
    15.000000000 15.000000000 15.000000000     0.066666667  0.066666667  0.066666667


 FORCES acting on ions
    electron-ion (+dipol)            ewald-force                    non-local-force                 convergence-correction
 -----------------------------------------------------------------------------------------------
   0.110E+04 0.667E+03 -.870E+02   -.110E+04 -.664E+03 0.868E+02   -.519E+01 -.305E+01 0.657E-02   -.304E-04 -.197E-04 0.540E-05
   0.455E+03 -.300E+03 0.939E+03   -.453E+03 0.298E+03 -.939E+03   -.986E+00 0.240E+01 -.209E-01   -.111E-04 0.178E-04 -.520E-04
   0.320E+03 0.124E+04 -.144E+03   -.318E+03 -.123E+04 0.142E+03   -.194E+01 -.935E+01 0.188E+01   0.107E-04 -.317E-04 0.120E-04
   -.825E+03 -.127E+03 0.926E+03   0.823E+03 0.127E+03 -.922E+03   0.219E+01 0.180E+00 -.432E+01   0.397E-04 0.142E-04 0.919E-05
   -.829E+03 0.101E+04 0.161E+03   0.824E+03 -.100E+04 -.159E+03   0.467E+01 -.673E+01 -.158E+01   0.163E-04 0.212E-05 0.173E-04
   -.103E+03 0.534E+03 -.953E+03   0.102E+03 -.531E+03 0.952E+03   0.884E+00 -.288E+01 0.916E+00   0.311E-04 -.946E-05 0.464E-04
   0.176E+03 0.634E+03 0.119E+04   -.175E+03 -.630E+03 -.118E+04   -.922E+00 -.414E+01 -.588E+01   0.720E-05 -.229E-05 -.168E-04
   0.126E+04 -.360E+03 0.169E+03   -.125E+04 0.357E+03 -.166E+03   -.934E+01 0.251E+01 -.272E+01   -.341E-04 0.671E-05 -.793E-05
   0.565E+03 -.209E+03 -.122E+04   -.561E+03 0.208E+03 0.121E+04   -.367E+01 0.509E+00 0.655E+01   0.134E-04 0.395E-05 0.289E-04
   0.418E+03 -.127E+04 -.178E+03   -.416E+03 0.126E+04 0.176E+03   -.196E+01 0.740E+01 0.174E+01   0.214E-05 0.461E-04 -.336E-05
   -.468E+03 -.106E+04 0.715E+03   0.464E+03 0.105E+04 -.708E+03   0.357E+01 0.666E+01 -.666E+01   0.473E-05 0.115E-04 0.469E-05
   -.903E+03 0.398E+02 -.393E+03   0.901E+03 -.402E+02 0.390E+03   0.144E+01 0.156E+00 0.288E+01   -.292E-04 0.579E-05 -.883E-05
   -.557E+03 -.762E+03 -.824E+03   0.555E+03 0.758E+03 0.821E+03   0.218E+01 0.397E+01 0.315E+01   0.390E-04 -.127E-04 0.172E-04
   -.127E+03 -.909E+01 -.131E+03   0.107E+03 0.766E+01 0.128E+03   0.198E+02 0.132E+01 0.284E+01   -.237E-04 -.197E-05 -.101E-04
   -.434E+03 -.263E+02 -.158E+03   0.493E+03 0.300E+02 0.168E+03   -.586E+02 -.362E+01 -.104E+02   0.190E-04 0.791E-06 -.153E-05
 -----------------------------------------------------------------------------------------------
   0.478E+02 0.467E+01 0.116E+02   0.398E-12 0.515E-12 -.142E-12   -.478E+02 -.467E+01 -.116E+02   0.548E-04 0.311E-04 0.405E-04
 
 
 POSITION                                       TOTAL-FORCE (eV/Angst)
 -----------------------------------------------------------------------------------
      4.39981      6.32880      8.39949         0.053334     -0.104588     -0.159726
      5.57637      8.21452      7.32002         0.374747     -0.085576     -0.010898
      5.85585      4.27986      8.34625         0.143560      0.284491      0.207381
      7.96198      7.61670      7.21230        -0.039316     -0.194594     -0.151761
      8.25283      5.20179      8.00274         0.031934      0.092327     -0.182222
      6.71343      6.47638      9.22560         0.069051      0.145645     -0.239605
      6.28700      5.94957      6.71801        -0.138728      0.092523      0.278806
      3.41911      8.62882      8.15732        -0.210228     -0.014735      0.180533
      5.08286      8.22250      9.83832         0.148578     -0.156617     -0.144006
      5.29351     10.23530      8.55249         0.113563      0.183017     -0.047299
      7.30120      9.97792      7.12334        -0.082454     -0.003277      0.105295
      9.30804      7.26882      9.09583        -0.395598     -0.230800      0.083983
      7.37934      8.85820      9.22265        -0.360324      0.022882     -0.041125
     10.93350      7.45570      9.85623         0.346539     -0.104135      0.074066
     12.07050      7.52918     10.05960        -0.054658      0.073436      0.046577
 -----------------------------------------------------------------------------------
    total drift:                                0.001544     -0.000981      0.000586


--------------------------------------------------------------------------------------------------------



  FREE ENERGIE OF THE ION-ELECTRON SYSTEM (eV)
  ---------------------------------------------------
  free  energy   TOTEN  =       -49.02510142 eV

  energy  without entropy=      -49.03445192  energy(sigma->0) =      -49.02821826
 


--------------------------------------------------------------------------------------------------------


    POTLOK:  cpu time    1.1828: real time    1.1831


--------------------------------------------------------------------------------------------------------


     LOOP+:  cpu time  347.7265: real time  347.9988
    4ORBIT:  cpu time    0.0000: real time    0.0000

 total amount of memory used by VASP MPI-rank0   158680. kBytes
=======================================================================

   base      :      30000. kBytes
   nonl-proj :      12601. kBytes
   fftplans  :      27994. kBytes
   grid      :      74150. kBytes
   one-center:         93. kBytes
   wavefun   :      13842. kBytes
 
  
  
 General timing and accounting informations for this job:
 ========================================================
  
                  Total CPU time used (sec):      351.714
                            User time (sec):      339.228
                          System time (sec):       12.486
                         Elapsed time (sec):      352.024
  
                   Maximum memory used (kb):      280908.
                   Average memory used (kb):           0.
  
                          Minor page faults:       281338
                          Major page faults:            0
                 Voluntary context switches:          762
