 vasp.5.4.4.18Apr17-6-g9f103f2a35 (build May 08 2019 13:49:07) complex          
  
 executed on             LinuxIFC date 2019.11.13  13:14:21
 running on   24 total cores
 distrk:  each k-point on   24 cores,    1 groups
 distr:  one band on NCORES_PER_BAND=   6 cores,    4 groups


--------------------------------------------------------------------------------------------------------


 INCAR:
 POTCAR:    PAW_PBE Cu 22Jun2005                  
 POTCAR:    PAW_PBE C 08Apr2002                   
 POTCAR:    PAW_PBE O 08Apr2002                   
 POTCAR:    PAW_PBE Cu 22Jun2005                  
   VRHFIN =Cu: d10 p1                                                           
   LEXCH  = PE                                                                  
   EATOM  =  1390.9808 eV,  102.2342 Ry                                         
                                                                                
   TITEL  = PAW_PBE Cu 22Jun2005                                                
   LULTRA =        F    use ultrasoft PP ?                                      
   IUNSCR =        1    unscreen: 0-lin 1-nonlin 2-no                           
   RPACOR =    2.000    partial core radius                                     
   POMASS =   63.546; ZVAL   =   11.000    mass and valenz                      
   RCORE  =    2.300    outmost cutoff radius                                   
   RWIGS  =    2.200; RWIGS  =    1.164    wigner-seitz radius (au A)           
   ENMAX  =  295.446; ENMIN  =  221.585 eV                                      
   ICORE  =        3    local potential                                         
   LCOR   =        T    correct aug charges                                     
   LPAW   =        T    paw PP                                                  
   EAUG   =  586.980                                                            
   DEXC   =    0.000                                                            
   RMAX   =    2.344    core radius for proj-oper                               
   RAUG   =    1.300    factor for augmentation sphere                          
   RDEP   =    2.302    radius for radial grids                                 
   RDEPT  =    1.771    core radius for aug-charge                              
                                                                                
   Atomic configuration                                                         
    9 entries                                                                   
     n  l   j            E        occ.                                          
     1  0  0.50     -8850.2468   2.0000                                         
     2  0  0.50     -1062.3498   2.0000                                         
     2  1  1.50      -916.8226   6.0000                                         
     3  0  0.50      -114.6929   2.0000                                         
     3  1  1.50       -72.1325   6.0000                                         
     3  2  2.50        -5.0394  10.0000                                         
     4  0  0.50        -4.6097   1.0000                                         
     4  1  0.50        -4.0817   0.0000                                         
     4  3  2.50        -1.3606   0.0000                                         
   Description                                                                  
     l       E           TYP  RCUT    TYP  RCUT                                 
     2     -5.0393973     23  2.200                                             
     2     10.8846608     23  2.200                                             
     0     -4.6097109     23  2.200                                             
     0      8.2520465     23  2.200                                             
     1     -2.7211652     23  2.200                                             
     1     21.7055443     23  2.200                                             
     3      2.7211652     23  2.300                                             
  local pseudopotential read in
  partial core-charges read in
  partial kinetic energy density read in
  atomic valenz-charges read in
  non local Contribution for L=           2  read in
    real space projection operators read in
  non local Contribution for L=           2  read in
    real space projection operators read in
  non local Contribution for L=           0  read in
    real space projection operators read in
  non local Contribution for L=           0  read in
    real space projection operators read in
  non local Contribution for L=           1  read in
    real space projection operators read in
  non local Contribution for L=           1  read in
    real space projection operators read in
    PAW grid and wavefunctions read in
 
   number of l-projection  operators is LMAX  =           6
   number of lm-projection operators is LMMAX =          18
 
 POTCAR:    PAW_PBE C 08Apr2002                   
   VRHFIN =C: s2p2                                                              
   LEXCH  = PE                                                                  
   EATOM  =   147.1560 eV,   10.8157 Ry                                         
                                                                                
   TITEL  = PAW_PBE C 08Apr2002                                                 
   LULTRA =        F    use ultrasoft PP ?                                      
   IUNSCR =        1    unscreen: 0-lin 1-nonlin 2-no                           
   RPACOR =    1.200    partial core radius                                     
   POMASS =   12.011; ZVAL   =    4.000    mass and valenz                      
   RCORE  =    1.500    outmost cutoff radius                                   
   RWIGS  =    1.630; RWIGS  =    0.863    wigner-seitz radius (au A)           
   ENMAX  =  400.000; ENMIN  =  300.000 eV                                      
   ICORE  =        2    local potential                                         
   LCOR   =        T    correct aug charges                                     
   LPAW   =        T    paw PP                                                  
   EAUG   =  644.873                                                            
   DEXC   =    0.000                                                            
   RMAX   =    1.529    core radius for proj-oper                               
   RAUG   =    1.300    factor for augmentation sphere                          
   RDEP   =    1.501    radius for radial grids                                 
   RDEPT  =    1.300    core radius for aug-charge                              
                                                                                
   Atomic configuration                                                         
    4 entries                                                                   
     n  l   j            E        occ.                                          
     1  0  0.50      -273.3789   2.0000                                         
     2  0  0.50       -13.7508   2.0000                                         
     2  1  0.50        -5.2854   2.0000                                         
     3  2  1.50        -5.4423   0.0000                                         
   Description                                                                  
     l       E           TYP  RCUT    TYP  RCUT                                 
     0    -13.7508458     23  1.200                                             
     0     -8.2022199     23  1.200                                             
     1     -5.2854383     23  1.500                                             
     1     34.0145650     23  1.500                                             
     2     -5.4423304      7  1.500                                             
  local pseudopotential read in
  partial core-charges read in
  partial kinetic energy density read in
  atomic valenz-charges read in
  non local Contribution for L=           0  read in
    real space projection operators read in
  non local Contribution for L=           0  read in
    real space projection operators read in
  non local Contribution for L=           1  read in
    real space projection operators read in
  non local Contribution for L=           1  read in
    real space projection operators read in
    PAW grid and wavefunctions read in
 
   number of l-projection  operators is LMAX  =           4
   number of lm-projection operators is LMMAX =           8
 
 POTCAR:    PAW_PBE O 08Apr2002                   
   VRHFIN =O: s2p4                                                              
   LEXCH  = PE                                                                  
   EATOM  =   432.3788 eV,   31.7789 Ry                                         
                                                                                
   TITEL  = PAW_PBE O 08Apr2002                                                 
   LULTRA =        F    use ultrasoft PP ?                                      
   IUNSCR =        1    unscreen: 0-lin 1-nonlin 2-no                           
   RPACOR =    1.200    partial core radius                                     
   POMASS =   16.000; ZVAL   =    6.000    mass and valenz                      
   RCORE  =    1.520    outmost cutoff radius                                   
   RWIGS  =    1.550; RWIGS  =    0.820    wigner-seitz radius (au A)           
   ENMAX  =  400.000; ENMIN  =  300.000 eV                                      
   ICORE  =        2    local potential                                         
   LCOR   =        T    correct aug charges                                     
   LPAW   =        T    paw PP                                                  
   EAUG   =  605.392                                                            
   DEXC   =    0.000                                                            
   RMAX   =    1.553    core radius for proj-oper                               
   RAUG   =    1.300    factor for augmentation sphere                          
   RDEP   =    1.550    radius for radial grids                                 
   RDEPT  =    1.329    core radius for aug-charge                              
                                                                                
   Atomic configuration                                                         
    4 entries                                                                   
     n  l   j            E        occ.                                          
     1  0  0.50      -514.6923   2.0000                                         
     2  0  0.50       -23.9615   2.0000                                         
     2  1  0.50        -9.0305   4.0000                                         
     3  2  1.50        -9.5241   0.0000                                         
   Description                                                                  
     l       E           TYP  RCUT    TYP  RCUT                                 
     0    -23.9615318     23  1.200                                             
     0     -9.5240782     23  1.200                                             
     1     -9.0304911     23  1.520                                             
     1      8.1634956     23  1.520                                             
     2     -9.5240782      7  1.500                                             
  local pseudopotential read in
  partial core-charges read in
  partial kinetic energy density read in
  kinetic energy density of atom read in
  atomic valenz-charges read in
  non local Contribution for L=           0  read in
    real space projection operators read in
  non local Contribution for L=           0  read in
    real space projection operators read in
  non local Contribution for L=           1  read in
    real space projection operators read in
  non local Contribution for L=           1  read in
    real space projection operators read in
    PAW grid and wavefunctions read in
 
   number of l-projection  operators is LMAX  =           4
   number of lm-projection operators is LMMAX =           8
 
  PAW_PBE Cu 22Jun2005                  :
 energy of atom  1       EATOM=-1390.9808
 kinetic energy error for atom=    0.0033 (will be added to EATOM!!)
  PAW_PBE C 08Apr2002                   :
 energy of atom  2       EATOM= -147.1560
 kinetic energy error for atom=    0.0057 (will be added to EATOM!!)
  PAW_PBE O 08Apr2002                   :
 energy of atom  3       EATOM= -432.3788
 kinetic energy error for atom=    0.0168 (will be added to EATOM!!)
 
 
 POSCAR: Cu13 C1 O1                              
  positions in cartesian coordinates
  No initial velocities read in
 exchange correlation table for  LEXCH =        8
   RHO(1)=    0.500       N(1)  =     2000
   RHO(2)=  100.500       N(2)  =     4000
 


--------------------------------------------------------------------------------------------------------


 ion  position               nearest neighbor table
   1  0.294  0.411  0.570-   9 2.36   6 2.39   3 2.49   2 2.55   8 2.58   7 2.70
   2  0.373  0.542  0.495-  10 2.35   4 2.42   7 2.44  11 2.48   9 2.48   8 2.51   1 2.55  13 2.57
                             6 2.63
   3  0.402  0.285  0.555-   7 2.38   6 2.46   1 2.49   5 2.58
   4  0.531  0.513  0.475-  12 2.35   2 2.42   7 2.44  11 2.46  13 2.52   5 2.53   6 2.69
   5  0.556  0.356  0.529-   6 2.36   7 2.47   4 2.53  12 2.57   3 2.58
   6  0.447  0.433  0.611-   5 2.36   1 2.39   9 2.41   3 2.46  13 2.54   7 2.60   2 2.63   4 2.69

   7  0.422  0.396  0.444-   3 2.38   2 2.44   4 2.44   5 2.47   6 2.60   1 2.70
   8  0.220  0.565  0.557-   9 2.30   2 2.51  10 2.54   1 2.58
   9  0.334  0.537  0.656-   8 2.30   1 2.36   6 2.41  10 2.45   2 2.48  13 2.54
  10  0.346  0.677  0.572-   2 2.35   9 2.45  11 2.46  13 2.47   8 2.54
  11  0.478  0.668  0.474-  13 2.33   4 2.46  10 2.46   2 2.48
  12  0.633  0.496  0.592-  14 1.80   4 2.35   5 2.57  13 2.71
  13  0.485  0.598  0.612-  11 2.33  10 2.47   4 2.52   9 2.54   6 2.54   2 2.57  12 2.71
  14  0.733  0.514  0.656-  15 1.17  12 1.80
  15  0.804  0.510  0.688-  14 1.17
 

IMPORTANT INFORMATION: All symmetrisations will be switched off!
NOSYMM: (Re-)initialisation of all symmetry stuff for point group C_1.

 
 

Automatic generation of k-mesh.
 generate k-points for:    1    1    1
Space group operators:
 irot       det(A)        alpha          n_x          n_y          n_z        tau_x        tau_y        tau_z
    1     1.000000     0.000000     1.000000     0.000000     0.000000     0.000000     0.000000     0.000000
 
 Subroutine IBZKPT returns following result:
 ===========================================
 
 Found      1 irreducible k-points:
 
 Following reciprocal coordinates:
            Coordinates               Weight
  0.000000  0.000000  0.000000      1.000000
 
 Following cartesian coordinates:
            Coordinates               Weight
  0.000000  0.000000  0.000000      1.000000
 


--------------------------------------------------------------------------------------------------------




 Dimension of arrays:
   k-points           NKPTS =      1   k-points in BZ     NKDIM =      1   number of bands    NBANDS=     92
   number of dos      NEDOS =    301   number of ions     NIONS =     15
   non local maximal  LDIM  =      6   non local SUM 2l+1 LMDIM =     18
   total plane-waves  NPLWV = ******
   max r-space proj   IRMAX =      1   max aug-charges    IRDMAX=  15028
   dimension x,y,z NGX =   120 NGY =  120 NGZ =  120
   dimension x,y,z NGXF=   240 NGYF=  240 NGZF=  240
   support grid    NGXF=   240 NGYF=  240 NGZF=  240
   ions per type =              13   1   1
   NGX,Y,Z   is equivalent  to a cutoff of  13.30, 13.30, 13.30 a.u.
   NGXF,Y,Z  is equivalent  to a cutoff of  26.60, 26.60, 26.60 a.u.

 SYSTEM =  CuCO                                    
 POSCAR =  Cu13 C1 O1                              

 Startparameter for this run:
   NWRITE =      2    write-flag & timer
   PREC   = accura    normal or accurate (medium, high low for compatibility)
   ISTART =      0    job   : 0-new  1-cont  2-samecut
   ICHARG =      2    charge: 1-file 2-atom 10-const
   ISPIN  =      2    spin polarized calculation?
   LNONCOLLINEAR =      F non collinear calculations
   LSORBIT =      F    spin-orbit coupling
   INIWAV =      1    electr: 0-lowe 1-rand  2-diag
   LASPH  =      F    aspherical Exc in radial PAW
   METAGGA=      F    non-selfconsistent MetaGGA calc.

 Electronic Relaxation 1
   ENCUT  =  600.0 eV  44.10 Ry    6.64 a.u.  29.96 29.96 29.96*2*pi/ulx,y,z
   ENINI  =  600.0     initial cutoff
   ENAUG  =  644.9 eV  augmentation charge cutoff
   NELM   =    300;   NELMIN=  3; NELMDL= -5     # of ELM steps 
   EDIFF  = 0.1E-06   stopping-criterion for ELM
   LREAL  =      F    real-space projection
   NLSPLINE    = F    spline interpolate recip. space projectors
   LCOMPAT=      F    compatible to vasp.4.4
   GGA_COMPAT  = T    GGA compatible to vasp.4.4-vasp.4.6
   LMAXPAW     = -100 max onsite density
   LMAXMIX     =    2 max onsite mixed and CHGCAR
   VOSKOWN=      0    Vosko Wilk Nusair interpolation
   ROPT   =    0.00000   0.00000   0.00000
 Ionic relaxation
   EDIFFG = -.1E-02   stopping-criterion for IOM
   NSW    =      0    number of steps for IOM
   NBLOCK =      1;   KBLOCK =      1    inner block; outer block 
   IBRION =     -1    ionic relax: 0-MD 1-quasi-New 2-CG
   NFREE  =      0    steps in history (QN), initial steepest desc. (CG)
   ISIF   =      2    stress and relaxation
   IWAVPR =     10    prediction:  0-non 1-charg 2-wave 3-comb
   ISYM   =      0    0-nonsym 1-usesym 2-fastsym
   LCORR  =      T    Harris-Foulkes like correction to forces

   POTIM  = 0.5000    time-step for ionic-motion
   TEIN   =    0.0    initial temperature
   TEBEG  =    0.0;   TEEND  =   0.0 temperature during run
   SMASS  =  -3.00    Nose mass-parameter (am)
   estimated Nose-frequenzy (Omega)   =  0.10E-29 period in steps =****** mass=  -0.514E-26a.u.
   SCALEE = 1.0000    scale energy and forces
   NPACO  =    256;   APACO  = 16.0  distance and # of slots for P.C.
   PSTRESS=    0.0 pullay stress

  Mass of Ions in am
   POMASS =  63.55 12.01 16.00
  Ionic Valenz
   ZVAL   =  11.00  4.00  6.00
  Atomic Wigner-Seitz radii
   RWIGS  =  -1.00 -1.00 -1.00
  virtual crystal weights 
   VCA    =   1.00  1.00  1.00
   NELECT =     153.0000    total number of electrons
   NUPDOWN=       1.0000    fix difference up-down

 DOS related values:
   EMIN   =  10.00;   EMAX   =-10.00  energy-range for DOS
   EFERMI =   0.00
   ISMEAR =     1;   SIGMA  =   0.10  broadening in eV -4-tet -1-fermi 0-gaus

 Electronic relaxation 2 (details)
   IALGO  =     68    algorithm
   LDIAG  =      T    sub-space diagonalisation (order eigenvalues)
   LSUBROT=      F    optimize rotation matrix (better conditioning)
   TURBO    =      0    0=normal 1=particle mesh
   IRESTART =      0    0=no restart 2=restart with 2 vectors
   NREBOOT  =      0    no. of reboots
   NMIN     =      0    reboot dimension
   EREF     =   0.00    reference energy to select bands
   IMIX   =      4    mixing-type and parameters
     AMIX     =   0.40;   BMIX     =  1.00
     AMIX_MAG =   1.60;   BMIX_MAG =  1.00
     AMIN     =   0.10
     WC   =   100.;   INIMIX=   1;  MIXPRE=   1;  MAXMIX= -45

 Intra band minimization:
   WEIMIN = 0.0000     energy-eigenvalue tresh-hold
   EBREAK =  0.27E-09  absolut break condition
   DEPER  =   0.30     relativ break condition  

   TIME   =   0.40     timestep for ELM

  volume/ion in A,a.u.               =     225.00      1518.37
  Fermi-wavevector in a.u.,A,eV,Ry     =   0.583733  1.103095  4.636102  0.340744
  Thomas-Fermi vector in A             =   1.629149
 
 Write flags
   LWAVE        =      F    write WAVECAR
   LDOWNSAMPLE  =      F    k-point downsampling of WAVECAR
   LCHARG       =      F    write CHGCAR
   LVTOT        =      F    write LOCPOT, total local potential
   LVHAR        =      F    write LOCPOT, Hartree potential only
   LELF         =      F    write electronic localiz. function (ELF)
   LORBIT       =      0    0 simple, 1 ext, 2 COOP (PROOUT), +10 PAW based schemes


 Dipole corrections
   LMONO  =      F    monopole corrections only (constant potential shift)
   LDIPOL =      F    correct potential (dipole corrections)
   IDIPOL =      0    1-x, 2-y, 3-z, 4-all directions 
   EPSILON=  1.0000000 bulk dielectric constant

 Exchange correlation treatment:
   GGA     =    PE    GGA type
   LEXCH   =     8    internal setting for exchange type
   VOSKOWN=      0    Vosko Wilk Nusair interpolation
   LHFCALC =     F    Hartree Fock is set to
   LHFONE  =     F    Hartree Fock one center treatment
   AEXX    =    0.0000 exact exchange contribution

 Linear response parameters
   LEPSILON=     F    determine dielectric tensor
   LRPA    =     F    only Hartree local field effects (RPA)
   LNABLA  =     F    use nabla operator in PAW spheres
   LVEL    =     F    velocity operator in full k-point grid
   LINTERFAST=   F  fast interpolation
   KINTER  =     0    interpolate to denser k-point grid
   CSHIFT  =0.1000    complex shift for real part using Kramers Kronig
   OMEGAMAX=  -1.0    maximum frequency
   DEG_THRESHOLD= 0.2000000E-02 threshold for treating states as degnerate
   RTIME   =   -0.100 relaxation time in fs
  (WPLASMAI=    0.000 imaginary part of plasma frequency in eV, 0.658/RTIME)
   DFIELD  = 0.0000000 0.0000000 0.0000000 field for delta impulse in time
 
 Orbital magnetization related:
   ORBITALMAG=     F  switch on orbital magnetization
   LCHIMAG   =     F  perturbation theory with respect to B field
   DQ        =  0.001000  dq finite difference perturbation B field
   LLRAUG    =     F  two centre corrections for induced B field



--------------------------------------------------------------------------------------------------------


 Static calculation
 charge density and potential will be updated during run
 spin polarized calculation
 RMM-DIIS sequential band-by-band and
  variant of blocked Davidson during initial phase
 perform sub-space diagonalisation
    before iterative eigenvector-optimisation
 modified Broyden-mixing scheme, WC =      100.0
 initial mixing is a Kerker type mixing with AMIX =  0.4000 and BMIX =      1.0000
 Hartree-type preconditioning will be used
 using additional bands           15
 reciprocal scheme for non local part
 use partial core corrections
 calculate Harris-corrections to forces 
   (improved forces if not selfconsistent)
 use gradient corrections 
 use of overlap-Matrix (Vanderbilt PP)
 Methfessel and Paxton  Order N= 1 SIGMA  =   0.10


--------------------------------------------------------------------------------------------------------


  energy-cutoff  :      600.00
  volume of cell :     3375.00
      direct lattice vectors                 reciprocal lattice vectors
    15.000000000  0.000000000  0.000000000     0.066666667  0.000000000  0.000000000
     0.000000000 15.000000000  0.000000000     0.000000000  0.066666667  0.000000000
     0.000000000  0.000000000 15.000000000     0.000000000  0.000000000  0.066666667

  length of vectors
    15.000000000 15.000000000 15.000000000     0.066666667  0.066666667  0.066666667


 
 k-points in units of 2pi/SCALE and weight: read from INCAR                         
   0.00000000  0.00000000  0.00000000       1.000
 
 k-points in reciprocal lattice and weights: read from INCAR                         
   0.00000000  0.00000000  0.00000000       1.000
 
 position of ions in fractional coordinates (direct lattice) 
   0.29429667  0.41130800  0.56960600
   0.37337933  0.54244133  0.49544867
   0.40181333  0.28528533  0.55527867
   0.53057333  0.51315133  0.47488200
   0.55638733  0.35575267  0.52931067
   0.44675400  0.43277200  0.61131000
   0.42196600  0.39638467  0.44376733
   0.21967733  0.56545467  0.55730067
   0.33353400  0.53738800  0.65572600
   0.34648000  0.67674667  0.57183267
   0.47810133  0.66846000  0.47417467
   0.63313533  0.49560333  0.59222200
   0.48544600  0.59783600  0.61247333
   0.73313333  0.51406400  0.65606533
   0.80369333  0.51045467  0.68844667
 
 position of ions in cartesian coordinates  (Angst):
   4.41445000  6.16962000  8.54409000
   5.60069000  8.13662000  7.43173000
   6.02720000  4.27928000  8.32918000
   7.95860000  7.69727000  7.12323000
   8.34581000  5.33629000  7.93966000
   6.70131000  6.49158000  9.16965000
   6.32949000  5.94577000  6.65651000
   3.29516000  8.48182000  8.35951000
   5.00301000  8.06082000  9.83589000
   5.19720000 10.15120000  8.57749000
   7.17152000 10.02690000  7.11262000
   9.49703000  7.43405000  8.88333000
   7.28169000  8.96754000  9.18710000
  10.99700000  7.71096000  9.84098000
  12.05540000  7.65682000 10.32670000
 


--------------------------------------------------------------------------------------------------------


 k-point  1 :   0.0000 0.0000 0.0000  plane waves:  112451

 maximum and minimum number of plane-waves per node :     18753    18726

 maximum number of plane-waves:    112451
 maximum index in each direction: 
   IXMAX=   29   IYMAX=   29   IZMAX=   29
   IXMIN=  -29   IYMIN=  -29   IZMIN=  -29


 parallel 3D FFT for wavefunctions:
    minimum data exchange during FFTs selected (reduces bandwidth)
 parallel 3D FFT for charge:
    minimum data exchange during FFTs selected (reduces bandwidth)


 total amount of memory used by VASP MPI-rank0   158680. kBytes
=======================================================================

   base      :      30000. kBytes
   nonl-proj :      12601. kBytes
   fftplans  :      27994. kBytes
   grid      :      74150. kBytes
   one-center:         93. kBytes
   wavefun   :      13842. kBytes
 
     INWAV:  cpu time    0.0000: real time    0.0001
 Broyden mixing: mesh for mixing (old mesh)
   NGX = 59   NGY = 59   NGZ = 59
  (NGX  =240   NGY  =240   NGZ  =240)
  gives a total of 205379 points

 initial charge density was supplied:
 charge density of overlapping atoms calculated
 number of electron     153.0000000 magnetization       1.0000000
 keeping initial charge density in first step


--------------------------------------------------------------------------------------------------------


 Maximum index for augmentation-charges          715 (set IRDMAX)


--------------------------------------------------------------------------------------------------------


 First call to EWALD:  gamma=   0.118
 Maximum number of real-space cells 3x 3x 3
 Maximum number of reciprocal cells 3x 3x 3

    FEWALD:  cpu time    0.0015: real time    0.0015


--------------------------------------- Iteration      1(   1)  ---------------------------------------


    POTLOK:  cpu time    1.1966: real time    1.1995
    SETDIJ:  cpu time    0.0182: real time    0.0182
     EDDAV:  cpu time    7.6621: real time    7.6717
       DOS:  cpu time    0.0004: real time    0.0004
    --------------------------------------------
      LOOP:  cpu time    8.8774: real time    8.8898

 eigenvalue-minimisations  :   376
 total energy-change (2. order) : 0.1119594E+04  (-0.4460292E+04)
 number of electron     153.0000000 magnetization       1.0000000
 augmentation part      153.0000000 magnetization       1.0000000

 Free energy of the ion-electron system (eV)
  ---------------------------------------------------
  alpha Z        PSCENC =        41.16232785
  Ewald energy   TEWEN  =     16185.14957275
  -Hartree energ DENC   =    -33208.84877529
  -exchange      EXHF   =         0.00000000
  -V(xc)+E(xc)   XCENC  =       623.35018251
  PAW double counting   =     16421.75059358   -17800.06104309
  entropy T*S    EENTRO =        -0.01981438
  eigenvalues    EBANDS =       194.89161048
  atomic energy  EATOM  =     18662.21924712
  Solvation  Ediel_sol  =         0.00000000
  ---------------------------------------------------
  free energy    TOTEN  =      1119.59390151 eV

  energy without entropy =     1119.61371589  energy(sigma->0) =     1119.60050630


--------------------------------------------------------------------------------------------------------




--------------------------------------- Iteration      1(   2)  ---------------------------------------


     EDDAV:  cpu time    7.4909: real time    7.5033
       DOS:  cpu time    0.0003: real time    0.0003
    --------------------------------------------
      LOOP:  cpu time    7.4913: real time    7.5036

 eigenvalue-minimisations  :   368
 total energy-change (2. order) :-0.1031319E+04  (-0.9791543E+03)
 number of electron     153.0000000 magnetization       1.0000000
 augmentation part      153.0000000 magnetization       1.0000000

 Free energy of the ion-electron system (eV)
  ---------------------------------------------------
  alpha Z        PSCENC =        41.16232785
  Ewald energy   TEWEN  =     16185.14957275
  -Hartree energ DENC   =    -33208.84877529
  -exchange      EXHF   =         0.00000000
  -V(xc)+E(xc)   XCENC  =       623.35018251
  PAW double counting   =     16421.75059358   -17800.06104309
  entropy T*S    EENTRO =         0.00720320
  eigenvalues    EBANDS =      -836.45472950
  atomic energy  EATOM  =     18662.21924712
  Solvation  Ediel_sol  =         0.00000000
  ---------------------------------------------------
  free energy    TOTEN  =        88.27457911 eV

  energy without entropy =       88.26737592  energy(sigma->0) =       88.27217805


--------------------------------------------------------------------------------------------------------




--------------------------------------- Iteration      1(   3)  ---------------------------------------


     EDDAV:  cpu time   11.8207: real time   11.8408
       DOS:  cpu time    0.0003: real time    0.0003
    --------------------------------------------
      LOOP:  cpu time   11.8210: real time   11.8411

 eigenvalue-minimisations  :   664
 total energy-change (2. order) :-0.1234905E+03  (-0.1157771E+03)
 number of electron     153.0000000 magnetization       1.0000000
 augmentation part      153.0000000 magnetization       1.0000000

 Free energy of the ion-electron system (eV)
  ---------------------------------------------------
  alpha Z        PSCENC =        41.16232785
  Ewald energy   TEWEN  =     16185.14957275
  -Hartree energ DENC   =    -33208.84877529
  -exchange      EXHF   =         0.00000000
  -V(xc)+E(xc)   XCENC  =       623.35018251
  PAW double counting   =     16421.75059358   -17800.06104309
  entropy T*S    EENTRO =         0.00859374
  eigenvalues    EBANDS =      -959.94662393
  atomic energy  EATOM  =     18662.21924712
  Solvation  Ediel_sol  =         0.00000000
  ---------------------------------------------------
  free energy    TOTEN  =       -35.21592478 eV

  energy without entropy =      -35.22451852  energy(sigma->0) =      -35.21878936


--------------------------------------------------------------------------------------------------------




--------------------------------------- Iteration      1(   4)  ---------------------------------------


     EDDAV:  cpu time   10.1724: real time   10.1872
       DOS:  cpu time    0.0003: real time    0.0003
    --------------------------------------------
      LOOP:  cpu time   10.1727: real time   10.1875

 eigenvalue-minimisations  :   552
 total energy-change (2. order) :-0.2067936E+02  (-0.2041208E+02)
 number of electron     153.0000000 magnetization       1.0000000
 augmentation part      153.0000000 magnetization       1.0000000

 Free energy of the ion-electron system (eV)
  ---------------------------------------------------
  alpha Z        PSCENC =        41.16232785
  Ewald energy   TEWEN  =     16185.14957275
  -Hartree energ DENC   =    -33208.84877529
  -exchange      EXHF   =         0.00000000
  -V(xc)+E(xc)   XCENC  =       623.35018251
  PAW double counting   =     16421.75059358   -17800.06104309
  entropy T*S    EENTRO =         0.00843408
  eigenvalues    EBANDS =      -980.62582447
  atomic energy  EATOM  =     18662.21924712
  Solvation  Ediel_sol  =         0.00000000
  ---------------------------------------------------
  free energy    TOTEN  =       -55.89528497 eV

  energy without entropy =      -55.90371906  energy(sigma->0) =      -55.89809633


--------------------------------------------------------------------------------------------------------




--------------------------------------- Iteration      1(   5)  ---------------------------------------


     EDDAV:  cpu time   12.0823: real time   12.0991
       DOS:  cpu time    0.0003: real time    0.0003
    CHARGE:  cpu time    0.6706: real time    0.6715
    MIXING:  cpu time    0.0226: real time    0.0226
    --------------------------------------------
      LOOP:  cpu time   12.7758: real time   12.7936

 eigenvalue-minimisations  :   680
 total energy-change (2. order) :-0.1428717E+01  (-0.1304176E+01)
 number of electron     152.9999998 magnetization       1.0000000
 augmentation part       87.4257972 magnetization       0.3658401

 Broyden mixing:
  rms(total) = 0.23999E+01    rms(broyden)= 0.23998E+01
  rms(prec ) = 0.27558E+01
  weight for this iteration     100.00

 Free energy of the ion-electron system (eV)
  ---------------------------------------------------
  alpha Z        PSCENC =        41.16232785
  Ewald energy   TEWEN  =     16185.14957275
  -Hartree energ DENC   =    -33208.84877529
  -exchange      EXHF   =         0.00000000
  -V(xc)+E(xc)   XCENC  =       623.35018251
  PAW double counting   =     16421.75059358   -17800.06104309
  entropy T*S    EENTRO =         0.00799240
  eigenvalues    EBANDS =      -982.05409979
  atomic energy  EATOM  =     18662.21924712
  Solvation  Ediel_sol  =         0.00000000
  ---------------------------------------------------
  free energy    TOTEN  =       -57.32400198 eV

  energy without entropy =      -57.33199438  energy(sigma->0) =      -57.32666611


--------------------------------------------------------------------------------------------------------




--------------------------------------- Iteration      1(   6)  ---------------------------------------


    POTLOK:  cpu time    1.1731: real time    1.1750
    SETDIJ:  cpu time    0.0177: real time    0.0177
    EDDIAG:  cpu time    1.1078: real time    1.1096
  RMM-DIIS:  cpu time    6.8429: real time    6.8497
    ORTHCH:  cpu time    0.0610: real time    0.0610
       DOS:  cpu time    0.0006: real time    0.0006
    CHARGE:  cpu time    0.6551: real time    0.6557
    MIXING:  cpu time    0.0230: real time    0.0230
    --------------------------------------------
      LOOP:  cpu time    9.8810: real time    9.8924

 eigenvalue-minimisations  :   420
 total energy-change (2. order) : 0.3703552E+00  (-0.1248415E+02)
 number of electron     153.0000001 magnetization       1.0000000
 augmentation part       95.7312074 magnetization       0.0740189

 Broyden mixing:
  rms(total) = 0.16113E+01    rms(broyden)= 0.16112E+01
  rms(prec ) = 0.18602E+01
  weight for this iteration     100.00

 eigenvalues of (default mixing * dielectric matrix)
  average eigenvalue GAMMA=   0.6079
  0.6079

 Free energy of the ion-electron system (eV)
  ---------------------------------------------------
  alpha Z        PSCENC =        41.16232785
  Ewald energy   TEWEN  =     16185.14957275
  -Hartree energ DENC   =    -32953.96946409
  -exchange      EXHF   =         0.00000000
  -V(xc)+E(xc)   XCENC  =       611.06552378
  PAW double counting   =     16691.87759959   -18015.21952034
  entropy T*S    EENTRO =         0.00620513
  eigenvalues    EBANDS =     -1279.24513860
  atomic energy  EATOM  =     18662.21924712
  Solvation  Ediel_sol  =         0.00000000
  ---------------------------------------------------
  free energy    TOTEN  =       -56.95364680 eV

  energy without entropy =      -56.95985194  energy(sigma->0) =      -56.95571518


--------------------------------------------------------------------------------------------------------




--------------------------------------- Iteration      1(   7)  ---------------------------------------


    POTLOK:  cpu time    1.1730: real time    1.1744
    SETDIJ:  cpu time    0.0186: real time    0.0186
    EDDIAG:  cpu time    1.1109: real time    1.1118
  RMM-DIIS:  cpu time    6.1602: real time    6.1642
    ORTHCH:  cpu time    0.0610: real time    0.0610
       DOS:  cpu time    0.0006: real time    0.0006
    CHARGE:  cpu time    0.6621: real time    0.6622
    MIXING:  cpu time    0.0236: real time    0.0236
    --------------------------------------------
      LOOP:  cpu time    9.2100: real time    9.2164

 eigenvalue-minimisations  :   377
 total energy-change (2. order) : 0.7773522E+01  (-0.2633379E+01)
 number of electron     153.0000000 magnetization       1.0000000
 augmentation part       92.9334257 magnetization       0.1038977

 Broyden mixing:
  rms(total) = 0.39856E+00    rms(broyden)= 0.39854E+00
  rms(prec ) = 0.49521E+00
  weight for this iteration     100.00

 eigenvalues of (default mixing * dielectric matrix)
  average eigenvalue GAMMA=   0.9198
  1.1675  0.6721

 Free energy of the ion-electron system (eV)
  ---------------------------------------------------
  alpha Z        PSCENC =        41.16232785
  Ewald energy   TEWEN  =     16185.14957275
  -Hartree energ DENC   =    -33089.16765648
  -exchange      EXHF   =         0.00000000
  -V(xc)+E(xc)   XCENC  =       615.48561209
  PAW double counting   =     17030.73954499   -18403.83735036
  entropy T*S    EENTRO =         0.00683239
  eigenvalues    EBANDS =     -1090.93825544
  atomic energy  EATOM  =     18662.21924712
  Solvation  Ediel_sol  =         0.00000000
  ---------------------------------------------------
  free energy    TOTEN  =       -49.18012509 eV

  energy without entropy =      -49.18695748  energy(sigma->0) =      -49.18240255


--------------------------------------------------------------------------------------------------------




--------------------------------------- Iteration      1(   8)  ---------------------------------------


    POTLOK:  cpu time    1.1736: real time    1.1767
    SETDIJ:  cpu time    0.0185: real time    0.0185
    EDDIAG:  cpu time    1.1086: real time    1.1096
  RMM-DIIS:  cpu time    6.9231: real time    6.9305
    ORTHCH:  cpu time    0.0609: real time    0.0609
       DOS:  cpu time    0.0006: real time    0.0006
    CHARGE:  cpu time    0.7008: real time    0.7009
    MIXING:  cpu time    0.0241: real time    0.0241
    --------------------------------------------
      LOOP:  cpu time   10.0104: real time   10.0220

 eigenvalue-minimisations  :   425
 total energy-change (2. order) : 0.2449423E+00  (-0.4714864E+00)
 number of electron     152.9999999 magnetization       1.0000000
 augmentation part       92.0547640 magnetization       0.1081694

 Broyden mixing:
  rms(total) = 0.32617E+00    rms(broyden)= 0.32615E+00
  rms(prec ) = 0.36843E+00
  weight for this iteration     100.00

 eigenvalues of (default mixing * dielectric matrix)
  average eigenvalue GAMMA=   0.9068
  1.3289  0.6957  0.6957

 Free energy of the ion-electron system (eV)
  ---------------------------------------------------
  alpha Z        PSCENC =        41.16232785
  Ewald energy   TEWEN  =     16185.14957275
  -Hartree energ DENC   =    -33140.89101852
  -exchange      EXHF   =         0.00000000
  -V(xc)+E(xc)   XCENC  =       616.02040052
  PAW double counting   =     17386.62467001   -18780.00333534
  entropy T*S    EENTRO =         0.00694504
  eigenvalues    EBANDS =     -1019.22399226
  atomic energy  EATOM  =     18662.21924712
  Solvation  Ediel_sol  =         0.00000000
  ---------------------------------------------------
  free energy    TOTEN  =       -48.93518283 eV

  energy without entropy =      -48.94212787  energy(sigma->0) =      -48.93749784


--------------------------------------------------------------------------------------------------------




--------------------------------------- Iteration      1(   9)  ---------------------------------------


    POTLOK:  cpu time    1.1744: real time    1.1773
    SETDIJ:  cpu time    0.0182: real time    0.0182
    EDDIAG:  cpu time    1.1115: real time    1.1125
  RMM-DIIS:  cpu time    6.7076: real time    6.7126
    ORTHCH:  cpu time    0.0582: real time    0.0584
       DOS:  cpu time    0.0004: real time    0.0004
    CHARGE:  cpu time    0.6738: real time    0.6741
    MIXING:  cpu time    0.0259: real time    0.0259
    --------------------------------------------
      LOOP:  cpu time    9.7700: real time    9.7794

 eigenvalue-minimisations  :   410
 total energy-change (2. order) : 0.5884994E-01  (-0.1067208E+00)
 number of electron     153.0000000 magnetization       1.0000000
 augmentation part       92.2754740 magnetization       0.0931935

 Broyden mixing:
  rms(total) = 0.19057E+00    rms(broyden)= 0.19056E+00
  rms(prec ) = 0.22639E+00
  weight for this iteration     100.00

 eigenvalues of (default mixing * dielectric matrix)
  average eigenvalue GAMMA=   1.0249
  2.0624  0.7737  0.7737  0.4900

 Free energy of the ion-electron system (eV)
  ---------------------------------------------------
  alpha Z        PSCENC =        41.16232785
  Ewald energy   TEWEN  =     16185.14957275
  -Hartree energ DENC   =    -33137.45209316
  -exchange      EXHF   =         0.00000000
  -V(xc)+E(xc)   XCENC  =       615.53510024
  PAW double counting   =     17484.33851498   -18879.11081365
  entropy T*S    EENTRO =         0.00711236
  eigenvalues    EBANDS =     -1020.72530139
  atomic energy  EATOM  =     18662.21924712
  Solvation  Ediel_sol  =         0.00000000
  ---------------------------------------------------
  free energy    TOTEN  =       -48.87633290 eV

  energy without entropy =      -48.88344526  energy(sigma->0) =      -48.87870368


--------------------------------------------------------------------------------------------------------




--------------------------------------- Iteration      1(  10)  ---------------------------------------


    POTLOK:  cpu time    1.1775: real time    1.1789
    SETDIJ:  cpu time    0.0181: real time    0.0181
    EDDIAG:  cpu time    1.1091: real time    1.1099
  RMM-DIIS:  cpu time    6.7966: real time    6.8011
    ORTHCH:  cpu time    0.0584: real time    0.0584
       DOS:  cpu time    0.0004: real time    0.0004
    CHARGE:  cpu time    0.6684: real time    0.6689
    MIXING:  cpu time    0.0261: real time    0.0261
    --------------------------------------------
      LOOP:  cpu time    9.8546: real time    9.8618

 eigenvalue-minimisations  :   419
 total energy-change (2. order) : 0.6316487E-01  (-0.2290319E-01)
 number of electron     153.0000000 magnetization       1.0000000
 augmentation part       92.4709744 magnetization       0.0804786

 Broyden mixing:
  rms(total) = 0.65146E-01    rms(broyden)= 0.65143E-01
  rms(prec ) = 0.84756E-01
  weight for this iteration     100.00

 eigenvalues of (default mixing * dielectric matrix)
  average eigenvalue GAMMA=   1.0390
  2.0983  1.1023  0.7591  0.7591  0.4760

 Free energy of the ion-electron system (eV)
  ---------------------------------------------------
  alpha Z        PSCENC =        41.16232785
  Ewald energy   TEWEN  =     16185.14957275
  -Hartree energ DENC   =    -33134.99739359
  -exchange      EXHF   =         0.00000000
  -V(xc)+E(xc)   XCENC  =       615.07453756
  PAW double counting   =     17589.34762027   -18985.63652177
  entropy T*S    EENTRO =         0.00682257
  eigenvalues    EBANDS =     -1021.13938077
  atomic energy  EATOM  =     18662.21924712
  Solvation  Ediel_sol  =         0.00000000
  ---------------------------------------------------
  free energy    TOTEN  =       -48.81316803 eV

  energy without entropy =      -48.81999059  energy(sigma->0) =      -48.81544222


--------------------------------------------------------------------------------------------------------




--------------------------------------- Iteration      1(  11)  ---------------------------------------


    POTLOK:  cpu time    1.1758: real time    1.1775
    SETDIJ:  cpu time    0.0180: real time    0.0180
    EDDIAG:  cpu time    1.1072: real time    1.1079
  RMM-DIIS:  cpu time    6.9943: real time    6.9989
    ORTHCH:  cpu time    0.0585: real time    0.0585
       DOS:  cpu time    0.0005: real time    0.0005
    CHARGE:  cpu time    0.6717: real time    0.6720
    MIXING:  cpu time    0.0269: real time    0.0269
    --------------------------------------------
      LOOP:  cpu time   10.0529: real time   10.0602

 eigenvalue-minimisations  :   434
 total energy-change (2. order) : 0.1159430E-01  (-0.7122963E-02)
 number of electron     153.0000000 magnetization       1.0000000
 augmentation part       92.3956563 magnetization       0.0823592

 Broyden mixing:
  rms(total) = 0.34659E-01    rms(broyden)= 0.34655E-01
  rms(prec ) = 0.46871E-01
  weight for this iteration     100.00

 eigenvalues of (default mixing * dielectric matrix)
  average eigenvalue GAMMA=   1.0375
  2.1662  1.3944  0.7306  0.7306  0.7235  0.4798

 Free energy of the ion-electron system (eV)
  ---------------------------------------------------
  alpha Z        PSCENC =        41.16232785
  Ewald energy   TEWEN  =     16185.14957275
  -Hartree energ DENC   =    -33142.81765189
  -exchange      EXHF   =         0.00000000
  -V(xc)+E(xc)   XCENC  =       615.20126101
  PAW double counting   =     17636.05724098   -19034.50104304
  entropy T*S    EENTRO =         0.00692432
  eigenvalues    EBANDS =     -1011.27945282
  atomic energy  EATOM  =     18662.21924712
  Solvation  Ediel_sol  =         0.00000000
  ---------------------------------------------------
  free energy    TOTEN  =       -48.80157373 eV

  energy without entropy =      -48.80849805  energy(sigma->0) =      -48.80388183


--------------------------------------------------------------------------------------------------------




--------------------------------------- Iteration      1(  12)  ---------------------------------------


    POTLOK:  cpu time    1.1752: real time    1.1762
    SETDIJ:  cpu time    0.0179: real time    0.0179
    EDDIAG:  cpu time    1.1062: real time    1.1069
  RMM-DIIS:  cpu time    6.9334: real time    6.9381
    ORTHCH:  cpu time    0.0573: real time    0.0573
       DOS:  cpu time    0.0004: real time    0.0004
    CHARGE:  cpu time    0.6719: real time    0.6722
    MIXING:  cpu time    0.0284: real time    0.0284
    --------------------------------------------
      LOOP:  cpu time    9.9907: real time    9.9973

 eigenvalue-minimisations  :   427
 total energy-change (2. order) : 0.1880602E-02  (-0.1816150E-02)
 number of electron     153.0000000 magnetization       1.0000000
 augmentation part       92.3955713 magnetization       0.0822746

 Broyden mixing:
  rms(total) = 0.18978E-01    rms(broyden)= 0.18977E-01
  rms(prec ) = 0.30764E-01
  weight for this iteration     100.00

 eigenvalues of (default mixing * dielectric matrix)
  average eigenvalue GAMMA=   1.0829
  2.3821  1.7147  1.0486  0.6999  0.6999  0.5710  0.4638

 Free energy of the ion-electron system (eV)
  ---------------------------------------------------
  alpha Z        PSCENC =        41.16232785
  Ewald energy   TEWEN  =     16185.14957275
  -Hartree energ DENC   =    -33145.94982534
  -exchange      EXHF   =         0.00000000
  -V(xc)+E(xc)   XCENC  =       615.24100127
  PAW double counting   =     17645.45236717   -19044.28556223
  entropy T*S    EENTRO =         0.00679612
  eigenvalues    EBANDS =     -1007.79561784
  atomic energy  EATOM  =     18662.21924712
  Solvation  Ediel_sol  =         0.00000000
  ---------------------------------------------------
  free energy    TOTEN  =       -48.79969312 eV

  energy without entropy =      -48.80648925  energy(sigma->0) =      -48.80195850


--------------------------------------------------------------------------------------------------------




--------------------------------------- Iteration      1(  13)  ---------------------------------------


    POTLOK:  cpu time    1.1781: real time    1.1806
    SETDIJ:  cpu time    0.0181: real time    0.0181
    EDDIAG:  cpu time    1.1068: real time    1.1076
  RMM-DIIS:  cpu time    7.1695: real time    7.1747
    ORTHCH:  cpu time    0.0575: real time    0.0575
       DOS:  cpu time    0.0004: real time    0.0004
    CHARGE:  cpu time    0.6719: real time    0.6723
    MIXING:  cpu time    0.0279: real time    0.0279
    --------------------------------------------
      LOOP:  cpu time   10.2301: real time   10.2392

 eigenvalue-minimisations  :   451
 total energy-change (2. order) : 0.9826273E-03  (-0.5895319E-03)
 number of electron     153.0000000 magnetization       1.0000000
 augmentation part       92.3997445 magnetization       0.0828265

 Broyden mixing:
  rms(total) = 0.10995E-01    rms(broyden)= 0.10995E-01
  rms(prec ) = 0.20388E-01
  weight for this iteration     100.00

 eigenvalues of (default mixing * dielectric matrix)
  average eigenvalue GAMMA=   1.1169
  2.4348  1.8251  1.4368  0.7594  0.7594  0.7391  0.5270  0.4538

 Free energy of the ion-electron system (eV)
  ---------------------------------------------------
  alpha Z        PSCENC =        41.16232785
  Ewald energy   TEWEN  =     16185.14957275
  -Hartree energ DENC   =    -33149.95410904
  -exchange      EXHF   =         0.00000000
  -V(xc)+E(xc)   XCENC  =       615.26328117
  PAW double counting   =     17651.38924988   -19050.36827675
  entropy T*S    EENTRO =         0.00682312
  eigenvalues    EBANDS =     -1003.66682658
  atomic energy  EATOM  =     18662.21924712
  Solvation  Ediel_sol  =         0.00000000
  ---------------------------------------------------
  free energy    TOTEN  =       -48.79871050 eV

  energy without entropy =      -48.80553362  energy(sigma->0) =      -48.80098487


--------------------------------------------------------------------------------------------------------




--------------------------------------- Iteration      1(  14)  ---------------------------------------


    POTLOK:  cpu time    1.1787: real time    1.1802
    SETDIJ:  cpu time    0.0182: real time    0.0182
    EDDIAG:  cpu time    1.1069: real time    1.1078
  RMM-DIIS:  cpu time    6.7151: real time    6.7199
    ORTHCH:  cpu time    0.0580: real time    0.0580
       DOS:  cpu time    0.0004: real time    0.0004
    CHARGE:  cpu time    0.6693: real time    0.6699
    MIXING:  cpu time    0.0296: real time    0.0296
    --------------------------------------------
      LOOP:  cpu time    9.7761: real time    9.7838

 eigenvalue-minimisations  :   409
 total energy-change (2. order) :-0.1273898E-02  (-0.4528081E-03)
 number of electron     153.0000000 magnetization       1.0000000
 augmentation part       92.4163601 magnetization       0.0826589

 Broyden mixing:
  rms(total) = 0.13021E-01    rms(broyden)= 0.13021E-01
  rms(prec ) = 0.18785E-01
  weight for this iteration     100.00

 eigenvalues of (default mixing * dielectric matrix)
  average eigenvalue GAMMA=   1.1377
  2.3565  2.3565  1.3147  1.0484  0.7499  0.7499  0.7037  0.5019  0.4582

 Free energy of the ion-electron system (eV)
  ---------------------------------------------------
  alpha Z        PSCENC =        41.16232785
  Ewald energy   TEWEN  =     16185.14957275
  -Hartree energ DENC   =    -33154.66247505
  -exchange      EXHF   =         0.00000000
  -V(xc)+E(xc)   XCENC  =       615.28860915
  PAW double counting   =     17644.24211055   -19042.86282611
  entropy T*S    EENTRO =         0.00679884
  eigenvalues    EBANDS =      -999.34334949
  atomic energy  EATOM  =     18662.21924712
  Solvation  Ediel_sol  =         0.00000000
  ---------------------------------------------------
  free energy    TOTEN  =       -48.79998440 eV

  energy without entropy =      -48.80678323  energy(sigma->0) =      -48.80225068


--------------------------------------------------------------------------------------------------------




--------------------------------------- Iteration      1(  15)  ---------------------------------------


    POTLOK:  cpu time    1.1795: real time    1.1804
    SETDIJ:  cpu time    0.0182: real time    0.0182
    EDDIAG:  cpu time    1.1069: real time    1.1076
  RMM-DIIS:  cpu time    7.0343: real time    7.0392
    ORTHCH:  cpu time    0.0607: real time    0.0608
       DOS:  cpu time    0.0004: real time    0.0004
    CHARGE:  cpu time    0.6687: real time    0.6692
    MIXING:  cpu time    0.0306: real time    0.0307
    --------------------------------------------
      LOOP:  cpu time   10.0993: real time   10.1064

 eigenvalue-minimisations  :   407
 total energy-change (2. order) :-0.1031964E-02  (-0.1513849E-03)
 number of electron     153.0000000 magnetization       1.0000000
 augmentation part       92.4091541 magnetization       0.0829755

 Broyden mixing:
  rms(total) = 0.56256E-02    rms(broyden)= 0.56252E-02
  rms(prec ) = 0.99974E-02
  weight for this iteration     100.00

 eigenvalues of (default mixing * dielectric matrix)
  average eigenvalue GAMMA=   1.1947
  2.7041  2.7041  1.3878  1.3878  0.7498  0.7498  0.7551  0.5659  0.4606  0.4820

 Free energy of the ion-electron system (eV)
  ---------------------------------------------------
  alpha Z        PSCENC =        41.16232785
  Ewald energy   TEWEN  =     16185.14957275
  -Hartree energ DENC   =    -33158.07703040
  -exchange      EXHF   =         0.00000000
  -V(xc)+E(xc)   XCENC  =       615.32385880
  PAW double counting   =     17639.37858822   -19037.90609051
  entropy T*S    EENTRO =         0.00679006
  eigenvalues    EBANDS =      -996.05828025
  atomic energy  EATOM  =     18662.21924712
  Solvation  Ediel_sol  =         0.00000000
  ---------------------------------------------------
  free energy    TOTEN  =       -48.80101636 eV

  energy without entropy =      -48.80780642  energy(sigma->0) =      -48.80327971


--------------------------------------------------------------------------------------------------------




--------------------------------------- Iteration      1(  16)  ---------------------------------------


    POTLOK:  cpu time    1.1792: real time    1.1816
    SETDIJ:  cpu time    0.0181: real time    0.0182
    EDDIAG:  cpu time    1.1069: real time    1.1077
  RMM-DIIS:  cpu time    6.3834: real time    6.3879
    ORTHCH:  cpu time    0.0611: real time    0.0611
       DOS:  cpu time    0.0004: real time    0.0004
    CHARGE:  cpu time    0.6695: real time    0.6698
    MIXING:  cpu time    0.0314: real time    0.0314
    --------------------------------------------
      LOOP:  cpu time    9.4500: real time    9.4581

 eigenvalue-minimisations  :   393
 total energy-change (2. order) :-0.1434018E-02  (-0.9076208E-04)
 number of electron     153.0000000 magnetization       1.0000000
 augmentation part       92.4033626 magnetization       0.0830559

 Broyden mixing:
  rms(total) = 0.48045E-02    rms(broyden)= 0.48041E-02
  rms(prec ) = 0.72566E-02
  weight for this iteration     100.00

 eigenvalues of (default mixing * dielectric matrix)
  average eigenvalue GAMMA=   1.2351
  3.2502  2.6165  1.5407  1.5407  0.9267  0.7526  0.7526  0.7317  0.4551  0.5094
  0.5094

 Free energy of the ion-electron system (eV)
  ---------------------------------------------------
  alpha Z        PSCENC =        41.16232785
  Ewald energy   TEWEN  =     16185.14957275
  -Hartree energ DENC   =    -33160.78550177
  -exchange      EXHF   =         0.00000000
  -V(xc)+E(xc)   XCENC  =       615.35256876
  PAW double counting   =     17635.24000112   -19033.71184442
  entropy T*S    EENTRO =         0.00680706
  eigenvalues    EBANDS =      -993.43562883
  atomic energy  EATOM  =     18662.21924712
  Solvation  Ediel_sol  =         0.00000000
  ---------------------------------------------------
  free energy    TOTEN  =       -48.80245038 eV

  energy without entropy =      -48.80925743  energy(sigma->0) =      -48.80471940


--------------------------------------------------------------------------------------------------------




--------------------------------------- Iteration      1(  17)  ---------------------------------------


    POTLOK:  cpu time    1.1768: real time    1.1800
    SETDIJ:  cpu time    0.0186: real time    0.0186
    EDDIAG:  cpu time    1.1081: real time    1.1088
  RMM-DIIS:  cpu time    6.8907: real time    6.8951
    ORTHCH:  cpu time    0.0615: real time    0.0615
       DOS:  cpu time    0.0004: real time    0.0004
    CHARGE:  cpu time    0.6681: real time    0.6684
    MIXING:  cpu time    0.0319: real time    0.0319
    --------------------------------------------
      LOOP:  cpu time    9.9561: real time    9.9647

 eigenvalue-minimisations  :   400
 total energy-change (2. order) :-0.1740969E-02  (-0.4993525E-04)
 number of electron     153.0000000 magnetization       1.0000000
 augmentation part       92.4040276 magnetization       0.0830672

 Broyden mixing:
  rms(total) = 0.24202E-02    rms(broyden)= 0.24202E-02
  rms(prec ) = 0.39531E-02
  weight for this iteration     100.00

 eigenvalues of (default mixing * dielectric matrix)
  average eigenvalue GAMMA=   1.3223
  4.2885  2.5539  2.0117  1.4497  1.2004  0.7617  0.7617  0.7254  0.6549  0.5204
  0.4560  0.4839

 Free energy of the ion-electron system (eV)
  ---------------------------------------------------
  alpha Z        PSCENC =        41.16232785
  Ewald energy   TEWEN  =     16185.14957275
  -Hartree energ DENC   =    -33162.74169187
  -exchange      EXHF   =         0.00000000
  -V(xc)+E(xc)   XCENC  =       615.36304521
  PAW double counting   =     17633.49978494   -19031.95589805
  entropy T*S    EENTRO =         0.00681379
  eigenvalues    EBANDS =      -991.50739308
  atomic energy  EATOM  =     18662.21924712
  Solvation  Ediel_sol  =         0.00000000
  ---------------------------------------------------
  free energy    TOTEN  =       -48.80419135 eV

  energy without entropy =      -48.81100514  energy(sigma->0) =      -48.80646261


--------------------------------------------------------------------------------------------------------




--------------------------------------- Iteration      1(  18)  ---------------------------------------


    POTLOK:  cpu time    1.1799: real time    1.1822
    SETDIJ:  cpu time    0.0181: real time    0.0181
    EDDIAG:  cpu time    1.1072: real time    1.1079
  RMM-DIIS:  cpu time    6.7657: real time    6.7961
    ORTHCH:  cpu time    0.0611: real time    0.0613
       DOS:  cpu time    0.0004: real time    0.0004
    CHARGE:  cpu time    0.6682: real time    0.6684
    MIXING:  cpu time    0.0328: real time    0.0329
    --------------------------------------------
      LOOP:  cpu time    9.8334: real time    9.8674

 eigenvalue-minimisations  :   403
 total energy-change (2. order) :-0.7948864E-03  (-0.1812417E-04)
 number of electron     153.0000000 magnetization       1.0000000
 augmentation part       92.4034078 magnetization       0.0831307

 Broyden mixing:
  rms(total) = 0.14396E-02    rms(broyden)= 0.14396E-02
  rms(prec ) = 0.26519E-02
  weight for this iteration     100.00

 eigenvalues of (default mixing * dielectric matrix)
  average eigenvalue GAMMA=   1.3712
  5.1028  2.6558  2.2062  1.3472  1.3472  0.8202  0.8202  0.7506  0.7506  0.5769
  0.5117  0.4565  0.4795

 Free energy of the ion-electron system (eV)
  ---------------------------------------------------
  alpha Z        PSCENC =        41.16232785
  Ewald energy   TEWEN  =     16185.14957275
  -Hartree energ DENC   =    -33163.57723101
  -exchange      EXHF   =         0.00000000
  -V(xc)+E(xc)   XCENC  =       615.36533372
  PAW double counting   =     17633.36099536   -19031.83005051
  entropy T*S    EENTRO =         0.00681229
  eigenvalues    EBANDS =      -990.66199381
  atomic energy  EATOM  =     18662.21924712
  Solvation  Ediel_sol  =         0.00000000
  ---------------------------------------------------
  free energy    TOTEN  =       -48.80498623 eV

  energy without entropy =      -48.81179853  energy(sigma->0) =      -48.80725700


--------------------------------------------------------------------------------------------------------




--------------------------------------- Iteration      1(  19)  ---------------------------------------


    POTLOK:  cpu time    1.1787: real time    1.1809
    SETDIJ:  cpu time    0.0185: real time    0.0185
    EDDIAG:  cpu time    1.1052: real time    1.1062
  RMM-DIIS:  cpu time    7.5436: real time    7.5490
    ORTHCH:  cpu time    0.0611: real time    0.0611
       DOS:  cpu time    0.0004: real time    0.0004
    CHARGE:  cpu time    0.6683: real time    0.6688
    MIXING:  cpu time    0.0348: real time    0.0349
    --------------------------------------------
      LOOP:  cpu time   10.6105: real time   10.6197

 eigenvalue-minimisations  :   453
 total energy-change (2. order) :-0.8490475E-03  (-0.1296610E-04)
 number of electron     153.0000000 magnetization       1.0000000
 augmentation part       92.4042935 magnetization       0.0832133

 Broyden mixing:
  rms(total) = 0.12601E-02    rms(broyden)= 0.12600E-02
  rms(prec ) = 0.19847E-02
  weight for this iteration     100.00

 eigenvalues of (default mixing * dielectric matrix)
  average eigenvalue GAMMA=   1.4376
  5.8588  2.7752  2.1777  1.5945  1.5945  1.1696  0.7509  0.7509  0.7831  0.6843
  0.5482  0.4553  0.5042  0.4786

 Free energy of the ion-electron system (eV)
  ---------------------------------------------------
  alpha Z        PSCENC =        41.16232785
  Ewald energy   TEWEN  =     16185.14957275
  -Hartree energ DENC   =    -33164.07194895
  -exchange      EXHF   =         0.00000000
  -V(xc)+E(xc)   XCENC  =       615.36288459
  PAW double counting   =     17633.40469319   -19031.87270116
  entropy T*S    EENTRO =         0.00680893
  eigenvalues    EBANDS =      -990.16671960
  atomic energy  EATOM  =     18662.21924712
  Solvation  Ediel_sol  =         0.00000000
  ---------------------------------------------------
  free energy    TOTEN  =       -48.80583528 eV

  energy without entropy =      -48.81264421  energy(sigma->0) =      -48.80810492


--------------------------------------------------------------------------------------------------------




--------------------------------------- Iteration      1(  20)  ---------------------------------------


    POTLOK:  cpu time    1.1783: real time    1.1789
    SETDIJ:  cpu time    0.0182: real time    0.0182
    EDDIAG:  cpu time    1.1055: real time    1.1076
  RMM-DIIS:  cpu time    6.5205: real time    6.5254
    ORTHCH:  cpu time    0.0610: real time    0.0610
       DOS:  cpu time    0.0004: real time    0.0004
    CHARGE:  cpu time    0.6675: real time    0.6680
    MIXING:  cpu time    0.0365: real time    0.0365
    --------------------------------------------
      LOOP:  cpu time    9.5878: real time    9.5961

 eigenvalue-minimisations  :   408
 total energy-change (2. order) :-0.4937884E-03  (-0.4276654E-05)
 number of electron     153.0000000 magnetization       1.0000000
 augmentation part       92.4042009 magnetization       0.0831911

 Broyden mixing:
  rms(total) = 0.69959E-03    rms(broyden)= 0.69958E-03
  rms(prec ) = 0.12321E-02
  weight for this iteration     100.00

 eigenvalues of (default mixing * dielectric matrix)
  average eigenvalue GAMMA=   1.4465
  6.3007  2.8141  2.2442  1.9749  1.3170  1.3170  0.8274  0.8274  0.7468  0.7468
  0.6203  0.5162  0.5162  0.4556  0.4723

 Free energy of the ion-electron system (eV)
  ---------------------------------------------------
  alpha Z        PSCENC =        41.16232785
  Ewald energy   TEWEN  =     16185.14957275
  -Hartree energ DENC   =    -33164.21908600
  -exchange      EXHF   =         0.00000000
  -V(xc)+E(xc)   XCENC  =       615.36231954
  PAW double counting   =     17633.69228118   -19032.16997066
  entropy T*S    EENTRO =         0.00680782
  eigenvalues    EBANDS =      -990.00982867
  atomic energy  EATOM  =     18662.21924712
  Solvation  Ediel_sol  =         0.00000000
  ---------------------------------------------------
  free energy    TOTEN  =       -48.80632907 eV

  energy without entropy =      -48.81313689  energy(sigma->0) =      -48.80859834


--------------------------------------------------------------------------------------------------------




--------------------------------------- Iteration      1(  21)  ---------------------------------------


    POTLOK:  cpu time    1.1796: real time    1.1812
    SETDIJ:  cpu time    0.0186: real time    0.0186
    EDDIAG:  cpu time    1.1076: real time    1.1084
  RMM-DIIS:  cpu time    6.5347: real time    6.5393
    ORTHCH:  cpu time    0.0619: real time    0.0619
       DOS:  cpu time    0.0004: real time    0.0004
    CHARGE:  cpu time    0.6643: real time    0.6645
    MIXING:  cpu time    0.0374: real time    0.0374
    --------------------------------------------
      LOOP:  cpu time    9.6046: real time    9.6118

 eigenvalue-minimisations  :   400
 total energy-change (2. order) :-0.3662346E-03  (-0.2958057E-05)
 number of electron     153.0000000 magnetization       1.0000000
 augmentation part       92.4050887 magnetization       0.0831652

 Broyden mixing:
  rms(total) = 0.68530E-03    rms(broyden)= 0.68527E-03
  rms(prec ) = 0.10152E-02
  weight for this iteration     100.00

 eigenvalues of (default mixing * dielectric matrix)
  average eigenvalue GAMMA=   1.4948
  6.6250  3.1793  2.4982  2.1331  1.4227  1.4227  0.9373  0.9373  0.7481  0.7481
  0.6977  0.6048  0.5169  0.5169  0.4557  0.4736

 Free energy of the ion-electron system (eV)
  ---------------------------------------------------
  alpha Z        PSCENC =        41.16232785
  Ewald energy   TEWEN  =     16185.14957275
  -Hartree energ DENC   =    -33164.19526061
  -exchange      EXHF   =         0.00000000
  -V(xc)+E(xc)   XCENC  =       615.36105884
  PAW double counting   =     17633.83758196   -19032.31292919
  entropy T*S    EENTRO =         0.00680667
  eigenvalues    EBANDS =      -990.03510070
  atomic energy  EATOM  =     18662.21924712
  Solvation  Ediel_sol  =         0.00000000
  ---------------------------------------------------
  free energy    TOTEN  =       -48.80669530 eV

  energy without entropy =      -48.81350198  energy(sigma->0) =      -48.80896419


--------------------------------------------------------------------------------------------------------




--------------------------------------- Iteration      1(  22)  ---------------------------------------


    POTLOK:  cpu time    1.1784: real time    1.1794
    SETDIJ:  cpu time    0.0187: real time    0.0187
    EDDIAG:  cpu time    1.1067: real time    1.1077
  RMM-DIIS:  cpu time    6.8256: real time    6.8307
    ORTHCH:  cpu time    0.0621: real time    0.0622
       DOS:  cpu time    0.0004: real time    0.0004
    CHARGE:  cpu time    0.6663: real time    0.6666
    MIXING:  cpu time    0.0390: real time    0.0390
    --------------------------------------------
      LOOP:  cpu time    9.8972: real time    9.9047

 eigenvalue-minimisations  :   405
 total energy-change (2. order) :-0.2555618E-03  (-0.2211280E-05)
 number of electron     153.0000000 magnetization       1.0000000
 augmentation part       92.4044652 magnetization       0.0831662

 Broyden mixing:
  rms(total) = 0.38370E-03    rms(broyden)= 0.38365E-03
  rms(prec ) = 0.61866E-03
  weight for this iteration     100.00

 eigenvalues of (default mixing * dielectric matrix)
  average eigenvalue GAMMA=   1.5449
  7.0586  3.9614  2.4979  2.0206  1.7270  1.3034  1.3034  0.8503  0.8503  0.7521
  0.7521  0.6560  0.5652  0.4553  0.5264  0.5094  0.4744

 Free energy of the ion-electron system (eV)
  ---------------------------------------------------
  alpha Z        PSCENC =        41.16232785
  Ewald energy   TEWEN  =     16185.14957275
  -Hartree energ DENC   =    -33164.29020096
  -exchange      EXHF   =         0.00000000
  -V(xc)+E(xc)   XCENC  =       615.36086122
  PAW double counting   =     17634.08876655   -19032.57203256
  entropy T*S    EENTRO =         0.00680837
  eigenvalues    EBANDS =      -989.93230120
  atomic energy  EATOM  =     18662.21924712
  Solvation  Ediel_sol  =         0.00000000
  ---------------------------------------------------
  free energy    TOTEN  =       -48.80695086 eV

  energy without entropy =      -48.81375924  energy(sigma->0) =      -48.80922032


--------------------------------------------------------------------------------------------------------




--------------------------------------- Iteration      1(  23)  ---------------------------------------


    POTLOK:  cpu time    1.1801: real time    1.1824
    SETDIJ:  cpu time    0.0182: real time    0.0182
    EDDIAG:  cpu time    1.1059: real time    1.1069
  RMM-DIIS:  cpu time    6.4711: real time    6.4758
    ORTHCH:  cpu time    0.0618: real time    0.0618
       DOS:  cpu time    0.0004: real time    0.0004
    CHARGE:  cpu time    0.6672: real time    0.6677
    MIXING:  cpu time    0.0413: real time    0.0413
    --------------------------------------------
      LOOP:  cpu time    9.5460: real time    9.5544

 eigenvalue-minimisations  :   405
 total energy-change (2. order) :-0.1085267E-03  (-0.6652163E-06)
 number of electron     153.0000000 magnetization       1.0000000
 augmentation part       92.4042690 magnetization       0.0831732

 Broyden mixing:
  rms(total) = 0.20664E-03    rms(broyden)= 0.20663E-03
  rms(prec ) = 0.34407E-03
  weight for this iteration     100.00

 eigenvalues of (default mixing * dielectric matrix)
  average eigenvalue GAMMA=   1.5518
  7.3192  4.2215  2.4780  2.1431  1.8596  1.3131  1.3131  0.9495  0.9495  0.7520
  0.7520  0.7100  0.6644  0.5602  0.5100  0.5100  0.4554  0.4725

 Free energy of the ion-electron system (eV)
  ---------------------------------------------------
  alpha Z        PSCENC =        41.16232785
  Ewald energy   TEWEN  =     16185.14957275
  -Hartree energ DENC   =    -33164.35951140
  -exchange      EXHF   =         0.00000000
  -V(xc)+E(xc)   XCENC  =       615.36066827
  PAW double counting   =     17634.09500775   -19032.57838441
  entropy T*S    EENTRO =         0.00680854
  eigenvalues    EBANDS =      -989.86279587
  atomic energy  EATOM  =     18662.21924712
  Solvation  Ediel_sol  =         0.00000000
  ---------------------------------------------------
  free energy    TOTEN  =       -48.80705939 eV

  energy without entropy =      -48.81386793  energy(sigma->0) =      -48.80932891


--------------------------------------------------------------------------------------------------------




--------------------------------------- Iteration      1(  24)  ---------------------------------------


    POTLOK:  cpu time    1.1796: real time    1.1805
    SETDIJ:  cpu time    0.0186: real time    0.0186
    EDDIAG:  cpu time    1.1076: real time    1.1087
  RMM-DIIS:  cpu time    6.2501: real time    6.2545
    ORTHCH:  cpu time    0.0621: real time    0.0623
       DOS:  cpu time    0.0004: real time    0.0004
    CHARGE:  cpu time    0.6681: real time    0.6684
    MIXING:  cpu time    0.0442: real time    0.0442
    --------------------------------------------
      LOOP:  cpu time    9.3306: real time    9.3376

 eigenvalue-minimisations  :   397
 total energy-change (2. order) :-0.9863637E-04  (-0.6591269E-06)
 number of electron     153.0000000 magnetization       1.0000000
 augmentation part       92.4041287 magnetization       0.0831806

 Broyden mixing:
  rms(total) = 0.20924E-03    rms(broyden)= 0.20924E-03
  rms(prec ) = 0.29964E-03
  weight for this iteration     100.00

 eigenvalues of (default mixing * dielectric matrix)
  average eigenvalue GAMMA=   1.5814
  7.6658  4.5603  2.4516  2.4516  1.8410  1.4686  1.4686  1.0380  1.0380  0.7582
  0.7582  0.7571  0.6998  0.5882  0.5485  0.4554  0.5122  0.5122  0.4728

 Free energy of the ion-electron system (eV)
  ---------------------------------------------------
  alpha Z        PSCENC =        41.16232785
  Ewald energy   TEWEN  =     16185.14957275
  -Hartree energ DENC   =    -33164.38311829
  -exchange      EXHF   =         0.00000000
  -V(xc)+E(xc)   XCENC  =       615.36091158
  PAW double counting   =     17634.03474904   -19032.51741331
  entropy T*S    EENTRO =         0.00680834
  eigenvalues    EBANDS =      -989.84024310
  atomic energy  EATOM  =     18662.21924712
  Solvation  Ediel_sol  =         0.00000000
  ---------------------------------------------------
  free energy    TOTEN  =       -48.80715803 eV

  energy without entropy =      -48.81396637  energy(sigma->0) =      -48.80942747


--------------------------------------------------------------------------------------------------------




--------------------------------------- Iteration      1(  25)  ---------------------------------------


    POTLOK:  cpu time    1.1792: real time    1.1817
    SETDIJ:  cpu time    0.0184: real time    0.0184
    EDDIAG:  cpu time    1.1058: real time    1.1067
  RMM-DIIS:  cpu time    6.2512: real time    6.2557
    ORTHCH:  cpu time    0.0620: real time    0.0620
       DOS:  cpu time    0.0004: real time    0.0004
    CHARGE:  cpu time    0.6639: real time    0.6644
    MIXING:  cpu time    0.0456: real time    0.0456
    --------------------------------------------
      LOOP:  cpu time    9.3265: real time    9.3348

 eigenvalue-minimisations  :   395
 total energy-change (2. order) :-0.6323637E-04  (-0.5291000E-06)
 number of electron     153.0000000 magnetization       1.0000000
 augmentation part       92.4043251 magnetization       0.0831913

 Broyden mixing:
  rms(total) = 0.12108E-03    rms(broyden)= 0.12106E-03
  rms(prec ) = 0.18011E-03
  weight for this iteration     100.00

 eigenvalues of (default mixing * dielectric matrix)
  average eigenvalue GAMMA=   1.6064
  7.8828  4.9199  2.6199  2.6199  1.8177  1.8177  1.2935  1.2935  0.9339  0.9339
  0.7556  0.7556  0.6949  0.6949  0.5925  0.5547  0.4554  0.5097  0.5097  0.4730

 Free energy of the ion-electron system (eV)
  ---------------------------------------------------
  alpha Z        PSCENC =        41.16232785
  Ewald energy   TEWEN  =     16185.14957275
  -Hartree energ DENC   =    -33164.37263980
  -exchange      EXHF   =         0.00000000
  -V(xc)+E(xc)   XCENC  =       615.36078005
  PAW double counting   =     17633.93540264   -19032.41391667
  entropy T*S    EENTRO =         0.00680884
  eigenvalues    EBANDS =      -989.85480403
  atomic energy  EATOM  =     18662.21924712
  Solvation  Ediel_sol  =         0.00000000
  ---------------------------------------------------
  free energy    TOTEN  =       -48.80722126 eV

  energy without entropy =      -48.81403010  energy(sigma->0) =      -48.80949088


--------------------------------------------------------------------------------------------------------




--------------------------------------- Iteration      1(  26)  ---------------------------------------


    POTLOK:  cpu time    1.1783: real time    1.1791
    SETDIJ:  cpu time    0.0183: real time    0.0183
    EDDIAG:  cpu time    1.1069: real time    1.1076
  RMM-DIIS:  cpu time    6.4123: real time    6.4176
    ORTHCH:  cpu time    0.0601: real time    0.0601
       DOS:  cpu time    0.0004: real time    0.0004
    CHARGE:  cpu time    0.6630: real time    0.6637
    MIXING:  cpu time    0.0485: real time    0.0486
    --------------------------------------------
      LOOP:  cpu time    9.4876: real time    9.4953

 eigenvalue-minimisations  :   386
 total energy-change (2. order) :-0.3202906E-04  (-0.2924448E-06)
 number of electron     153.0000000 magnetization       1.0000000
 augmentation part       92.4045962 magnetization       0.0831830

 Broyden mixing:
  rms(total) = 0.94645E-04    rms(broyden)= 0.94643E-04
  rms(prec ) = 0.12909E-03
  weight for this iteration     100.00

 eigenvalues of (default mixing * dielectric matrix)
  average eigenvalue GAMMA=   1.6274
  8.0468  5.3166  3.0319  2.5245  1.9036  1.9036  1.3601  1.3601  1.0037  1.0037
  0.7678  0.7678  0.7262  0.7262  0.6173  0.6173  0.5517  0.4553  0.5088  0.5088
  0.4729

 Free energy of the ion-electron system (eV)
  ---------------------------------------------------
  alpha Z        PSCENC =        41.16232785
  Ewald energy   TEWEN  =     16185.14957275
  -Hartree energ DENC   =    -33164.36025025
  -exchange      EXHF   =         0.00000000
  -V(xc)+E(xc)   XCENC  =       615.36044321
  PAW double counting   =     17633.88673831   -19032.36180434
  entropy T*S    EENTRO =         0.00680862
  eigenvalues    EBANDS =      -989.87033657
  atomic energy  EATOM  =     18662.21924712
  Solvation  Ediel_sol  =         0.00000000
  ---------------------------------------------------
  free energy    TOTEN  =       -48.80725329 eV

  energy without entropy =      -48.81406192  energy(sigma->0) =      -48.80952283


--------------------------------------------------------------------------------------------------------




--------------------------------------- Iteration      1(  27)  ---------------------------------------


    POTLOK:  cpu time    1.1771: real time    1.1779
    SETDIJ:  cpu time    0.0179: real time    0.0181
    EDDIAG:  cpu time    1.1086: real time    1.1093
  RMM-DIIS:  cpu time    5.2033: real time    5.2070
    ORTHCH:  cpu time    0.0603: real time    0.0604
       DOS:  cpu time    0.0004: real time    0.0004
    CHARGE:  cpu time    0.6648: real time    0.6651
    MIXING:  cpu time    0.0515: real time    0.0516
    --------------------------------------------
      LOOP:  cpu time    8.2839: real time    8.2896

 eigenvalue-minimisations  :   301
 total energy-change (2. order) :-0.1377852E-04  (-0.1277449E-06)
 number of electron     153.0000000 magnetization       1.0000000
 augmentation part       92.4044067 magnetization       0.0831652

 Broyden mixing:
  rms(total) = 0.53645E-04    rms(broyden)= 0.53636E-04
  rms(prec ) = 0.79531E-04
  weight for this iteration     100.00

 eigenvalues of (default mixing * dielectric matrix)
  average eigenvalue GAMMA=   1.6286
  8.0996  5.6493  3.1885  2.5179  2.0050  1.8844  1.3916  1.3916  1.0624  0.9784
  0.9784  0.7584  0.7584  0.7357  0.7357  0.6021  0.5723  0.5723  0.4553  0.4728
  0.5090  0.5090

 Free energy of the ion-electron system (eV)
  ---------------------------------------------------
  alpha Z        PSCENC =        41.16232785
  Ewald energy   TEWEN  =     16185.14957275
  -Hartree energ DENC   =    -33164.36918303
  -exchange      EXHF   =         0.00000000
  -V(xc)+E(xc)   XCENC  =       615.36059725
  PAW double counting   =     17633.88703363   -19032.36374317
  entropy T*S    EENTRO =         0.00680856
  eigenvalues    EBANDS =      -989.85992802
  atomic energy  EATOM  =     18662.21924712
  Solvation  Ediel_sol  =         0.00000000
  ---------------------------------------------------
  free energy    TOTEN  =       -48.80726707 eV

  energy without entropy =      -48.81407563  energy(sigma->0) =      -48.80953659


--------------------------------------------------------------------------------------------------------




--------------------------------------- Iteration      1(  28)  ---------------------------------------


    POTLOK:  cpu time    1.1759: real time    1.1772
    SETDIJ:  cpu time    0.0181: real time    0.0181
    EDDIAG:  cpu time    1.1032: real time    1.1040
  RMM-DIIS:  cpu time    4.4979: real time    4.5013
    ORTHCH:  cpu time    0.0605: real time    0.0605
       DOS:  cpu time    0.0005: real time    0.0005
    CHARGE:  cpu time    0.6660: real time    0.6667
    MIXING:  cpu time    0.0557: real time    0.0557
[...]
     66      -4.9060      1.00000
     67      -4.8988      1.00000
     68      -4.8713      1.00000
     69      -4.8515      1.00000
     70      -4.8335      1.00000
     71      -4.8242      1.00000
     72      -4.7947      1.00000
     73      -4.7253      1.00000
     74      -4.4609      1.00000
     75      -4.2542      1.00000
     76      -4.1060      1.00000
     77      -3.5930      1.00000
     78      -3.0287     -0.00000
     79      -2.8838     -0.00000
     80      -2.5550     -0.00000
     81      -2.4280     -0.00000
     82      -1.9802     -0.00000
     83      -1.9373     -0.00000
     84      -1.6399     -0.00000
     85      -1.4924     -0.00000
     86      -1.1893     -0.00000
     87      -0.8939     -0.00000
     88      -0.6561      0.00000
     89      -0.4448      0.00000
     90      -0.3053      0.00000
     91       0.0136      0.00000
     92       0.1478      0.00000

 spin component 2

 k-point     1 :       0.0000    0.0000    0.0000
  band No.  band energies     occupation 
      1     -28.3672      1.00000
      2     -13.9135      1.00000
      3     -11.3385      1.00000
      4     -11.0921      1.00000
      5     -11.0015      1.00000
      6     -10.0892      1.00000
      7      -8.5587      1.00000
      8      -8.1924      1.00000
      9      -7.6165      1.00000
     10      -7.4467      1.00000
     11      -7.4153      1.00000
     12      -7.3140      1.00000
     13      -7.2408      1.00000
     14      -7.1543      1.00000
     15      -7.0172      1.00000
     16      -6.8947      1.00000
     17      -6.8328      1.00000
     18      -6.7567      1.00000
     19      -6.6926      1.00000
     20      -6.6346      1.00000
     21      -6.5895      1.00000
     22      -6.5662      1.00000
     23      -6.5385      1.00000
     24      -6.4456      1.00000
     25      -6.3739      1.00000
     26      -6.3534      1.00000
     27      -6.3173      1.00000
     28      -6.2944      1.00000
     29      -6.2605      1.00000
     30      -6.1602      1.00000
     31      -6.1106      1.00000
     32      -6.1003      1.00000
     33      -6.0294      1.00000
     34      -5.9823      1.00000
     35      -5.9492      1.00000
     36      -5.8274      1.00000
     37      -5.7626      1.00000
     38      -5.7164      1.00000
     39      -5.6797      1.00000
     40      -5.6215      1.00000
     41      -5.5384      1.00000
     42      -5.5160      1.00000
     43      -5.4858      1.00000
     44      -5.4646      1.00000
     45      -5.4499      1.00000
     46      -5.4047      1.00000
     47      -5.3671      1.00000
     48      -5.3349      1.00000
     49      -5.3205      1.00000
     50      -5.2903      1.00000
     51      -5.2713      1.00000
     52      -5.2617      1.00000
     53      -5.2131      1.00000
     54      -5.1987      1.00000
     55      -5.1817      1.00000
     56      -5.1371      1.00000
     57      -5.1227      1.00000
     58      -5.1042      1.00000
     59      -5.0702      1.00000
     60      -5.0390      1.00000
     61      -5.0257      1.00000
     62      -5.0021      1.00000
     63      -4.9750      1.00000
     64      -4.9713      1.00000
     65      -4.9153      1.00000
     66      -4.8771      1.00000
     67      -4.8518      1.00000
     68      -4.8402      1.00000
     69      -4.8200      1.00000
     70      -4.8049      1.00000
     71      -4.7980      1.00000
     72      -4.7618      1.00000
     73      -4.7040      1.00000
     74      -4.4198      1.00000
     75      -4.1922      1.00685
     76      -4.0687      0.99315
     77      -3.3772     -0.00000
     78      -2.9850     -0.00000
     79      -2.8318     -0.00000
     80      -2.4936     -0.00000
     81      -2.3419     -0.00000
     82      -1.9126     -0.00000
     83      -1.8964     -0.00000
     84      -1.5680     -0.00000
     85      -1.4067     -0.00000
     86      -1.0277      0.00000
     87      -0.8337      0.00000
     88      -0.5907      0.00000
     89      -0.3399      0.00000
     90      -0.2345      0.00000
     91      -0.0890      0.00000
     92       0.1936      0.00000


--------------------------------------------------------------------------------------------------------


 soft charge-density along one line, spin component           1
         0         1         2         3         4         5         6         7         8         9
 total charge-density along one line
 
 soft charge-density along one line, spin component           2
         0         1         2         3         4         5         6         7         8         9
 total charge-density along one line
 
 pseudopotential strength for first ion, spin component:           1
-10.505  -0.000  -0.008  -0.007  -0.009   1.009   0.000   0.008
 -0.000 -10.481  -0.009  -0.001   0.015   0.000   0.991   0.007
 -0.008  -0.009 -10.460   0.001  -0.006   0.008   0.007   0.974
 -0.007  -0.001   0.001 -10.465  -0.009   0.005  -0.001  -0.000
 -0.009   0.015  -0.006  -0.009 -10.491   0.006  -0.011   0.006
  1.009   0.000   0.008   0.005   0.006   6.300   0.000  -0.008
  0.000   0.991   0.007  -0.001  -0.011   0.000   6.311  -0.005
  0.008   0.007   0.974  -0.000   0.006  -0.008  -0.005   6.323
  0.005  -0.001  -0.000   0.977   0.006  -0.003   0.003   0.000
  0.006  -0.011   0.006   0.006   0.999  -0.005   0.007  -0.005
 -0.005   0.003  -0.005   0.001  -0.003   0.006   0.000  -0.000
 -0.010   0.006  -0.010   0.001  -0.007   0.011   0.000  -0.001
 -0.013   0.000   0.005  -0.000   0.010   0.009   0.001  -0.004
 -0.000  -0.008   0.000  -0.013  -0.000   0.001   0.005   0.000
 -0.007  -0.000   0.008   0.000  -0.013   0.004   0.001  -0.006
 -0.014   0.001   0.006  -0.001   0.011   0.009   0.001  -0.005
 -0.001  -0.008   0.000  -0.013  -0.000   0.001   0.005   0.000
 -0.007  -0.001   0.008   0.001  -0.014   0.003   0.001  -0.007
 pseudopotential strength for first ion, spin component:           2
-10.463  -0.007  -0.000  -0.014   0.004   0.976   0.005   0.001
 -0.007 -10.466  -0.010  -0.000   0.010   0.005   0.977   0.008
 -0.000  -0.010 -10.447  -0.001  -0.004   0.001   0.008   0.963
 -0.014  -0.000  -0.001 -10.451  -0.011   0.011  -0.001   0.001
  0.004   0.010  -0.004  -0.011 -10.476  -0.003  -0.008   0.003
  0.976   0.005   0.001   0.011  -0.003   6.322  -0.003  -0.001
  0.005   0.977   0.008  -0.001  -0.008  -0.003   6.318  -0.005
  0.001   0.008   0.963   0.001   0.003  -0.001  -0.005   6.328
  0.011  -0.001   0.001   0.965   0.008  -0.006   0.001  -0.000
 -0.003  -0.008   0.003   0.008   0.986   0.002   0.004  -0.003
 -0.001   0.003  -0.003   0.001  -0.002   0.001   0.001  -0.002
 -0.002   0.005  -0.005   0.002  -0.004   0.002   0.002  -0.003
 -0.015   0.001   0.006   0.001   0.009   0.013  -0.000  -0.005
  0.001  -0.009   0.001  -0.014   0.000  -0.000   0.007  -0.001
 -0.010   0.001   0.008   0.001  -0.014   0.008  -0.000  -0.008
 -0.017   0.002   0.007   0.001   0.010   0.014  -0.001  -0.006
  0.001  -0.010   0.002  -0.016   0.000  -0.000   0.008  -0.002
 -0.011   0.001   0.010   0.003  -0.016   0.009  -0.000  -0.009
 total augmentation occupancy for first ion, spin component:           1
  1.934   0.006  -0.008   0.001  -0.005  -0.013  -0.000   0.005   0.002   0.002  -0.009   0.011   0.040   0.002   0.033  -0.021
  0.006   1.931  -0.006   0.006   0.001  -0.000  -0.016   0.004   0.001  -0.004   0.001  -0.003   0.010   0.048   0.000  -0.001
 -0.008  -0.006   1.948   0.003  -0.004   0.005   0.004  -0.027  -0.003   0.000  -0.005   0.009  -0.009   0.002  -0.025   0.007
  0.001   0.006   0.003   1.941  -0.005   0.002   0.001  -0.003  -0.024   0.005   0.010   0.001   0.007   0.054   0.009  -0.000
 -0.005   0.001  -0.004  -0.005   1.939   0.002  -0.004   0.000   0.005  -0.012  -0.007   0.006  -0.013   0.007   0.039   0.013
 -0.013  -0.000   0.005   0.002   0.002   0.014   0.000   0.001   0.001   0.001  -0.013  -0.001   0.023   0.003   0.010  -0.001
 -0.000  -0.016   0.004   0.001  -0.004   0.000   0.008  -0.000   0.002  -0.001   0.024  -0.002   0.002   0.014   0.003  -0.000
  0.005   0.004  -0.027  -0.003   0.000   0.001  -0.000   0.007  -0.000   0.001  -0.039   0.005  -0.006  -0.001  -0.010   0.001
  0.002   0.001  -0.003  -0.024   0.005   0.001   0.002  -0.000   0.008  -0.000   0.004   0.001   0.002   0.019   0.001  -0.000
  0.002  -0.004   0.000   0.005  -0.012   0.001  -0.001   0.001  -0.000   0.012  -0.011   0.000  -0.020  -0.003   0.022   0.001
 -0.009   0.001  -0.005   0.010  -0.007  -0.013   0.024  -0.039   0.004  -0.011   1.626  -0.114   0.134   0.023   0.195  -0.018
  0.011  -0.003   0.009   0.001   0.006  -0.001  -0.002   0.005   0.001   0.000  -0.114   0.013  -0.019   0.001  -0.026   0.002
  0.040   0.010  -0.009   0.007  -0.013   0.023   0.002  -0.006   0.002  -0.020   0.134  -0.019   0.173   0.013  -0.029  -0.011
  0.002   0.048   0.002   0.054   0.007   0.003   0.014  -0.001   0.019  -0.003   0.023   0.001   0.013   0.084  -0.003  -0.001
  0.033   0.000  -0.025   0.009   0.039   0.010   0.003  -0.010   0.001   0.022   0.195  -0.026  -0.029  -0.003   0.138   0.000
 -0.021  -0.001   0.007  -0.000   0.013  -0.001  -0.000   0.001  -0.000   0.001  -0.018   0.002  -0.011  -0.001   0.000   0.001
 -0.000  -0.014  -0.001  -0.022  -0.000  -0.000  -0.001   0.000  -0.001   0.000  -0.000  -0.000  -0.001  -0.005   0.000   0.000
 -0.014  -0.000   0.011  -0.001  -0.020  -0.000  -0.000   0.001  -0.000  -0.001  -0.026   0.003   0.000   0.000  -0.010   0.000
 total augmentation occupancy for first ion, spin component:           2
  0.017  -0.005   0.002  -0.005   0.007  -0.003   0.001  -0.002   0.001  -0.002   0.036   0.007  -0.012   0.007  -0.017  -0.001
 -0.005   0.002  -0.001   0.002  -0.002   0.001   0.001   0.000   0.000   0.001  -0.010  -0.002   0.004  -0.004   0.004   0.000
  0.002  -0.001   0.001  -0.001   0.001  -0.002   0.000   0.002   0.000  -0.001   0.006   0.000  -0.000   0.004  -0.001   0.000
 -0.005   0.002  -0.001   0.003  -0.002   0.001   0.000   0.000   0.002   0.000  -0.010  -0.002   0.003  -0.006   0.006   0.000
  0.007  -0.002   0.001  -0.002   0.002  -0.002   0.001  -0.001   0.000   0.002   0.014   0.002  -0.002   0.002  -0.009  -0.000
 -0.003   0.001  -0.002   0.001  -0.002   0.001  -0.000   0.000  -0.000   0.000  -0.008  -0.001   0.002  -0.002   0.004   0.000
  0.001   0.001   0.000   0.000   0.001  -0.000  -0.000  -0.000  -0.000  -0.000   0.002   0.000  -0.000   0.000  -0.001  -0.000
 -0.002   0.000   0.002   0.000  -0.001   0.000  -0.000  -0.000  -0.000   0.000  -0.002  -0.000   0.000  -0.000   0.001   0.000
  0.001   0.000   0.000   0.002   0.000  -0.000  -0.000  -0.000  -0.000  -0.000   0.002   0.000  -0.001   0.000  -0.001  -0.000
 -0.002   0.001  -0.001   0.000   0.002   0.000  -0.000   0.000  -0.000  -0.000  -0.003  -0.000   0.001  -0.001   0.001  -0.000
  0.036  -0.010   0.006  -0.010   0.014  -0.008   0.002  -0.002   0.002  -0.003   0.087   0.005  -0.021   0.017  -0.037  -0.000
  0.007  -0.002   0.000  -0.002   0.002  -0.001   0.000  -0.000   0.000  -0.000   0.005   0.001  -0.001   0.001  -0.002  -0.000
 -0.012   0.004  -0.000   0.003  -0.002   0.002  -0.000   0.000  -0.001   0.001  -0.021  -0.001   0.005  -0.003   0.006   0.000
  0.007  -0.004   0.004  -0.006   0.002  -0.002   0.000  -0.000   0.000  -0.001   0.017   0.001  -0.003   0.003  -0.005  -0.000
 -0.017   0.004  -0.001   0.006  -0.009   0.004  -0.001   0.001  -0.001   0.001  -0.037  -0.002   0.006  -0.005   0.012   0.000
 -0.001   0.000   0.000   0.000  -0.000   0.000  -0.000   0.000  -0.000  -0.000  -0.000  -0.000   0.000  -0.000   0.000   0.000
  0.000  -0.001   0.000  -0.001   0.000   0.000  -0.000  -0.000   0.000  -0.000  -0.000   0.000  -0.000   0.000  -0.000  -0.000
 -0.001   0.000   0.000   0.001  -0.001   0.000   0.000   0.000  -0.000   0.000  -0.000  -0.000   0.000  -0.000   0.000   0.000


------------------------ aborting loop because EDIFF is reached ----------------------------------------


    CHARGE:  cpu time    0.6657: real time    0.6664
    FORLOC:  cpu time    0.0664: real time    0.0664
    FORNL :  cpu time    1.5346: real time    1.5354
    STRESS:  cpu time    5.8070: real time    5.8105
    FORCOR:  cpu time    1.1824: real time    1.1831
    FORHAR:  cpu time    0.1882: real time    0.1884
    MIXING:  cpu time    0.1207: real time    0.1207
    OFIELD:  cpu time    0.0001: real time    0.0001

  FORCE on cell =-STRESS in cart. coord.  units (eV):
  Direction    XX          YY          ZZ          XY          YZ          ZX
  --------------------------------------------------------------------------------------
  Alpha Z    41.16233    41.16233    41.16233
  Ewald   10101.78140  7469.13522 -1385.78289  -694.10003   381.25987    30.48082
  Hartree 15268.89537 12945.95630  4949.52522  -617.47549   331.75429   -83.05106
  E(xc)    -876.42527  -877.63110  -879.09638    -0.10035     0.06942     0.60932
  Local  -26771.71555-21846.73902 -4993.84974  1311.13800  -711.66122    69.13209
  n-local  -328.77542  -322.75204  -328.20221    -1.26876     0.29947    -1.68473
  augment  1223.11716  1226.77797  1231.37377     0.07619    -0.87834    -2.74766
  Kinetic  1339.87966  1362.99761  1364.86880     0.47269    -0.69365   -11.51565
  Fock        0.00000     0.00000     0.00000     0.00000     0.00000     0.00000
  -------------------------------------------------------------------------------------
  Total      -2.08032    -1.09273    -0.00110    -1.25775     0.14984     1.22313
  in kB      -0.98757    -0.51874    -0.00052    -0.59708     0.07113     0.58064
  external pressure =       -0.50 kB  Pullay stress =        0.00 kB


 VOLUME and BASIS-vectors are now :
 -----------------------------------------------------------------------------
  energy-cutoff  :      600.00
  volume of cell :     3375.00
      direct lattice vectors                 reciprocal lattice vectors
    15.000000000  0.000000000  0.000000000     0.066666667  0.000000000  0.000000000
     0.000000000 15.000000000  0.000000000     0.000000000  0.066666667  0.000000000
     0.000000000  0.000000000 15.000000000     0.000000000  0.000000000  0.066666667

  length of vectors
    15.000000000 15.000000000 15.000000000     0.066666667  0.066666667  0.066666667


 FORCES acting on ions
    electron-ion (+dipol)            ewald-force                    non-local-force                 convergence-correction
 -----------------------------------------------------------------------------------------------
   0.107E+04 0.738E+03 -.113E+03   -.106E+04 -.734E+03 0.113E+03   -.530E+01 -.353E+01 -.105E+01   0.178E-04 0.364E-04 -.320E-05
   0.512E+03 -.268E+03 0.891E+03   -.510E+03 0.265E+03 -.891E+03   -.195E+01 0.222E+01 0.338E+00   0.155E-05 -.189E-04 0.197E-04
   0.234E+03 0.127E+04 -.130E+03   -.233E+03 -.126E+04 0.129E+03   -.166E+01 -.934E+01 0.170E+01   0.130E-04 0.266E-04 0.219E-05
   -.787E+03 -.171E+03 0.930E+03   0.786E+03 0.170E+03 -.926E+03   0.149E+01 0.313E+00 -.429E+01   -.228E-04 -.335E-05 0.321E-04
   -.867E+03 0.954E+03 0.156E+03   0.863E+03 -.948E+03 -.155E+03   0.450E+01 -.619E+01 -.135E+01   -.192E-04 0.187E-04 0.730E-05
   -.210E+03 0.508E+03 -.931E+03   0.209E+03 -.505E+03 0.930E+03   0.238E+01 -.238E+01 0.736E+00   -.973E-05 0.268E-04 -.925E-05
   0.191E+03 0.624E+03 0.120E+04   -.190E+03 -.619E+03 -.119E+04   -.137E+01 -.414E+01 -.605E+01   0.190E-05 0.290E-04 0.316E-04
   0.125E+04 -.306E+03 0.126E+03   -.124E+04 0.304E+03 -.123E+03   -.962E+01 0.188E+01 -.309E+01   0.924E-05 -.105E-04 -.179E-05
   0.534E+03 -.176E+03 -.124E+04   -.532E+03 0.175E+03 0.123E+04   -.224E+01 0.121E+01 0.696E+01   0.142E-04 -.620E-05 -.372E-04
   0.493E+03 -.125E+04 -.176E+03   -.491E+03 0.124E+04 0.174E+03   -.275E+01 0.689E+01 0.164E+01   0.112E-05 -.404E-04 0.385E-05
   -.395E+03 -.108E+04 0.731E+03   0.392E+03 0.108E+04 -.725E+03   0.293E+01 0.671E+01 -.685E+01   -.104E-04 -.296E-04 0.201E-04
   -.884E+03 -.287E+02 -.263E+03   0.882E+03 0.273E+02 0.261E+03   0.130E+01 0.134E+01 0.209E+01   -.215E-05 0.233E-05 0.905E-05
   -.570E+03 -.748E+03 -.838E+03   0.567E+03 0.744E+03 0.834E+03   0.331E+01 0.292E+01 0.381E+01   -.163E-04 -.351E-04 -.959E-05
   -.125E+03 -.553E+02 -.926E+02   0.107E+03 0.561E+02 0.852E+02   0.184E+02 -.114E+01 0.796E+01   0.137E-06 -.976E-06 -.193E-05
   -.398E+03 -.856E+01 -.228E+03   0.450E+03 0.565E+01 0.252E+03   -.537E+02 0.313E+01 -.247E+02   -.321E-06 -.102E-05 -.588E-05
 -----------------------------------------------------------------------------------------------
   0.443E+02 0.115E+00 0.221E+02   -.568E-13 0.188E-12 0.568E-13   -.443E+02 -.114E+00 -.221E+02   -.219E-04 -.607E-05 0.571E-04
 
 
 POSITION                                       TOTAL-FORCE (eV/Angst)
 -----------------------------------------------------------------------------------
      4.41445      6.16962      8.54409        -0.096957     -0.147251     -0.519809
      5.60069      8.13662      7.43173        -0.292687     -0.123733     -0.120812
      6.02720      4.27928      8.32918         0.154800      0.145582      0.160516
      7.95860      7.69727      7.12323         0.001239     -0.174158      0.077106
      8.34581      5.33629      7.93966         0.066495      0.146986     -0.157765
      6.70131      6.49158      9.16965         0.541305      0.202952     -0.178838
      6.32949      5.94577      6.65651        -0.159000      0.088983      0.372411
      3.29516      8.48182      8.35951         0.032486     -0.019424     -0.278496
      5.00301      8.06082      9.83589         0.513948      0.324919      0.423487
      5.19720     10.15120      8.57749        -0.197390      0.265804      0.078582
      7.17152     10.02690      7.11262        -0.047801      0.044973     -0.121108
      9.49703      7.43405      8.88333        -0.723706     -0.053224      0.003580
      7.28169      8.96754      9.18710        -0.059489     -0.585020      0.117952
     10.99700      7.71096      9.84098         1.176708     -0.339069      0.549063
     12.05540      7.65682     10.32670        -0.909952      0.221679     -0.405866
 -----------------------------------------------------------------------------------
    total drift:                               -0.001714      0.000800     -0.000453


--------------------------------------------------------------------------------------------------------



  FREE ENERGIE OF THE ION-ELECTRON SYSTEM (eV)
  ---------------------------------------------------
  free  energy   TOTEN  =       -48.80727994 eV

  energy  without entropy=      -48.81408840  energy(sigma->0) =      -48.80954943
 


--------------------------------------------------------------------------------------------------------


    POTLOK:  cpu time    1.1992: real time    1.1999


--------------------------------------------------------------------------------------------------------


     LOOP+:  cpu time  353.8268: real time  354.1879
    4ORBIT:  cpu time    0.0000: real time    0.0000

 total amount of memory used by VASP MPI-rank0   158680. kBytes
=======================================================================

   base      :      30000. kBytes
   nonl-proj :      12601. kBytes
   fftplans  :      27994. kBytes
   grid      :      74150. kBytes
   one-center:         93. kBytes
   wavefun   :      13842. kBytes
 
  
  
 General timing and accounting informations for this job:
 ========================================================
  
                  Total CPU time used (sec):      357.793
                            User time (sec):      345.807
                          System time (sec):       11.985
                         Elapsed time (sec):      358.191
  
                   Maximum memory used (kb):      280720.
                   Average memory used (kb):           0.
  
                          Minor page faults:       294546
                          Major page faults:            0
                 Voluntary context switches:          690
