<?xml version="1.0" encoding="ISO-8859-1"?>
<modeling>
 <generator>
  <i name="program" type="string">vasp </i>
  <i name="version" type="string">5.4.4.18Apr17-6-g9f103f2a35  </i>
  <i name="subversion" type="string">(build May 08 2019 13:49:07) complex            parallel </i>
  <i name="platform" type="string">LinuxIFC </i>
  <i name="date" type="string">2019 11 13 </i>
  <i name="time" type="string">13:52:42 </i>
 </generator>
 <incar>
  <i type="string" name="SYSTEM"> CuCO</i>
  <i type="int" name="ISTART">     0</i>
  <i type="string" name="PREC">accurate</i>
  <i type="string" name="ALGO"> Fast</i>
  <i type="int" name="ISPIN">     2</i>
  <i type="int" name="INIWAV">     1</i>
  <i type="int" name="NELM">   300</i>
  <i type="int" name="NELMIN">     3</i>
  <i type="int" name="IBRION">    -1</i>
  <i name="EDIFF">      0.00000010</i>
  <i name="EDIFFG">     -0.00100000</i>
  <i type="int" name="NSW">     0</i>
  <i type="int" name="ISYM">     0</i>
  <i name="ENCUT">    600.00000000</i>
  <i name="NUPDOWN">      1.00000000</i>
  <i type="logical" name="LREAL"> F  </i>
  <i type="int" name="ISMEAR">     1</i>
  <i name="SIGMA">      0.10000000</i>
  <i name="KSPACING">      0.50000000</i>
  <i type="logical" name="KGAMMA"> F  </i>
  <i type="logical" name="LWAVE"> F  </i>
  <i type="logical" name="LCHARG"> F  </i>
  <v type="int" name="KPOINT_BSE">    -1     0     0     0</v>
  <i type="int" name="NELM">   300</i>
  <i type="string" name="GGA"> PE</i>
 </incar>
 <structure name="primitive_cell" >
  <crystal>
   <varray name="basis" >
    <v>      15.00000000       0.00000000       0.00000000 </v>
    <v>       0.00000000      15.00000000       0.00000000 </v>
    <v>       0.00000000       0.00000000      15.00000000 </v>
   </varray>
   <i name="volume">   3375.00000000 </i>
   <varray name="rec_basis" >
    <v>       0.06666667       0.00000000       0.00000000 </v>
    <v>       0.00000000       0.06666667       0.00000000 </v>
    <v>       0.00000000       0.00000000       0.06666667 </v>
   </varray>
  </crystal>
  <varray name="positions" >
   <v>       0.29675267       0.42291000      -0.44406267 </v>
   <v>       0.22744933      -0.44302200      -0.44421933 </v>
   <v>       0.40490600       0.40437933       0.44961333 </v>
   <v>       0.37407933      -0.45549000       0.49104600 </v>
   <v>       0.38780200       0.29276467      -0.44695933 </v>
   <v>       0.45187533       0.43106800      -0.39018600 </v>
   <v>       0.34249467      -0.45017667      -0.33186000 </v>
   <v>       0.35038067      -0.32565333      -0.43429067 </v>
   <v>      -0.47042667      -0.48995133       0.48549400 </v>
   <v>       0.49086067      -0.40552400      -0.38063867 </v>
   <v>      -0.44382067       0.35646533      -0.47374933 </v>
   <v>       0.47285200      -0.33615000       0.46767800 </v>
   <v>      -0.36741000       0.48105000      -0.40062333 </v>
   <v>      -0.25400667       0.49548067      -0.35869133 </v>
   <v>      -0.19108667      -0.49181933      -0.31601333 </v>
  </varray>
 </structure>
 <varray name="primitive_index" >
  <v type="int" >        1 </v>
  <v type="int" >        8 </v>
  <v type="int" >        7 </v>
  <v type="int" >        2 </v>
  <v type="int" >        3 </v>
  <v type="int" >        6 </v>
  <v type="int" >        9 </v>
  <v type="int" >       10 </v>
  <v type="int" >        4 </v>
  <v type="int" >       13 </v>
  <v type="int" >        5 </v>
  <v type="int" >       11 </v>
  <v type="int" >       12 </v>
  <v type="int" >       14 </v>
  <v type="int" >       15 </v>
 </varray>
 <kpoints>
  <generation param="Monkhorst-Pack">
   <v type="int" name="divisions">       1        1        1 </v>
   <v name="usershift">      0.00000000       0.00000000       0.00000000 </v>
   <v name="genvec1">      1.00000000       0.00000000       0.00000000 </v>
   <v name="genvec2">      0.00000000       1.00000000       0.00000000 </v>
   <v name="genvec3">      0.00000000       0.00000000       1.00000000 </v>
   <v name="shift">      0.00000000       0.00000000       0.00000000 </v>
  </generation>
  <varray name="kpointlist" >
   <v>       0.00000000       0.00000000       0.00000000 </v>
  </varray>
  <varray name="weights" >
   <v>       1.00000000 </v>
  </varray>
 </kpoints>
 <parameters>
  <separator name="general" >
   <i type="string" name="SYSTEM">CuCO</i>
   <i type="logical" name="LCOMPAT"> F  </i>
  </separator>
  <separator name="electronic" >
   <i type="string" name="PREC">accura</i>
   <i name="ENMAX">    600.00000000</i>
   <i name="ENAUG">    644.87300000</i>
   <i name="EDIFF">      0.00000010</i>
   <i type="int" name="IALGO">    68</i>
   <i type="int" name="IWAVPR">    10</i>
   <i type="int" name="NBANDS">    92</i>
   <i name="NELECT">    153.00000000</i>
   <i type="int" name="TURBO">     0</i>
   <i type="int" name="IRESTART">     0</i>
   <i type="int" name="NREBOOT">     0</i>
   <i type="int" name="NMIN">     0</i>
   <i name="EREF">      0.00000000</i>
   <separator name="electronic smearing" >
    <i type="int" name="ISMEAR">     1</i>
    <i name="SIGMA">      0.10000000</i>
    <i name="KSPACING">      0.50000000</i>
    <i type="logical" name="KGAMMA"> F  </i>
   </separator>
   <separator name="electronic projectors" >
    <i type="logical" name="LREAL"> F  </i>
    <v name="ROPT">      0.00000000      0.00000000      0.00000000</v>
    <i type="int" name="LMAXPAW">  -100</i>
    <i type="int" name="LMAXMIX">     2</i>
    <i type="logical" name="NLSPLINE"> F  </i>
   </separator>
   <separator name="electronic startup" >
    <i type="int" name="ISTART">     0</i>
    <i type="int" name="ICHARG">     2</i>
    <i type="int" name="INIWAV">     1</i>
   </separator>
   <separator name="electronic spin" >
    <i type="int" name="ISPIN">     2</i>
    <i type="logical" name="LNONCOLLINEAR"> F  </i>
    <v name="MAGMOM">      0.06666667      0.06666667      0.06666667      0.06666667      0.06666667      0.06666667      0.06666667      0.06666667      0.06666667      0.06666667      0.06666667      0.06666667      0.06666667      0.06666667      0.06666667</v>
    <i name="NUPDOWN">      1.00000000</i>
    <i type="logical" name="LSORBIT"> F  </i>
    <v name="SAXIS">      0.00000000      0.00000000      1.00000000</v>
    <i type="logical" name="LSPIRAL"> F  </i>
    <v name="QSPIRAL">      0.00000000      0.00000000      0.00000000</v>
    <i type="logical" name="LZEROZ"> F  </i>
   </separator>
   <separator name="electronic exchange-correlation" >
    <i type="logical" name="LASPH"> F  </i>
    <i type="logical" name="LMETAGGA"> F  </i>
   </separator>
   <separator name="electronic convergence" >
    <i type="int" name="NELM">   300</i>
    <i type="int" name="NELMDL">    -5</i>
    <i type="int" name="NELMIN">     3</i>
    <i name="ENINI">    600.00000000</i>
    <separator name="electronic convergence detail" >
     <i type="logical" name="LDIAG"> T  </i>
     <i type="logical" name="LSUBROT"> F  </i>
     <i name="WEIMIN">      0.00000000</i>
     <i name="EBREAK">      0.00000000</i>
     <i name="DEPER">      0.30000000</i>
     <i type="int" name="NRMM">     4</i>
     <i name="TIME">      0.40000000</i>
    </separator>
   </separator>
   <separator name="electronic mixer" >
    <i name="AMIX">      0.40000000</i>
    <i name="BMIX">      1.00000000</i>
    <i name="AMIN">      0.10000000</i>
    <i name="AMIX_MAG">      1.60000000</i>
    <i name="BMIX_MAG">      1.00000000</i>
    <separator name="electronic mixer details" >
     <i type="int" name="IMIX">     4</i>
     <i type="logical" name="MIXFIRST"> F  </i>
     <i type="int" name="MAXMIX">   -45</i>
     <i name="WC">    100.00000000</i>
     <i type="int" name="INIMIX">     1</i>
     <i type="int" name="MIXPRE">     1</i>
     <i type="int" name="MREMOVE">     5</i>
    </separator>
   </separator>
   <separator name="electronic dipolcorrection" >
    <i type="logical" name="LDIPOL"> F  </i>
    <i type="logical" name="LMONO"> F  </i>
    <i type="int" name="IDIPOL">     0</i>
    <i name="EPSILON">      1.00000000</i>
    <v name="DIPOL">   -100.00000000   -100.00000000   -100.00000000</v>
    <i name="EFIELD">      0.00000000</i>
   </separator>
  </separator>
  <separator name="grids" >
   <i type="int" name="NGX">   120</i>
   <i type="int" name="NGY">   120</i>
   <i type="int" name="NGZ">   120</i>
   <i type="int" name="NGXF">   240</i>
   <i type="int" name="NGYF">   240</i>
   <i type="int" name="NGZF">   240</i>
   <i type="logical" name="ADDGRID"> F  </i>
  </separator>
  <separator name="ionic" >
   <i type="int" name="NSW">     0</i>
   <i type="int" name="IBRION">    -1</i>
   <i type="int" name="MDALGO">     0</i>
   <i type="int" name="ISIF">     2</i>
   <i name="PSTRESS">      0.00000000</i>
   <i name="EDIFFG">     -0.00100000</i>
   <i type="int" name="NFREE">     0</i>
   <i name="POTIM">      0.50000000</i>
   <i name="SMASS">     -3.00000000</i>
   <i name="SCALEE">      1.00000000</i>
  </separator>
  <separator name="ionic md" >
   <i name="TEBEG">      0.00010000</i>
   <i name="TEEND">      0.00010000</i>
   <i type="int" name="NBLOCK">     1</i>
   <i type="int" name="KBLOCK">     1</i>
   <i type="int" name="NPACO">   256</i>
   <i name="APACO">     16.00000000</i>
  </separator>
  <separator name="symmetry" >
   <i type="int" name="ISYM">     0</i>
   <i name="SYMPREC">      0.00001000</i>
  </separator>
  <separator name="dos" >
   <i type="int" name="LORBIT">     0</i>
   <v name="RWIGS">     -1.00000000     -1.00000000     -1.00000000</v>
   <i type="int" name="NEDOS">   301</i>
   <i name="EMIN">     10.00000000</i>
   <i name="EMAX">    -10.00000000</i>
   <i name="EFERMI">      0.00000000</i>
  </separator>
  <separator name="writing" >
   <i type="int" name="NWRITE">     2</i>
   <i type="logical" name="LWAVE"> F  </i>
   <i type="logical" name="LDOWNSAMPLE"> F  </i>
   <i type="logical" name="LCHARG"> F  </i>
   <i type="logical" name="LPARD"> F  </i>
   <i type="logical" name="LVTOT"> F  </i>
   <i type="logical" name="LVHAR"> F  </i>
   <i type="logical" name="LELF"> F  </i>
   <i type="logical" name="LOPTICS"> F  </i>
   <v name="STM">      0.00000000      0.00000000      0.00000000      0.00000000      0.00000000      0.00000000      0.00000000</v>
  </separator>
  <separator name="performance" >
   <i type="int" name="NPAR">     4</i>
   <i type="int" name="NSIM">     4</i>
   <i type="int" name="NBLK">    -1</i>
   <i type="logical" name="LPLANE"> T  </i>
   <i type="logical" name="LSCALAPACK"> T  </i>
   <i type="logical" name="LSCAAWARE"> F  </i>
   <i type="logical" name="LSCALU"> F  </i>
   <i type="logical" name="LASYNC"> F  </i>
   <i type="logical" name="LORBITALREAL"> F  </i>
  </separator>
  <separator name="miscellaneous" >
   <i type="int" name="IDIOT">     3</i>
   <i type="int" name="ISPECIAL">     0</i>
   <i type="logical" name="LMUSIC"> F  </i>
   <v name="POMASS">     63.54600000     12.01100000     16.00000000</v>
   <v name="DARWINR">      0.00000000      0.00000000      0.00000000</v>
   <v name="DARWINV">      1.00000000      1.00000000      1.00000000</v>
   <i type="logical" name="LCORR"> T  </i>
  </separator>
  <i type="logical" name="GGA_COMPAT"> T  </i>
  <i type="logical" name="LBERRY"> F  </i>
  <i type="int" name="ICORELEVEL">     0</i>
  <i type="logical" name="LDAU"> F  </i>
  <i type="int" name="I_CONSTRAINED_M">     0</i>
  <separator name="electronic exchange-correlation" >
   <i type="string" name="GGA">PE</i>
   <i type="int" name="VOSKOWN">     0</i>
   <i type="logical" name="LHFCALC"> F  </i>
   <i type="string" name="PRECFOCK"></i>
   <i type="logical" name="LSYMGRAD"> F  </i>
   <i type="logical" name="LHFONE"> F  </i>
   <i type="logical" name="LRHFCALC"> F  </i>
   <i type="logical" name="LTHOMAS"> F  </i>
   <i type="logical" name="LMODELHF"> F  </i>
   <i name="ENCUT4O">     -1.00000000</i>
   <i type="int" name="EXXOEP">     0</i>
   <i type="int" name="FOURORBIT">     0</i>
   <i name="AEXX">      0.00000000</i>
   <i name="HFALPHA">      0.00000000</i>
   <i name="MCALPHA">      0.00000000</i>
   <i name="ALDAX">      1.00000000</i>
   <i name="AGGAX">      1.00000000</i>
   <i name="ALDAC">      1.00000000</i>
   <i name="AGGAC">      1.00000000</i>
   <i type="int" name="NKREDX">     1</i>
   <i type="int" name="NKREDY">     1</i>
   <i type="int" name="NKREDZ">     1</i>
   <i type="logical" name="SHIFTRED"> F  </i>
   <i type="logical" name="ODDONLY"> F  </i>
   <i type="logical" name="EVENONLY"> F  </i>
   <i type="int" name="LMAXFOCK">     0</i>
   <i type="int" name="NMAXFOCKAE">     0</i>
   <i type="logical" name="LFOCKAEDFT"> F  </i>
   <i name="HFSCREEN">      0.00000000</i>
   <i name="HFSCREENC">      0.00000000</i>
   <i type="int" name="NBANDSGWLOW">     0</i>
  </separator>
  <separator name="vdW DFT" >
   <i type="logical" name="LUSE_VDW"> F  </i>
   <i name="Zab_VDW">     -0.84910000</i>
   <i name="PARAM1">      0.12340000</i>
   <i name="PARAM2">      1.00000000</i>
   <i name="PARAM3">      0.00000000</i>
  </separator>
  <separator name="model GW" >
   <i type="int" name="MODEL_GW">     0</i>
   <i name="MODEL_EPS0">    135.00000000</i>
   <i name="MODEL_ALPHA">      1.00000000</i>
  </separator>
  <separator name="linear response parameters" >
   <i type="logical" name="LEPSILON"> F  </i>
   <i type="logical" name="LRPA"> F  </i>
   <i type="logical" name="LNABLA"> F  </i>
   <i type="logical" name="LVEL"> F  </i>
   <i type="int" name="KINTER">     0</i>
   <i name="CSHIFT">      0.10000000</i>
   <i name="OMEGAMAX">     -1.00000000</i>
   <i name="DEG_THRESHOLD">      0.00200000</i>
   <i name="RTIME">     -0.10000000</i>
   <i name="WPLASMAI">      0.00000000</i>
   <v name="DFIELD">      0.00000000      0.00000000      0.00000000</v>
   <v name="WPLASMA">      0.00000000      0.00000000      0.00000000      0.00000000      0.00000000      0.00000000      0.00000000      0.00000000      0.00000000</v>
  </separator>
  <separator name="orbital magnetization" >
   <i type="logical" name="NUCIND"> F  </i>
   <v name="MAGPOS">      0.00000000      0.00000000      0.00000000</v>
   <i type="logical" name="LNICSALL"> T  </i>
   <i type="logical" name="ORBITALMAG"> F  </i>
   <i type="logical" name="LMAGBLOCH"> F  </i>
   <i type="logical" name="LCHIMAG"> F  </i>
   <i type="logical" name="LGAUGE"> T  </i>
   <i type="int" name="MAGATOM">     0</i>
   <v name="MAGDIPOL">      0.00000000      0.00000000      0.00000000</v>
   <v name="AVECCONST">      0.00000000      0.00000000      0.00000000</v>
  </separator>
  <separator name="response functions" >
   <i type="logical" name="LADDER"> F  </i>
   <i type="logical" name="LRPAFORCE"> F  </i>
   <i type="logical" name="LFXC"> F  </i>
   <i type="logical" name="LHARTREE"> T  </i>
   <i type="int" name="IBSE">     0</i>
   <v type="int" name="KPOINT">    -1     0     0     0</v>
   <i type="logical" name="LTCTE"> F  </i>
   <i type="logical" name="LTETE"> F  </i>
   <i type="logical" name="LTRIPLET"> F  </i>
   <i type="logical" name="LFXCEPS"> F  </i>
   <i type="logical" name="LFXHEG"> F  </i>
   <i type="int" name="NATURALO">     2</i>
   <i type="logical" name="L2ORDER"> F  </i>
   <i type="logical" name="LMP2LT"> F  </i>
   <i type="logical" name="LUSEW"> F  </i>
   <i name="ENCUTGW">     -2.00000000</i>
   <i name="ENCUTGWSOFT">     -2.00000000</i>
   <i name="ENCUTLF">     -1.00000000</i>
   <i type="int" name="LMAXMP2">    -1</i>
   <i name="SCISSOR">      0.00000000</i>
   <i type="int" name="NOMEGA">     0</i>
   <i type="int" name="NOMEGAR">     0</i>
   <i type="int" name="NBANDSGW">    -1</i>
   <i type="int" name="NBANDSO">    -1</i>
   <i type="int" name="NBANDSV">    -1</i>
   <i type="int" name="NELM">   300</i>
   <i type="int" name="NELMHF">     1</i>
   <i type="int" name="DIM">     3</i>
   <i type="int" name="ANTIRES">     0</i>
   <i name="OMEGAMAX">    -30.00000000</i>
   <i name="OMEGAMIN">    -30.00000000</i>
   <i name="OMEGATL">   -200.00000000</i>
   <i type="int" name="OMEGAGRID">   140</i>
   <i name="CSHIFT">     -0.10000000</i>
   <i type="logical" name="SELFENERGY"> F  </i>
   <i type="logical" name="LSPECTRAL"> F  </i>
   <i type="logical" name="LSPECTRALGW"> F  </i>
   <i type="logical" name="LSINGLES"> F  </i>
   <i type="logical" name="LFERMIGW"> F  </i>
   <i type="logical" name="ODDONLYGW"> F  </i>
   <i type="logical" name="EVENONLYGW"> F  </i>
   <i type="int" name="NKREDLFX">     1</i>
   <i type="int" name="NKREDLFY">     1</i>
   <i type="int" name="NKREDLFZ">     1</i>
   <i type="int" name="MAXMEM">  2800</i>
   <i type="int" name="TELESCOPE">     0</i>
   <i type="int" name="TAUPAR">     1</i>
   <i type="int" name="OMEGAPAR">    -1</i>
   <i name="LAMBDA">      1.00000000</i>
  </separator>
  <separator name="External order field" >
   <i name="OFIELD_KAPPA">      0.00000000</i>
   <v name="OFIELD_K">      0.00000000      0.00000000      0.00000000</v>
   <i name="OFIELD_Q6_NEAR">      0.00000000</i>
   <i name="OFIELD_Q6_FAR">      0.00000000</i>
   <i name="OFIELD_A">      0.00000000</i>
  </separator>
 </parameters>
 <atominfo>
  <atoms>      15 </atoms>
  <types>       3 </types>
  <array name="atoms" >
   <dimension dim="1">ion</dimension>
   <field type="string">element</field>
   <field type="int">atomtype</field>
   <set>
    <rc><c>Cu</c><c>   1</c></rc>
    <rc><c>Cu</c><c>   1</c></rc>
    <rc><c>Cu</c><c>   1</c></rc>
    <rc><c>Cu</c><c>   1</c></rc>
    <rc><c>Cu</c><c>   1</c></rc>
    <rc><c>Cu</c><c>   1</c></rc>
    <rc><c>Cu</c><c>   1</c></rc>
    <rc><c>Cu</c><c>   1</c></rc>
    <rc><c>Cu</c><c>   1</c></rc>
    <rc><c>Cu</c><c>   1</c></rc>
    <rc><c>Cu</c><c>   1</c></rc>
    <rc><c>Cu</c><c>   1</c></rc>
    <rc><c>Cu</c><c>   1</c></rc>
    <rc><c>C </c><c>   2</c></rc>
    <rc><c>O </c><c>   3</c></rc>
   </set>
  </array>
  <array name="atomtypes" >
   <dimension dim="1">type</dimension>
   <field type="int">atomspertype</field>
   <field type="string">element</field>
   <field>mass</field>
   <field>valence</field>
   <field type="string">pseudopotential</field>
   <set>
    <rc><c>  13</c><c>Cu</c><c>     63.54600000</c><c>     11.00000000</c><c>  PAW_PBE Cu 22Jun2005                  </c></rc>
    <rc><c>   1</c><c>C </c><c>     12.01100000</c><c>      4.00000000</c><c>  PAW_PBE C 08Apr2002                   </c></rc>
    <rc><c>   1</c><c>O </c><c>     16.00000000</c><c>      6.00000000</c><c>  PAW_PBE O 08Apr2002                   </c></rc>
   </set>
  </array>
 </atominfo>
 <structure name="initialpos" >
  <crystal>
   <varray name="basis" >
    <v>      15.00000000       0.00000000       0.00000000 </v>
    <v>       0.00000000      15.00000000       0.00000000 </v>
    <v>       0.00000000       0.00000000      15.00000000 </v>
   </varray>
   <i name="volume">   3375.00000000 </i>
   <varray name="rec_basis" >
    <v>       0.06666667       0.00000000       0.00000000 </v>
    <v>       0.00000000       0.06666667       0.00000000 </v>
    <v>       0.00000000       0.00000000       0.06666667 </v>
   </varray>
  </crystal>
  <varray name="positions" >
   <v>       0.29675267       0.42291000       0.55593733 </v>
   <v>       0.37407933       0.54451000       0.49104600 </v>
   <v>       0.38780200       0.29276467       0.55304067 </v>
   <v>       0.52957333       0.51004867       0.48549400 </v>
   <v>       0.55617933       0.35646533       0.52625067 </v>
   <v>       0.45187533       0.43106800       0.60981400 </v>
   <v>       0.40490600       0.40437933       0.44961333 </v>
   <v>       0.22744933       0.55697800       0.55578067 </v>
   <v>       0.34249467       0.54982333       0.66814000 </v>
   <v>       0.35038067       0.67434667       0.56570933 </v>
   <v>       0.47285200       0.66385000       0.46767800 </v>
   <v>       0.63259000       0.48105000       0.59937667 </v>
   <v>       0.49086067       0.59447600       0.61936133 </v>
   <v>       0.74599333       0.49548067       0.64130867 </v>
   <v>       0.80891333       0.50818067       0.68398667 </v>
  </varray>
 </structure>
 <calculation>
  <scstep>
   <time name="dav">    7.48    7.49</time>
   <time name="total">    8.67    8.68</time>
   <energy>
    <i name="alphaZ">     41.16232785 </i>
    <i name="ewald">  16664.58988902 </i>
    <i name="hartreedc"> -33676.94639758 </i>
    <i name="XCdc">    624.05513103 </i>
    <i name="pawpsdc">  16421.75059358 </i>
    <i name="pawaedc"> -17800.06104309 </i>
    <i name="eentropy">      0.01243220 </i>
    <i name="bandstr">    186.82988529 </i>
    <i name="atom">  18662.21924712 </i>
    <i name="e_fr_energy">   1123.61206542 </i>
    <i name="e_wo_entrp">   1123.59963322 </i>
    <i name="e_0_energy">   1123.60792135 </i>
   </energy>
  </scstep>
  <scstep>
   <time name="dav">    7.38    7.39</time>
   <time name="total">    7.38    7.39</time>
   <energy>
    <i name="e_fr_energy">     89.76768169 </i>
    <i name="e_wo_entrp">     89.76188022 </i>
    <i name="e_0_energy">     89.76574787 </i>
   </energy>
  </scstep>
  <scstep>
   <time name="dav">   11.81   11.81</time>
   <time name="total">   11.81   11.81</time>
   <energy>
    <i name="e_fr_energy">    -32.64400510 </i>
    <i name="e_wo_entrp">    -32.65344305 </i>
    <i name="e_0_energy">    -32.64715109 </i>
   </energy>
  </scstep>
  <scstep>
   <time name="dav">   10.18   10.19</time>
   <time name="total">   10.18   10.19</time>
   <energy>
    <i name="e_fr_energy">    -55.30407861 </i>
    <i name="e_wo_entrp">    -55.31383262 </i>
    <i name="e_0_energy">    -55.30732995 </i>
   </energy>
  </scstep>
  <scstep>
   <time name="dav">   11.97   11.97</time>
   <time name="total">   12.66   12.66</time>
   <energy>
    <i name="e_fr_energy">    -56.86466941 </i>
    <i name="e_wo_entrp">    -56.86655363 </i>
    <i name="e_0_energy">    -56.86529748 </i>
   </energy>
  </scstep>
  <scstep>
   <time name="diag">    1.10    1.10</time>
   <time name="diis">    6.90    6.91</time>
   <time name="orth">    0.06    0.06</time>
   <time name="total">    9.95    9.95</time>
   <energy>
    <i name="e_fr_energy">    -55.97445056 </i>
    <i name="e_wo_entrp">    -55.98030851 </i>
    <i name="e_0_energy">    -55.97640321 </i>
   </energy>
  </scstep>
  <scstep>
   <time name="diag">    1.10    1.10</time>
   <time name="diis">    6.54    6.54</time>
   <time name="orth">    0.06    0.06</time>
   <time name="total">    9.55    9.56</time>
   <energy>
    <i name="e_fr_energy">    -48.72113963 </i>
    <i name="e_wo_entrp">    -48.72725326 </i>
    <i name="e_0_energy">    -48.72317751 </i>
   </energy>
  </scstep>
  <scstep>
   <time name="diag">    1.10    1.10</time>
   <time name="diis">    7.36    7.37</time>
   <time name="orth">    0.06    0.06</time>
   <time name="total">   10.38   10.39</time>
   <energy>
    <i name="e_fr_energy">    -48.51824361 </i>
    <i name="e_wo_entrp">    -48.52485012 </i>
    <i name="e_0_energy">    -48.52044578 </i>
   </energy>
  </scstep>
  <scstep>
   <time name="diag">    1.11    1.11</time>
   <time name="diis">    6.91    6.92</time>
   <time name="orth">    0.06    0.06</time>
   <time name="total">    9.93    9.95</time>
   <energy>
    <i name="e_fr_energy">    -48.46443918 </i>
    <i name="e_wo_entrp">    -48.47107905 </i>
    <i name="e_0_energy">    -48.46665247 </i>
   </energy>
  </scstep>
  <scstep>
   <time name="diag">    1.10    1.10</time>
   <time name="diis">    6.95    6.96</time>
   <time name="orth">    0.06    0.06</time>
   <time name="total">    9.97    9.98</time>
   <energy>
    <i name="e_fr_energy">    -48.39983354 </i>
    <i name="e_wo_entrp">    -48.40625914 </i>
    <i name="e_0_energy">    -48.40197540 </i>
   </energy>
  </scstep>
  <scstep>
   <time name="diag">    1.10    1.10</time>
   <time name="diis">    7.48    7.49</time>
   <time name="orth">    0.06    0.06</time>
   <time name="total">   10.49   10.50</time>
   <energy>
    <i name="e_fr_energy">    -48.38731261 </i>
    <i name="e_wo_entrp">    -48.39393683 </i>
    <i name="e_0_energy">    -48.38952068 </i>
   </energy>
  </scstep>
  <scstep>
   <time name="diag">    1.10    1.10</time>
   <time name="diis">    7.00    7.00</time>
   <time name="orth">    0.06    0.06</time>
   <time name="total">   10.02   10.02</time>
   <energy>
    <i name="e_fr_energy">    -48.38523592 </i>
    <i name="e_wo_entrp">    -48.39171053 </i>
    <i name="e_0_energy">    -48.38739413 </i>
   </energy>
  </scstep>
  <scstep>
   <time name="diag">    1.10    1.10</time>
   <time name="diis">    7.31    7.35</time>
   <time name="orth">    0.06    0.06</time>
   <time name="total">   10.32   10.37</time>
   <energy>
    <i name="e_fr_energy">    -48.38414141 </i>
    <i name="e_wo_entrp">    -48.39065671 </i>
    <i name="e_0_energy">    -48.38631318 </i>
   </energy>
  </scstep>
  <scstep>
   <time name="diag">    1.10    1.10</time>
   <time name="diis">    6.75    6.76</time>
   <time name="orth">    0.06    0.06</time>
   <time name="total">    9.77    9.78</time>
   <energy>
    <i name="e_fr_energy">    -48.38548157 </i>
    <i name="e_wo_entrp">    -48.39200235 </i>
    <i name="e_0_energy">    -48.38765516 </i>
   </energy>
  </scstep>
  <scstep>
   <time name="diag">    1.10    1.10</time>
   <time name="diis">    6.77    6.77</time>
   <time name="orth">    0.06    0.06</time>
   <time name="total">    9.79    9.79</time>
   <energy>
    <i name="e_fr_energy">    -48.38673320 </i>
    <i name="e_wo_entrp">    -48.39323807 </i>
    <i name="e_0_energy">    -48.38890149 </i>
   </energy>
  </scstep>
  <scstep>
   <time name="diag">    1.10    1.10</time>
   <time name="diis">    6.56    6.56</time>
   <time name="orth">    0.06    0.06</time>
   <time name="total">    9.58    9.59</time>
   <energy>
    <i name="e_fr_energy">    -48.38826005 </i>
    <i name="e_wo_entrp">    -48.39479302 </i>
    <i name="e_0_energy">    -48.39043771 </i>
   </energy>
  </scstep>
  <scstep>
   <time name="diag">    1.10    1.10</time>
   <time name="diis">    6.61    6.61</time>
   <time name="orth">    0.06    0.06</time>
   <time name="total">    9.63    9.64</time>
   <energy>
    <i name="e_fr_energy">    -48.38996085 </i>
    <i name="e_wo_entrp">    -48.39649426 </i>
    <i name="e_0_energy">    -48.39213865 </i>
   </energy>
  </scstep>
  <scstep>
   <time name="diag">    1.10    1.10</time>
   <time name="diis">    7.09    7.09</time>
   <time name="orth">    0.06    0.06</time>
   <time name="total">   10.12   10.12</time>
   <energy>
    <i name="e_fr_energy">    -48.39085062 </i>
    <i name="e_wo_entrp">    -48.39738556 </i>
    <i name="e_0_energy">    -48.39302893 </i>
   </energy>
  </scstep>
  <scstep>
   <time name="diag">    1.10    1.10</time>
   <time name="diis">    6.67    6.68</time>
   <time name="orth">    0.06    0.06</time>
   <time name="total">    9.70    9.71</time>
   <energy>
    <i name="e_fr_energy">    -48.39166986 </i>
    <i name="e_wo_entrp">    -48.39820136 </i>
    <i name="e_0_energy">    -48.39384702 </i>
   </energy>
  </scstep>
  <scstep>
   <time name="diag">    1.10    1.10</time>
   <time name="diis">    6.74    6.75</time>
   <time name="orth">    0.06    0.06</time>
   <time name="total">    9.77    9.77</time>
   <energy>
    <i name="e_fr_energy">    -48.39213484 </i>
    <i name="e_wo_entrp">    -48.39866502 </i>
    <i name="e_0_energy">    -48.39431157 </i>
   </energy>
  </scstep>
  <scstep>
   <time name="diag">    1.10    1.10</time>
   <time name="diis">    6.64    6.64</time>
   <time name="orth">    0.06    0.06</time>
   <time name="total">    9.67    9.68</time>
   <energy>
    <i name="e_fr_energy">    -48.39256876 </i>
    <i name="e_wo_entrp">    -48.39909692 </i>
    <i name="e_0_energy">    -48.39474482 </i>
   </energy>
  </scstep>
  <scstep>
   <time name="diag">    1.10    1.10</time>
   <time name="diis">    6.79    6.79</time>
   <time name="orth">    0.06    0.06</time>
   <time name="total">    9.82    9.82</time>
   <energy>
    <i name="e_fr_energy">    -48.39279137 </i>
    <i name="e_wo_entrp">    -48.39932232 </i>
    <i name="e_0_energy">    -48.39496835 </i>
   </energy>
  </scstep>
  <scstep>
   <time name="diag">    1.10    1.10</time>
   <time name="diis">    6.92    6.92</time>
   <time name="orth">    0.06    0.06</time>
   <time name="total">    9.95    9.95</time>
   <energy>
    <i name="e_fr_energy">    -48.39290792 </i>
    <i name="e_wo_entrp">    -48.39943848 </i>
    <i name="e_0_energy">    -48.39508477 </i>
   </energy>
  </scstep>
  <scstep>
   <time name="diag">    1.10    1.10</time>
   <time name="diis">    6.87    6.87</time>
   <time name="orth">    0.06    0.06</time>
   <time name="total">    9.90    9.91</time>
   <energy>
    <i name="e_fr_energy">    -48.39301235 </i>
    <i name="e_wo_entrp">    -48.39954288 </i>
    <i name="e_0_energy">    -48.39518919 </i>
   </energy>
  </scstep>
  <scstep>
   <time name="diag">    1.10    1.10</time>
   <time name="diis">    6.34    6.35</time>
   <time name="orth">    0.06    0.06</time>
   <time name="total">    9.38    9.38</time>
   <energy>
    <i name="e_fr_energy">    -48.39307053 </i>
    <i name="e_wo_entrp">    -48.39960080 </i>
    <i name="e_0_energy">    -48.39524729 </i>
   </energy>
  </scstep>
  <scstep>
   <time name="diag">    1.10    1.10</time>
   <time name="diis">    6.13    6.13</time>
   <time name="orth">    0.06    0.06</time>
   <time name="total">    9.16    9.17</time>
   <energy>
    <i name="e_fr_energy">    -48.39310156 </i>
    <i name="e_wo_entrp">    -48.39963193 </i>
    <i name="e_0_energy">    -48.39527835 </i>
   </energy>
  </scstep>
  <scstep>
   <time name="diag">    1.10    1.10</time>
   <time name="diis">    4.70    4.70</time>
   <time name="orth">    0.06    0.06</time>
   <time name="total">    7.74    7.74</time>
   <energy>
    <i name="e_fr_energy">    -48.39311252 </i>
    <i name="e_wo_entrp">    -48.39964295 </i>
    <i name="e_0_energy">    -48.39528933 </i>
   </energy>
  </scstep>
  <scstep>
   <time name="diag">    1.10    1.10</time>
   <time name="diis">    4.42    4.43</time>
   <time name="orth">    0.06    0.06</time>
   <time name="total">    7.47    7.47</time>
   <energy>
    <i name="e_fr_energy">    -48.39311729 </i>
    <i name="e_wo_entrp">    -48.39964770 </i>
    <i name="e_0_energy">    -48.39529410 </i>
   </energy>
  </scstep>
  <scstep>
   <time name="diag">    1.10    1.10</time>
   <time name="diis">    4.39    4.39</time>
   <time name="orth">    0.06    0.06</time>
   <time name="total">    7.44    7.44</time>
   <energy>
    <i name="e_fr_energy">    -48.39311998 </i>
    <i name="e_wo_entrp">    -48.39965036 </i>
    <i name="e_0_energy">    -48.39529677 </i>
   </energy>
  </scstep>
  <scstep>
   <time name="diag">    1.10    1.10</time>
   <time name="diis">    4.57    4.57</time>
   <time name="orth">    0.06    0.06</time>
   <time name="total">    7.63    7.64</time>
   <energy>
    <i name="e_fr_energy">    -48.39312120 </i>
    <i name="e_wo_entrp">    -48.39965153 </i>
    <i name="e_0_energy">    -48.39529798 </i>
   </energy>
  </scstep>
  <scstep>
   <time name="diag">    1.10    1.10</time>
   <time name="diis">    4.52    4.54</time>
   <time name="orth">    0.06    0.06</time>
   <time name="total">    7.59    7.60</time>
   <energy>
    <i name="e_fr_energy">    -48.39312201 </i>
    <i name="e_wo_entrp">    -48.39965235 </i>
    <i name="e_0_energy">    -48.39529879 </i>
   </energy>
  </scstep>
  <scstep>
   <time name="diag">    1.10    1.10</time>
   <time name="diis">    4.38    4.38</time>
   <time name="orth">    0.06    0.06</time>
   <time name="total">    7.46    7.46</time>
   <energy>
    <i name="e_fr_energy">    -48.39312256 </i>
    <i name="e_wo_entrp">    -48.39965289 </i>
    <i name="e_0_energy">    -48.39529934 </i>
   </energy>
  </scstep>
  <scstep>
   <time name="diag">    1.10    1.10</time>
   <time name="diis">    4.31    4.31</time>
   <time name="orth">    0.06    0.06</time>
   <time name="total">    7.39    7.40</time>
   <energy>
    <i name="e_fr_energy">    -48.39312307 </i>
    <i name="e_wo_entrp">    -48.39965339 </i>
    <i name="e_0_energy">    -48.39529984 </i>
   </energy>
  </scstep>
  <scstep>
   <time name="diag">    1.10    1.10</time>
   <time name="diis">    4.05    4.05</time>
   <time name="orth">    0.06    0.06</time>
   <time name="total">    7.14    7.15</time>
   <energy>
    <i name="e_fr_energy">    -48.39312338 </i>
    <i name="e_wo_entrp">    -48.39965370 </i>
    <i name="e_0_energy">    -48.39530016 </i>
   </energy>
  </scstep>
  <scstep>
   <time name="diag">    1.10    1.10</time>
   <time name="diis">    3.83    3.83</time>
   <time name="orth">    0.06    0.06</time>
   <time name="total">    6.92    6.93</time>
   <energy>
    <i name="e_fr_energy">    -48.39312366 </i>
    <i name="e_wo_entrp">    -48.39965398 </i>
    <i name="e_0_energy">    -48.39530043 </i>
   </energy>
  </scstep>
  <scstep>
   <time name="diag">    1.10    1.10</time>
   <time name="diis">    3.64    3.64</time>
   <time name="orth">    0.06    0.06</time>
   <time name="total">    6.74    6.75</time>
   <energy>
    <i name="e_fr_energy">    -48.39312387 </i>
    <i name="e_wo_entrp">    -48.39965419 </i>
    <i name="e_0_energy">    -48.39530064 </i>
   </energy>
  </scstep>
  <scstep>
   <time name="diag">    1.10    1.10</time>
   <time name="diis">    3.44    3.45</time>
   <time name="orth">    0.06    0.06</time>
   <time name="total">    6.55    6.56</time>
   <energy>
    <i name="e_fr_energy">    -48.39312397 </i>
    <i name="e_wo_entrp">    -48.39965429 </i>
    <i name="e_0_energy">    -48.39530074 </i>
   </energy>
  </scstep>
  <scstep>
   <time name="diag">    1.10    1.10</time>
   <time name="diis">    3.48    3.49</time>
   <time name="orth">    0.06    0.06</time>
   <time name="total">    5.83    5.83</time>
   <energy>
    <i name="alphaZ">     41.16232785 </i>
    <i name="ewald">  16664.58988902 </i>
    <i name="hartreedc"> -33635.94224630 </i>
    <i name="XCdc">    615.92415697 </i>
    <i name="pawpsdc">  17752.05641006 </i>
    <i name="pawaedc"> -19152.71682390 </i>
    <i name="eentropy">      0.00653032 </i>
    <i name="bandstr">   -995.69261515 </i>
    <i name="atom">  18662.21924712 </i>
    <i name="e_fr_energy">    -48.39312401 </i>
    <i name="e_wo_entrp">    -48.39965433 </i>
    <i name="e_0_energy">    -48.39530078 </i>
   </energy>
  </scstep>
  <structure>
   <crystal>
    <varray name="basis" >
     <v>      15.00000000       0.00000000       0.00000000 </v>
     <v>       0.00000000      15.00000000       0.00000000 </v>
     <v>       0.00000000       0.00000000      15.00000000 </v>
    </varray>
    <i name="volume">   3375.00000000 </i>
    <varray name="rec_basis" >
     <v>       0.06666667       0.00000000       0.00000000 </v>
     <v>       0.00000000       0.06666667       0.00000000 </v>
     <v>       0.00000000       0.00000000       0.06666667 </v>
    </varray>
   </crystal>
   <varray name="positions" >
    <v>       0.29675267       0.42291000       0.55593733 </v>
    <v>       0.37407933       0.54451000       0.49104600 </v>
    <v>       0.38780200       0.29276467       0.55304067 </v>
    <v>       0.52957333       0.51004867       0.48549400 </v>
    <v>       0.55617933       0.35646533       0.52625067 </v>
    <v>       0.45187533       0.43106800       0.60981400 </v>
    <v>       0.40490600       0.40437933       0.44961333 </v>
    <v>       0.22744933       0.55697800       0.55578067 </v>
    <v>       0.34249467       0.54982333       0.66814000 </v>
    <v>       0.35038067       0.67434667       0.56570933 </v>
    <v>       0.47285200       0.66385000       0.46767800 </v>
    <v>       0.63259000       0.48105000       0.59937667 </v>
    <v>       0.49086067       0.59447600       0.61936133 </v>
    <v>       0.74599333       0.49548067       0.64130867 </v>
    <v>       0.80891333       0.50818067       0.68398667 </v>
   </varray>
  </structure>
  <varray name="forces" >
   <v>      -0.57951667      -0.65406588       0.78533161 </v>
   <v>      -0.35205514       0.63462216       0.08267327 </v>
   <v>       0.36194061      -0.53709462       0.38718564 </v>
   <v>       0.01439123       0.04284700      -0.37329390 </v>
   <v>      -0.10569339      -0.48733695      -0.39081979 </v>
   <v>      -0.05903518       0.56058383       0.29381418 </v>
   <v>       1.13310676      -0.75006187      -0.85689257 </v>
   <v>      -0.43560885       0.85135756       0.04053295 </v>
   <v>       0.19585112      -0.33283740      -0.50440175 </v>
   <v>      -0.37754925       0.65721024       0.54164980 </v>
   <v>       0.49123667       0.14995728       0.13168804 </v>
   <v>      -0.12541268       0.05008694      -0.03955808 </v>
   <v>      -0.04925556      -0.20970077      -0.40081296 </v>
   <v>      -0.15356623       0.04228562       0.60385174 </v>
   <v>       0.04116656      -0.01785314      -0.30094819 </v>
  </varray>
  <varray name="stress" >
   <v>       0.66302723      -0.97477830      -1.00868371 </v>
   <v>      -0.97477830       3.09272635       0.19688646 </v>
   <v>      -1.00868371       0.19688645       0.38768131 </v>
  </varray>
  <energy>
   <i name="e_fr_energy">    -48.39312401 </i>
   <i name="e_wo_entrp">    -48.39530078 </i>
   <i name="e_0_energy">      0.00653032 </i>
  </energy>
  <time name="totalsc">  354.59  354.86</time>
  <eigenvalues>
   <array>
    <dimension dim="1">band</dimension>
    <dimension dim="2">kpoint</dimension>
    <dimension dim="3">spin</dimension>
    <field>eigene</field>
    <field>occ</field>
    <set>
     <set comment="spin 1">
      <set comment="kpoint 1">
       <r>  -28.6009    1.0000 </r>
       <r>  -13.9497    1.0000 </r>
       <r>  -11.4231    1.0000 </r>
       <r>  -11.2579    1.0000 </r>
       <r>  -11.1133    1.0000 </r>
       <r>  -10.2495    1.0000 </r>
       <r>   -8.6397    1.0000 </r>
       <r>   -8.3312    1.0000 </r>
       <r>   -7.8248    1.0000 </r>
       <r>   -7.6605    1.0000 </r>
       <r>   -7.5331    1.0000 </r>
       <r>   -7.4335    1.0000 </r>
       <r>   -7.4209    1.0000 </r>
       <r>   -7.1996    1.0000 </r>
       <r>   -7.0919    1.0000 </r>
       <r>   -7.0592    1.0000 </r>
       <r>   -6.9219    1.0000 </r>
       <r>   -6.8544    1.0000 </r>
       <r>   -6.7829    1.0000 </r>
       <r>   -6.7079    1.0000 </r>
       <r>   -6.6623    1.0000 </r>
       <r>   -6.6224    1.0000 </r>
       <r>   -6.5697    1.0000 </r>
       <r>   -6.5348    1.0000 </r>
       <r>   -6.4731    1.0000 </r>
       <r>   -6.4280    1.0000 </r>
       <r>   -6.4030    1.0000 </r>
       <r>   -6.3315    1.0000 </r>
       <r>   -6.3178    1.0000 </r>
       <r>   -6.2883    1.0000 </r>
       <r>   -6.2038    1.0000 </r>
       <r>   -6.1918    1.0000 </r>
       <r>   -6.1227    1.0000 </r>
       <r>   -6.0723    1.0000 </r>
       <r>   -5.9664    1.0000 </r>
       <r>   -5.9091    1.0000 </r>
       <r>   -5.8346    1.0000 </r>
       <r>   -5.7848    1.0000 </r>
       <r>   -5.7058    1.0000 </r>
       <r>   -5.6741    1.0000 </r>
       <r>   -5.6111    1.0000 </r>
       <r>   -5.5777    1.0000 </r>
       <r>   -5.5697    1.0000 </r>
       <r>   -5.5499    1.0000 </r>
       <r>   -5.4809    1.0000 </r>
       <r>   -5.4377    1.0000 </r>
       <r>   -5.4064    1.0000 </r>
       <r>   -5.3819    1.0000 </r>
       <r>   -5.3584    1.0000 </r>
       <r>   -5.3293    1.0000 </r>
       <r>   -5.2961    1.0000 </r>
       <r>   -5.2735    1.0000 </r>
       <r>   -5.2458    1.0000 </r>
       <r>   -5.2410    1.0000 </r>
       <r>   -5.2122    1.0000 </r>
       <r>   -5.1776    1.0000 </r>
       <r>   -5.1511    1.0000 </r>
       <r>   -5.1346    1.0000 </r>
       <r>   -5.1110    1.0000 </r>
       <r>   -5.0822    1.0000 </r>
       <r>   -5.0754    1.0000 </r>
       <r>   -5.0348    1.0000 </r>
       <r>   -5.0099    1.0000 </r>
       <r>   -5.0003    1.0000 </r>
       <r>   -4.9664    1.0000 </r>
       <r>   -4.9334    1.0000 </r>
       <r>   -4.8864    1.0000 </r>
       <r>   -4.8616    1.0000 </r>
       <r>   -4.8398    1.0000 </r>
       <r>   -4.8038    1.0000 </r>
       <r>   -4.7839    1.0000 </r>
       <r>   -4.7245    1.0000 </r>
       <r>   -4.7018    1.0000 </r>
       <r>   -4.5823    1.0000 </r>
       <r>   -4.1888    1.0000 </r>
       <r>   -4.0214    1.0000 </r>
       <r>   -3.4726    1.0001 </r>
       <r>   -3.0792   -0.0001 </r>
       <r>   -2.9904   -0.0000 </r>
       <r>   -2.4744   -0.0000 </r>
       <r>   -2.4367   -0.0000 </r>
       <r>   -1.8575   -0.0000 </r>
       <r>   -1.8096   -0.0000 </r>
       <r>   -1.7461   -0.0000 </r>
       <r>   -1.5399   -0.0000 </r>
       <r>   -1.0366   -0.0000 </r>
       <r>   -0.9160   -0.0000 </r>
       <r>   -0.6233    0.0000 </r>
       <r>   -0.3266    0.0000 </r>
       <r>   -0.2340    0.0000 </r>
       <r>   -0.0861    0.0000 </r>
       <r>    0.0455    0.0000 </r>
      </set>
     </set>
     <set comment="spin 2">
      <set comment="kpoint 1">
       <r>  -28.5880    1.0000 </r>
       <r>  -13.9224    1.0000 </r>
       <r>  -11.4067    1.0000 </r>
       <r>  -11.2274    1.0000 </r>
       <r>  -11.0856    1.0000 </r>
       <r>  -10.2054    1.0000 </r>
       <r>   -8.6184    1.0000 </r>
       <r>   -8.2821    1.0000 </r>
       <r>   -7.7881    1.0000 </r>
       <r>   -7.6317    1.0000 </r>
       <r>   -7.4842    1.0000 </r>
       <r>   -7.4053    1.0000 </r>
       <r>   -7.3824    1.0000 </r>
       <r>   -7.1605    1.0000 </r>
       <r>   -7.0635    1.0000 </r>
       <r>   -7.0273    1.0000 </r>
       <r>   -6.8907    1.0000 </r>
       <r>   -6.8289    1.0000 </r>
       <r>   -6.7451    1.0000 </r>
       <r>   -6.6872    1.0000 </r>
       <r>   -6.6336    1.0000 </r>
       <r>   -6.5953    1.0000 </r>
       <r>   -6.5478    1.0000 </r>
       <r>   -6.5111    1.0000 </r>
       <r>   -6.4428    1.0000 </r>
       <r>   -6.4015    1.0000 </r>
       <r>   -6.3753    1.0000 </r>
       <r>   -6.3110    1.0000 </r>
       <r>   -6.2911    1.0000 </r>
       <r>   -6.2615    1.0000 </r>
       <r>   -6.1835    1.0000 </r>
       <r>   -6.1620    1.0000 </r>
       <r>   -6.1023    1.0000 </r>
       <r>   -6.0502    1.0000 </r>
       <r>   -5.9346    1.0000 </r>
       <r>   -5.8751    1.0000 </r>
       <r>   -5.8080    1.0000 </r>
       <r>   -5.7629    1.0000 </r>
       <r>   -5.6856    1.0000 </r>
       <r>   -5.6492    1.0000 </r>
       <r>   -5.5785    1.0000 </r>
       <r>   -5.5515    1.0000 </r>
       <r>   -5.5426    1.0000 </r>
       <r>   -5.5241    1.0000 </r>
       <r>   -5.4524    1.0000 </r>
       <r>   -5.4077    1.0000 </r>
       <r>   -5.3785    1.0000 </r>
       <r>   -5.3551    1.0000 </r>
       <r>   -5.3361    1.0000 </r>
       <r>   -5.3012    1.0000 </r>
       <r>   -5.2702    1.0000 </r>
       <r>   -5.2439    1.0000 </r>
       <r>   -5.2254    1.0000 </r>
       <r>   -5.2125    1.0000 </r>
       <r>   -5.1870    1.0000 </r>
       <r>   -5.1502    1.0000 </r>
       <r>   -5.1260    1.0000 </r>
       <r>   -5.1123    1.0000 </r>
       <r>   -5.0909    1.0000 </r>
       <r>   -5.0569    1.0000 </r>
       <r>   -5.0432    1.0000 </r>
       <r>   -5.0082    1.0000 </r>
       <r>   -4.9941    1.0000 </r>
       <r>   -4.9777    1.0000 </r>
       <r>   -4.9445    1.0000 </r>
       <r>   -4.9070    1.0000 </r>
       <r>   -4.8487    1.0000 </r>
       <r>   -4.8375    1.0000 </r>
       <r>   -4.8045    1.0000 </r>
       <r>   -4.7775    1.0000 </r>
       <r>   -4.7626    1.0000 </r>
       <r>   -4.6875    1.0000 </r>
       <r>   -4.6663    1.0000 </r>
       <r>   -4.5418    1.0000 </r>
       <r>   -4.1199    1.0045 </r>
       <r>   -3.9855    0.9955 </r>
       <r>   -3.2615   -0.0000 </r>
       <r>   -3.0339   -0.0000 </r>
       <r>   -2.9314   -0.0000 </r>
       <r>   -2.4194   -0.0000 </r>
       <r>   -2.3670   -0.0000 </r>
       <r>   -1.7934   -0.0000 </r>
       <r>   -1.7602   -0.0000 </r>
       <r>   -1.6865   -0.0000 </r>
       <r>   -1.4245   -0.0000 </r>
       <r>   -0.8821    0.0000 </r>
       <r>   -0.8403    0.0000 </r>
       <r>   -0.5704    0.0000 </r>
       <r>   -0.2152    0.0000 </r>
       <r>   -0.1383    0.0000 </r>
       <r>   -0.0468    0.0000 </r>
       <r>    0.0946    0.0000 </r>
      </set>
     </set>
    </set>
   </array>
  </eigenvalues>
  <separator name="orbital magnetization" >
   <v name="MAGDIPOLOUT">      0.00000000      0.00000000      0.00000000</v>
  </separator>
  <dos>
   <i name="efermi">     -3.90328875 </i>
   <total>
    <array>
     <dimension dim="1">gridpoints</dimension>
     <dimension dim="2">spin</dimension>
     <field>energy</field>
     <field>total</field>
     <field>integrated</field>
     <set>
      <set comment="spin 1">
       <r>   -30.0356     0.0000     0.0000 </r>
       <r>   -29.9304     0.0000     0.0000 </r>
       <r>   -29.8252     0.0000     0.0000 </r>
       <r>   -29.7200     0.0000     0.0000 </r>
       <r>   -29.6148     0.0000     0.0000 </r>
       <r>   -29.5096     0.0000     0.0000 </r>
       <r>   -29.4043    -0.0000    -0.0000 </r>
       <r>   -29.2991    -0.0000    -0.0000 </r>
       <r>   -29.1939    -0.0000    -0.0000 </r>
       <r>   -29.0887    -0.0000    -0.0000 </r>
       <r>   -28.9835    -0.0000    -0.0000 </r>
       <r>   -28.8783    -0.0059    -0.0006 </r>
       <r>   -28.7730    -0.3288    -0.0352 </r>
       <r>   -28.6678     1.3081     0.1024 </r>
       <r>   -28.5626    14.2145     1.5980 </r>
       <r>   -28.4574     4.3990     2.0609 </r>
       <r>   -28.3522    -0.5552     2.0025 </r>
       <r>   -28.2470    -0.0233     2.0000 </r>
       <r>   -28.1417    -0.0001     2.0000 </r>
       <r>   -28.0365    -0.0000     2.0000 </r>
       <r>   -27.9313    -0.0000     2.0000 </r>
       <r>   -27.8261     0.0000     2.0000 </r>
       <r>   -27.7209     0.0000     2.0000 </r>
       <r>   -27.6157     0.0000     2.0000 </r>
       <r>   -27.5104     0.0000     2.0000 </r>
       <r>   -27.4052     0.0000     2.0000 </r>
       <r>   -27.3000     0.0000     2.0000 </r>
       <r>   -27.1948     0.0000     2.0000 </r>
       <r>   -27.0896     0.0000     2.0000 </r>
       <r>   -26.9844     0.0000     2.0000 </r>
       <r>   -26.8791     0.0000     2.0000 </r>
       <r>   -26.7739     0.0000     2.0000 </r>
       <r>   -26.6687     0.0000     2.0000 </r>
       <r>   -26.5635     0.0000     2.0000 </r>
       <r>   -26.4583     0.0000     2.0000 </r>
       <r>   -26.3530     0.0000     2.0000 </r>
       <r>   -26.2478     0.0000     2.0000 </r>
       <r>   -26.1426     0.0000     2.0000 </r>
       <r>   -26.0374     0.0000     2.0000 </r>
       <r>   -25.9322     0.0000     2.0000 </r>
       <r>   -25.8270     0.0000     2.0000 </r>
       <r>   -25.7217     0.0000     2.0000 </r>
       <r>   -25.6165     0.0000     2.0000 </r>
       <r>   -25.5113     0.0000     2.0000 </r>
       <r>   -25.4061     0.0000     2.0000 </r>
       <r>   -25.3009     0.0000     2.0000 </r>
       <r>   -25.1957     0.0000     2.0000 </r>
       <r>   -25.0904     0.0000     2.0000 </r>
       <r>   -24.9852     0.0000     2.0000 </r>
       <r>   -24.8800     0.0000     2.0000 </r>
       <r>   -24.7748     0.0000     2.0000 </r>
       <r>   -24.6696     0.0000     2.0000 </r>
       <r>   -24.5644     0.0000     2.0000 </r>
       <r>   -24.4591     0.0000     2.0000 </r>
       <r>   -24.3539     0.0000     2.0000 </r>
       <r>   -24.2487     0.0000     2.0000 </r>
       <r>   -24.1435     0.0000     2.0000 </r>
       <r>   -24.0383     0.0000     2.0000 </r>
       <r>   -23.9331     0.0000     2.0000 </r>
       <r>   -23.8278     0.0000     2.0000 </r>
       <r>   -23.7226     0.0000     2.0000 </r>
       <r>   -23.6174     0.0000     2.0000 </r>
       <r>   -23.5122     0.0000     2.0000 </r>
       <r>   -23.4070     0.0000     2.0000 </r>
       <r>   -23.3018     0.0000     2.0000 </r>
       <r>   -23.1965     0.0000     2.0000 </r>
       <r>   -23.0913     0.0000     2.0000 </r>
       <r>   -22.9861     0.0000     2.0000 </r>
       <r>   -22.8809     0.0000     2.0000 </r>
       <r>   -22.7757     0.0000     2.0000 </r>
       <r>   -22.6705     0.0000     2.0000 </r>
       <r>   -22.5652     0.0000     2.0000 </r>
       <r>   -22.4600     0.0000     2.0000 </r>
       <r>   -22.3548     0.0000     2.0000 </r>
       <r>   -22.2496     0.0000     2.0000 </r>
       <r>   -22.1444     0.0000     2.0000 </r>
       <r>   -22.0392     0.0000     2.0000 </r>
       <r>   -21.9339     0.0000     2.0000 </r>
       <r>   -21.8287     0.0000     2.0000 </r>
       <r>   -21.7235     0.0000     2.0000 </r>
       <r>   -21.6183     0.0000     2.0000 </r>
       <r>   -21.5131     0.0000     2.0000 </r>
       <r>   -21.4079     0.0000     2.0000 </r>
       <r>   -21.3026     0.0000     2.0000 </r>
       <r>   -21.1974     0.0000     2.0000 </r>
       <r>   -21.0922     0.0000     2.0000 </r>
       <r>   -20.9870     0.0000     2.0000 </r>
       <r>   -20.8818     0.0000     2.0000 </r>
       <r>   -20.7766     0.0000     2.0000 </r>
       <r>   -20.6713     0.0000     2.0000 </r>
       <r>   -20.5661     0.0000     2.0000 </r>
       <r>   -20.4609     0.0000     2.0000 </r>
       <r>   -20.3557     0.0000     2.0000 </r>
       <r>   -20.2505     0.0000     2.0000 </r>
       <r>   -20.1453     0.0000     2.0000 </r>
       <r>   -20.0400     0.0000     2.0000 </r>
       <r>   -19.9348     0.0000     2.0000 </r>
       <r>   -19.8296     0.0000     2.0000 </r>
       <r>   -19.7244     0.0000     2.0000 </r>
       <r>   -19.6192     0.0000     2.0000 </r>
       <r>   -19.5140     0.0000     2.0000 </r>
       <r>   -19.4087     0.0000     2.0000 </r>
       <r>   -19.3035     0.0000     2.0000 </r>
       <r>   -19.1983     0.0000     2.0000 </r>
       <r>   -19.0931     0.0000     2.0000 </r>
       <r>   -18.9879     0.0000     2.0000 </r>
       <r>   -18.8827     0.0000     2.0000 </r>
       <r>   -18.7774     0.0000     2.0000 </r>
       <r>   -18.6722     0.0000     2.0000 </r>
       <r>   -18.5670     0.0000     2.0000 </r>
       <r>   -18.4618     0.0000     2.0000 </r>
       <r>   -18.3566     0.0000     2.0000 </r>
       <r>   -18.2514     0.0000     2.0000 </r>
       <r>   -18.1461     0.0000     2.0000 </r>
       <r>   -18.0409     0.0000     2.0000 </r>
       <r>   -17.9357     0.0000     2.0000 </r>
       <r>   -17.8305     0.0000     2.0000 </r>
       <r>   -17.7253     0.0000     2.0000 </r>
       <r>   -17.6201     0.0000     2.0000 </r>
       <r>   -17.5148     0.0000     2.0000 </r>
       <r>   -17.4096     0.0000     2.0000 </r>
       <r>   -17.3044     0.0000     2.0000 </r>
       <r>   -17.1992     0.0000     2.0000 </r>
       <r>   -17.0940     0.0000     2.0000 </r>
       <r>   -16.9888     0.0000     2.0000 </r>
       <r>   -16.8835     0.0000     2.0000 </r>
       <r>   -16.7783     0.0000     2.0000 </r>
       <r>   -16.6731     0.0000     2.0000 </r>
       <r>   -16.5679     0.0000     2.0000 </r>
       <r>   -16.4627     0.0000     2.0000 </r>
       <r>   -16.3575     0.0000     2.0000 </r>
       <r>   -16.2522     0.0000     2.0000 </r>
       <r>   -16.1470     0.0000     2.0000 </r>
       <r>   -16.0418     0.0000     2.0000 </r>
       <r>   -15.9366     0.0000     2.0000 </r>
       <r>   -15.8314     0.0000     2.0000 </r>
       <r>   -15.7262     0.0000     2.0000 </r>
       <r>   -15.6209     0.0000     2.0000 </r>
       <r>   -15.5157     0.0000     2.0000 </r>
       <r>   -15.4105     0.0000     2.0000 </r>
       <r>   -15.3053     0.0000     2.0000 </r>
       <r>   -15.2001     0.0000     2.0000 </r>
       <r>   -15.0949     0.0000     2.0000 </r>
       <r>   -14.9896     0.0000     2.0000 </r>
       <r>   -14.8844     0.0000     2.0000 </r>
       <r>   -14.7792    -0.0000     2.0000 </r>
       <r>   -14.6740    -0.0000     2.0000 </r>
       <r>   -14.5688    -0.0000     2.0000 </r>
       <r>   -14.4636    -0.0000     2.0000 </r>
       <r>   -14.3583    -0.0000     2.0000 </r>
       <r>   -14.2531    -0.0015     1.9998 </r>
       <r>   -14.1479    -0.1595     1.9831 </r>
       <r>   -14.0427    -0.1474     1.9675 </r>
       <r>   -13.9375    11.7647     3.2054 </r>
       <r>   -13.8323     8.2181     4.0701 </r>
       <r>   -13.7270    -0.5978     4.0072 </r>
       <r>   -13.6218    -0.0680     4.0000 </r>
       <r>   -13.5166    -0.0003     4.0000 </r>
       <r>   -13.4114    -0.0000     4.0000 </r>
       <r>   -13.3062    -0.0000     4.0000 </r>
       <r>   -13.2010     0.0000     4.0000 </r>
       <r>   -13.0957     0.0000     4.0000 </r>
       <r>   -12.9905     0.0000     4.0000 </r>
       <r>   -12.8853     0.0000     4.0000 </r>
       <r>   -12.7801     0.0000     4.0000 </r>
       <r>   -12.6749     0.0000     4.0000 </r>
       <r>   -12.5697     0.0000     4.0000 </r>
       <r>   -12.4644     0.0000     4.0000 </r>
       <r>   -12.3592     0.0000     4.0000 </r>
       <r>   -12.2540    -0.0000     4.0000 </r>
       <r>   -12.1488    -0.0000     4.0000 </r>
       <r>   -12.0436    -0.0000     4.0000 </r>
       <r>   -11.9384    -0.0000     4.0000 </r>
       <r>   -11.8331    -0.0000     4.0000 </r>
       <r>   -11.7279    -0.0014     3.9999 </r>
       <r>   -11.6227    -0.1528     3.9838 </r>
       <r>   -11.5175    -0.2063     3.9621 </r>
       <r>   -11.4123    11.1128     5.1313 </r>
       <r>   -11.3070    11.2860     6.3188 </r>
       <r>   -11.2018    14.0088     7.7928 </r>
       <r>   -11.0966    14.5449     9.3231 </r>
       <r>   -10.9914     7.1173    10.0720 </r>
       <r>   -10.8862    -0.6266    10.0061 </r>
       <r>   -10.7810    -0.0573    10.0000 </r>
       <r>   -10.6757    -0.0003    10.0000 </r>
       <r>   -10.5705    -0.0005     9.9999 </r>
       <r>   -10.4653    -0.0878     9.9907 </r>
       <r>   -10.3601    -0.5372     9.9342 </r>
       <r>   -10.2549     9.2692    10.9095 </r>
       <r>   -10.1497    10.8395    12.0500 </r>
       <r>   -10.0444    -0.3463    12.0135 </r>
       <r>    -9.9392    -0.1275    12.0001 </r>
       <r>    -9.8340    -0.0010    12.0000 </r>
       <r>    -9.7288    -0.0000    12.0000 </r>
       <r>    -9.6236    -0.0000    12.0000 </r>
       <r>    -9.5184    -0.0000    12.0000 </r>
       <r>    -9.4131    -0.0000    12.0000 </r>
       <r>    -9.3079    -0.0000    12.0000 </r>
       <r>    -9.2027    -0.0000    12.0000 </r>
       <r>    -9.0975    -0.0000    12.0000 </r>
       <r>    -8.9923    -0.0001    12.0000 </r>
       <r>    -8.8871    -0.0247    11.9974 </r>
       <r>    -8.7818    -0.5638    11.9381 </r>
       <r>    -8.6766     4.5772    12.4197 </r>
       <r>    -8.5714    14.1068    13.9040 </r>
       <r>    -8.4662     0.6014    13.9672 </r>
       <r>    -8.3610     5.2572    14.5204 </r>
       <r>    -8.2558    13.6333    15.9548 </r>
       <r>    -8.1505     0.6985    16.0283 </r>
       <r>    -8.0453    -0.3396    15.9926 </r>
       <r>    -7.9401    -0.5922    15.9303 </r>
       <r>    -7.8349     8.2385    16.7971 </r>
       <r>    -7.7297    12.4466    18.1067 </r>
       <r>    -7.6245    13.4489    19.5218 </r>
       <r>    -7.5192    16.3487    21.2419 </r>
       <r>    -7.4140    30.9805    24.5016 </r>
       <r>    -7.3088    14.8957    26.0689 </r>
       <r>    -7.2036     7.1285    26.8189 </r>
       <r>    -7.0984    23.5617    29.2980 </r>
       <r>    -6.9932    25.1730    31.9466 </r>
       <r>    -6.8879    19.1409    33.9606 </r>
       <r>    -6.7827    28.1085    36.9180 </r>
       <r>    -6.6775    33.0313    40.3935 </r>
       <r>    -6.5723    44.3461    45.0594 </r>
       <r>    -6.4671    42.1599    49.4954 </r>
       <r>    -6.3619    47.0752    54.4485 </r>
       <r>    -6.2566    49.6061    59.6679 </r>
       <r>    -6.1514    41.7369    64.0593 </r>
       <r>    -6.0462    32.1372    67.4407 </r>
       <r>    -5.9410    23.2607    69.8881 </r>
       <r>    -5.8358    30.7325    73.1217 </r>
       <r>    -5.7306    31.7830    76.4658 </r>
       <r>    -5.6253    42.7772    80.9666 </r>
       <r>    -5.5201    60.4266    87.3245 </r>
       <r>    -5.4149    51.4459    92.7375 </r>
       <r>    -5.3097    72.2414   100.3385 </r>
       <r>    -5.2045    83.0435   109.0761 </r>
       <r>    -5.0993    84.6848   117.9863 </r>
       <r>    -4.9940    82.9568   126.7148 </r>
       <r>    -4.8888    65.0163   133.5556 </r>
       <r>    -4.7836    65.3548   140.4320 </r>
       <r>    -4.6784    45.8426   145.2554 </r>
       <r>    -4.5732    19.3839   147.2949 </r>
       <r>    -4.4680     7.4089   148.0745 </r>
       <r>    -4.3627    -0.9518   147.9743 </r>
       <r>    -4.2575     1.0556   148.0854 </r>
       <r>    -4.1523    13.5009   149.5059 </r>
       <r>    -4.0471    10.8025   150.6425 </r>
       <r>    -3.9419    12.7131   151.9802 </r>
       <r>    -3.8367     0.4296   152.0254 </r>
       <r>    -3.7314    -0.2528   151.9988 </r>
       <r>    -3.6262    -0.4829   151.9480 </r>
       <r>    -3.5210     3.1333   152.2776 </r>
       <r>    -3.4158    14.5678   153.8104 </r>
       <r>    -3.3106     2.1733   154.0391 </r>
       <r>    -3.2054    -1.1229   153.9209 </r>
       <r>    -3.1001     6.3475   154.5888 </r>
       <r>    -2.9949    22.1923   156.9238 </r>
       <r>    -2.8897    10.9296   158.0738 </r>
       <r>    -2.7845    -0.5750   158.0133 </r>
       <r>    -2.6793    -0.2853   157.9833 </r>
       <r>    -2.5741    -0.9332   157.8851 </r>
       <r>    -2.4688    16.1104   159.5802 </r>
       <r>    -2.3636    23.0593   162.0064 </r>
       <r>    -2.2584     0.3136   162.0394 </r>
       <r>    -2.1532    -0.3720   162.0003 </r>
       <r>    -2.0480    -0.2449   161.9745 </r>
       <r>    -1.9428    -0.6140   161.9099 </r>
       <r>    -1.8375    18.4402   163.8501 </r>
       <r>    -1.7323    32.2799   167.2465 </r>
       <r>    -1.6271     8.0205   168.0904 </r>
       <r>    -1.5219    11.5624   169.3069 </r>
       <r>    -1.4167     7.2610   170.0709 </r>
       <r>    -1.3115    -0.6264   170.0050 </r>
       <r>    -1.2062    -0.4062   169.9623 </r>
       <r>    -1.1010     1.2824   170.0972 </r>
       <r>    -0.9958    14.7765   171.6519 </r>
       <r>    -0.8906    17.3056   173.4728 </r>
       <r>    -0.7854     5.2678   174.0271 </r>
       <r>    -0.6802     1.5821   174.1935 </r>
       <r>    -0.5749    14.5034   175.7195 </r>
       <r>    -0.4697     2.5386   175.9866 </r>
       <r>    -0.3645     3.3467   176.3387 </r>
       <r>    -0.2593    20.0924   178.4528 </r>
       <r>    -0.1541    15.5894   180.0931 </r>
       <r>    -0.0489    14.0682   181.5733 </r>
       <r>     0.0564    15.8809   183.2442 </r>
       <r>     0.1616     7.8683   184.0721 </r>
       <r>     0.2668    -0.6131   184.0076 </r>
       <r>     0.3720    -0.0717   184.0000 </r>
       <r>     0.4772    -0.0004   184.0000 </r>
       <r>     0.5824    -0.0000   184.0000 </r>
       <r>     0.6877    -0.0000   184.0000 </r>
       <r>     0.7929     0.0000   184.0000 </r>
       <r>     0.8981     0.0000   184.0000 </r>
       <r>     1.0033     0.0000   184.0000 </r>
       <r>     1.1085     0.0000   184.0000 </r>
       <r>     1.2137     0.0000   184.0000 </r>
       <r>     1.3190     0.0000   184.0000 </r>
       <r>     1.4242     0.0000   184.0000 </r>
       <r>     1.5294     0.0000   184.0000 </r>
      </set>
      <set comment="spin 2">
       <r>   -30.0356     0.0000     0.0000 </r>
       <r>   -29.9304     0.0000     0.0000 </r>
       <r>   -29.8252     0.0000     0.0000 </r>
       <r>   -29.7200     0.0000     0.0000 </r>
       <r>   -29.6148     0.0000     0.0000 </r>
       <r>   -29.5096     0.0000     0.0000 </r>
       <r>   -29.4043    -0.0000    -0.0000 </r>
       <r>   -29.2991    -0.0000    -0.0000 </r>
       <r>   -29.1939    -0.0000    -0.0000 </r>
       <r>   -29.0887    -0.0000    -0.0000 </r>
       <r>   -28.9835    -0.0000    -0.0000 </r>
       <r>   -28.8783    -0.0030    -0.0003 </r>
       <r>   -28.7730    -0.2361    -0.0252 </r>
       <r>   -28.6678     0.4379     0.0209 </r>
       <r>   -28.5626    13.2508     1.4151 </r>
       <r>   -28.4574     6.2153     2.0691 </r>
       <r>   -28.3522    -0.6161     2.0043 </r>
       <r>   -28.2470    -0.0403     2.0000 </r>
       <r>   -28.1417    -0.0001     2.0000 </r>
       <r>   -28.0365    -0.0000     2.0000 </r>
       <r>   -27.9313    -0.0000     2.0000 </r>
       <r>   -27.8261     0.0000     2.0000 </r>
       <r>   -27.7209     0.0000     2.0000 </r>
       <r>   -27.6157     0.0000     2.0000 </r>
       <r>   -27.5104     0.0000     2.0000 </r>
       <r>   -27.4052     0.0000     2.0000 </r>
       <r>   -27.3000     0.0000     2.0000 </r>
       <r>   -27.1948     0.0000     2.0000 </r>
       <r>   -27.0896     0.0000     2.0000 </r>
       <r>   -26.9844     0.0000     2.0000 </r>
       <r>   -26.8791     0.0000     2.0000 </r>
       <r>   -26.7739     0.0000     2.0000 </r>
       <r>   -26.6687     0.0000     2.0000 </r>
       <r>   -26.5635     0.0000     2.0000 </r>
       <r>   -26.4583     0.0000     2.0000 </r>
       <r>   -26.3530     0.0000     2.0000 </r>
       <r>   -26.2478     0.0000     2.0000 </r>
       <r>   -26.1426     0.0000     2.0000 </r>
       <r>   -26.0374     0.0000     2.0000 </r>
       <r>   -25.9322     0.0000     2.0000 </r>
       <r>   -25.8270     0.0000     2.0000 </r>
       <r>   -25.7217     0.0000     2.0000 </r>
       <r>   -25.6165     0.0000     2.0000 </r>
       <r>   -25.5113     0.0000     2.0000 </r>
       <r>   -25.4061     0.0000     2.0000 </r>
       <r>   -25.3009     0.0000     2.0000 </r>
       <r>   -25.1957     0.0000     2.0000 </r>
       <r>   -25.0904     0.0000     2.0000 </r>
       <r>   -24.9852     0.0000     2.0000 </r>
       <r>   -24.8800     0.0000     2.0000 </r>
       <r>   -24.7748     0.0000     2.0000 </r>
       <r>   -24.6696     0.0000     2.0000 </r>
       <r>   -24.5644     0.0000     2.0000 </r>
       <r>   -24.4591     0.0000     2.0000 </r>
       <r>   -24.3539     0.0000     2.0000 </r>
       <r>   -24.2487     0.0000     2.0000 </r>
       <r>   -24.1435     0.0000     2.0000 </r>
       <r>   -24.0383     0.0000     2.0000 </r>
       <r>   -23.9331     0.0000     2.0000 </r>
       <r>   -23.8278     0.0000     2.0000 </r>
       <r>   -23.7226     0.0000     2.0000 </r>
       <r>   -23.6174     0.0000     2.0000 </r>
       <r>   -23.5122     0.0000     2.0000 </r>
       <r>   -23.4070     0.0000     2.0000 </r>
       <r>   -23.3018     0.0000     2.0000 </r>
       <r>   -23.1965     0.0000     2.0000 </r>
       <r>   -23.0913     0.0000     2.0000 </r>
       <r>   -22.9861     0.0000     2.0000 </r>
       <r>   -22.8809     0.0000     2.0000 </r>
       <r>   -22.7757     0.0000     2.0000 </r>
       <r>   -22.6705     0.0000     2.0000 </r>
       <r>   -22.5652     0.0000     2.0000 </r>
       <r>   -22.4600     0.0000     2.0000 </r>
       <r>   -22.3548     0.0000     2.0000 </r>
       <r>   -22.2496     0.0000     2.0000 </r>
       <r>   -22.1444     0.0000     2.0000 </r>
       <r>   -22.0392     0.0000     2.0000 </r>
       <r>   -21.9339     0.0000     2.0000 </r>
       <r>   -21.8287     0.0000     2.0000 </r>
       <r>   -21.7235     0.0000     2.0000 </r>
       <r>   -21.6183     0.0000     2.0000 </r>
       <r>   -21.5131     0.0000     2.0000 </r>
       <r>   -21.4079     0.0000     2.0000 </r>
       <r>   -21.3026     0.0000     2.0000 </r>
       <r>   -21.1974     0.0000     2.0000 </r>
       <r>   -21.0922     0.0000     2.0000 </r>
       <r>   -20.9870     0.0000     2.0000 </r>
       <r>   -20.8818     0.0000     2.0000 </r>
       <r>   -20.7766     0.0000     2.0000 </r>
       <r>   -20.6713     0.0000     2.0000 </r>
       <r>   -20.5661     0.0000     2.0000 </r>
       <r>   -20.4609     0.0000     2.0000 </r>
       <r>   -20.3557     0.0000     2.0000 </r>
       <r>   -20.2505     0.0000     2.0000 </r>
       <r>   -20.1453     0.0000     2.0000 </r>
       <r>   -20.0400     0.0000     2.0000 </r>
       <r>   -19.9348     0.0000     2.0000 </r>
       <r>   -19.8296     0.0000     2.0000 </r>
       <r>   -19.7244     0.0000     2.0000 </r>
       <r>   -19.6192     0.0000     2.0000 </r>
       <r>   -19.5140     0.0000     2.0000 </r>
       <r>   -19.4087     0.0000     2.0000 </r>
       <r>   -19.3035     0.0000     2.0000 </r>
       <r>   -19.1983     0.0000     2.0000 </r>
       <r>   -19.0931     0.0000     2.0000 </r>
       <r>   -18.9879     0.0000     2.0000 </r>
       <r>   -18.8827     0.0000     2.0000 </r>
       <r>   -18.7774     0.0000     2.0000 </r>
       <r>   -18.6722     0.0000     2.0000 </r>
       <r>   -18.5670     0.0000     2.0000 </r>
       <r>   -18.4618     0.0000     2.0000 </r>
       <r>   -18.3566     0.0000     2.0000 </r>
       <r>   -18.2514     0.0000     2.0000 </r>
       <r>   -18.1461     0.0000     2.0000 </r>
       <r>   -18.0409     0.0000     2.0000 </r>
       <r>   -17.9357     0.0000     2.0000 </r>
       <r>   -17.8305     0.0000     2.0000 </r>
       <r>   -17.7253     0.0000     2.0000 </r>
       <r>   -17.6201     0.0000     2.0000 </r>
       <r>   -17.5148     0.0000     2.0000 </r>
       <r>   -17.4096     0.0000     2.0000 </r>
       <r>   -17.3044     0.0000     2.0000 </r>
       <r>   -17.1992     0.0000     2.0000 </r>
       <r>   -17.0940     0.0000     2.0000 </r>
       <r>   -16.9888     0.0000     2.0000 </r>
       <r>   -16.8835     0.0000     2.0000 </r>
       <r>   -16.7783     0.0000     2.0000 </r>
       <r>   -16.6731     0.0000     2.0000 </r>
       <r>   -16.5679     0.0000     2.0000 </r>
       <r>   -16.4627     0.0000     2.0000 </r>
       <r>   -16.3575     0.0000     2.0000 </r>
       <r>   -16.2522     0.0000     2.0000 </r>
       <r>   -16.1470     0.0000     2.0000 </r>
       <r>   -16.0418     0.0000     2.0000 </r>
       <r>   -15.9366     0.0000     2.0000 </r>
       <r>   -15.8314     0.0000     2.0000 </r>
       <r>   -15.7262     0.0000     2.0000 </r>
       <r>   -15.6209     0.0000     2.0000 </r>
       <r>   -15.5157     0.0000     2.0000 </r>
       <r>   -15.4105     0.0000     2.0000 </r>
       <r>   -15.3053     0.0000     2.0000 </r>
       <r>   -15.2001     0.0000     2.0000 </r>
       <r>   -15.0949     0.0000     2.0000 </r>
       <r>   -14.9896     0.0000     2.0000 </r>
       <r>   -14.8844     0.0000     2.0000 </r>
       <r>   -14.7792    -0.0000     2.0000 </r>
       <r>   -14.6740    -0.0000     2.0000 </r>
       <r>   -14.5688    -0.0000     2.0000 </r>
       <r>   -14.4636    -0.0000     2.0000 </r>
       <r>   -14.3583    -0.0000     2.0000 </r>
       <r>   -14.2531    -0.0003     2.0000 </r>
       <r>   -14.1479    -0.0610     1.9935 </r>
       <r>   -14.0427    -0.6112     1.9292 </r>
       <r>   -13.9375     7.7873     2.7486 </r>
       <r>   -13.8323    12.1160     4.0234 </r>
       <r>   -13.7270    -0.0465     4.0185 </r>
       <r>   -13.6218    -0.1741     4.0002 </r>
       <r>   -13.5166    -0.0017     4.0000 </r>
       <r>   -13.4114    -0.0000     4.0000 </r>
       <r>   -13.3062    -0.0000     4.0000 </r>
       <r>   -13.2010     0.0000     4.0000 </r>
       <r>   -13.0957     0.0000     4.0000 </r>
       <r>   -12.9905     0.0000     4.0000 </r>
       <r>   -12.8853     0.0000     4.0000 </r>
       <r>   -12.7801     0.0000     4.0000 </r>
       <r>   -12.6749     0.0000     4.0000 </r>
       <r>   -12.5697     0.0000     4.0000 </r>
       <r>   -12.4644     0.0000     4.0000 </r>
       <r>   -12.3592     0.0000     4.0000 </r>
       <r>   -12.2540    -0.0000     4.0000 </r>
       <r>   -12.1488    -0.0000     4.0000 </r>
       <r>   -12.0436    -0.0000     4.0000 </r>
       <r>   -11.9384    -0.0000     4.0000 </r>
       <r>   -11.8331    -0.0000     4.0000 </r>
       <r>   -11.7279    -0.0005     3.9999 </r>
       <r>   -11.6227    -0.0872     3.9908 </r>
       <r>   -11.5175    -0.5425     3.9337 </r>
       <r>   -11.4123     9.0032     4.8810 </r>
       <r>   -11.3070    11.2390     6.0635 </r>
       <r>   -11.2018    12.3292     7.3608 </r>
       <r>   -11.0966    14.4716     8.8834 </r>
       <r>   -10.9914    10.9941    10.0402 </r>
       <r>   -10.8862    -0.2267    10.0163 </r>
       <r>   -10.7810    -0.1538    10.0001 </r>
       <r>   -10.6757    -0.0014    10.0000 </r>
       <r>   -10.5705    -0.0000    10.0000 </r>
       <r>   -10.4653    -0.0139     9.9985 </r>
       <r>   -10.3601    -0.4710     9.9490 </r>
       <r>   -10.2549     3.0073    10.2654 </r>
       <r>   -10.1497    14.5833    11.7998 </r>
       <r>   -10.0444     2.3329    12.0453 </r>
       <r>    -9.9392    -0.4198    12.0011 </r>
       <r>    -9.8340    -0.0104    12.0000 </r>
       <r>    -9.7288    -0.0000    12.0000 </r>
       <r>    -9.6236    -0.0000    12.0000 </r>
       <r>    -9.5184    -0.0000    12.0000 </r>
       <r>    -9.4131    -0.0000    12.0000 </r>
       <r>    -9.3079    -0.0000    12.0000 </r>
       <r>    -9.2027    -0.0000    12.0000 </r>
       <r>    -9.0975    -0.0000    12.0000 </r>
       <r>    -8.9923    -0.0000    12.0000 </r>
       <r>    -8.8871    -0.0092    11.9990 </r>
       <r>    -8.7818    -0.3989    11.9571 </r>
       <r>    -8.6766     2.0798    12.1759 </r>
       <r>    -8.5714    14.5379    13.7055 </r>
       <r>    -8.4662     3.0602    14.0275 </r>
       <r>    -8.3610     0.0004    14.0276 </r>
       <r>    -8.2558    13.3245    15.4295 </r>
       <r>    -8.1505     6.0746    16.0687 </r>
       <r>    -8.0453    -0.6295    16.0024 </r>
       <r>    -7.9401    -0.5327    15.9464 </r>
       <r>    -7.8349     3.1907    16.2821 </r>
       <r>    -7.7297    14.2103    17.7773 </r>
       <r>    -7.6245    12.4736    19.0897 </r>
       <r>    -7.5192    12.2561    20.3792 </r>
       <r>    -7.4140    27.5127    23.2740 </r>
       <r>    -7.3088    25.5103    25.9581 </r>
       <r>    -7.2036     3.1615    26.2908 </r>
       <r>    -7.0984    19.7286    28.3666 </r>
       <r>    -6.9932    28.8658    31.4037 </r>
       <r>    -6.8879    17.3849    33.2329 </r>
       <r>    -6.7827    26.7714    36.0497 </r>
       <r>    -6.6775    31.4039    39.3539 </r>
       <r>    -6.5723    43.7535    43.9575 </r>
       <r>    -6.4671    41.8783    48.3638 </r>
       <r>    -6.3619    45.3690    53.1374 </r>
       <r>    -6.2566    51.2405    58.5288 </r>
       <r>    -6.1514    43.2946    63.0841 </r>
       <r>    -6.0462    36.3752    66.9114 </r>
       <r>    -5.9410    20.0671    69.0228 </r>
       <r>    -5.8358    30.1889    72.1992 </r>
       <r>    -5.7306    33.9331    75.7695 </r>
       <r>    -5.6253    36.2692    79.5856 </r>
       <r>    -5.5201    58.7469    85.7668 </r>
       <r>    -5.4149    50.8821    91.1204 </r>
       <r>    -5.3097    68.1655    98.2926 </r>
       <r>    -5.2045    81.9318   106.9132 </r>
       <r>    -5.0993    84.9156   115.8477 </r>
       <r>    -4.9940    86.3852   124.9369 </r>
       <r>    -4.8888    65.5103   131.8297 </r>
       <r>    -4.7836    64.3406   138.5994 </r>
       <r>    -4.6784    52.2183   144.0936 </r>
       <r>    -4.5732    24.2104   146.6410 </r>
       <r>    -4.4680    12.6343   147.9703 </r>
       <r>    -4.3627     0.5351   148.0266 </r>
       <r>    -4.2575    -0.8764   147.9344 </r>
       <r>    -4.1523     4.8227   148.4419 </r>
       <r>    -4.0471    15.6108   150.0844 </r>
       <r>    -3.9419    15.3231   151.6966 </r>
       <r>    -3.8367     3.4231   152.0568 </r>
       <r>    -3.7314    -0.5214   152.0019 </r>
       <r>    -3.6262    -0.0183   152.0000 </r>
       <r>    -3.5210    -0.0142   151.9985 </r>
       <r>    -3.4158    -0.4741   151.9486 </r>
       <r>    -3.3106     3.0457   152.2691 </r>
       <r>    -3.2054    14.2368   153.7670 </r>
       <r>    -3.1001     3.3050   154.1148 </r>
       <r>    -2.9949    15.4267   155.7379 </r>
       <r>    -2.8897    18.6664   157.7019 </r>
       <r>    -2.7845     3.4072   158.0604 </r>
       <r>    -2.6793    -0.5691   158.0005 </r>
       <r>    -2.5741    -0.6107   157.9363 </r>
       <r>    -2.4688     2.6229   158.2123 </r>
       <r>    -2.3636    25.1345   160.8568 </r>
       <r>    -2.2584    11.9002   162.1089 </r>
       <r>    -2.1532    -0.9301   162.0111 </r>
       <r>    -2.0480    -0.1261   161.9978 </r>
       <r>    -1.9428    -0.7828   161.9155 </r>
       <r>    -1.8375     3.7241   162.3073 </r>
       <r>    -1.7323    31.3784   165.6088 </r>
       <r>    -1.6271    22.0434   167.9282 </r>
       <r>    -1.5219     0.7025   168.0021 </r>
       <r>    -1.4167    10.7408   169.1322 </r>
       <r>    -1.3115     8.8921   170.0678 </r>
       <r>    -1.2062    -0.5639   170.0085 </r>
       <r>    -1.1010    -0.1720   169.9904 </r>
       <r>    -0.9958    -1.0354   169.8814 </r>
       <r>    -0.8906    11.7139   171.1139 </r>
       <r>    -0.7854    25.7723   173.8256 </r>
       <r>    -0.6802     1.6190   173.9959 </r>
       <r>    -0.5749     8.8258   174.9246 </r>
       <r>    -0.4697    10.6938   176.0497 </r>
       <r>    -0.3645    -0.9391   175.9509 </r>
       <r>    -0.2593     2.8103   176.2466 </r>
       <r>    -0.1541    21.6238   178.5218 </r>
       <r>    -0.0489    23.2246   180.9654 </r>
       <r>     0.0564    14.3753   182.4779 </r>
       <r>     0.1616    13.6093   183.9099 </r>
       <r>     0.2668     1.1922   184.0353 </r>
       <r>     0.3720    -0.3296   184.0006 </r>
       <r>     0.4772    -0.0059   184.0000 </r>
       <r>     0.5824    -0.0000   184.0000 </r>
       <r>     0.6877    -0.0000   184.0000 </r>
       <r>     0.7929    -0.0000   184.0000 </r>
       <r>     0.8981     0.0000   184.0000 </r>
       <r>     1.0033     0.0000   184.0000 </r>
       <r>     1.1085     0.0000   184.0000 </r>
       <r>     1.2137     0.0000   184.0000 </r>
       <r>     1.3190     0.0000   184.0000 </r>
       <r>     1.4242     0.0000   184.0000 </r>
       <r>     1.5294     0.0000   184.0000 </r>
      </set>
     </set>
    </array>
   </total>
  </dos>
 </calculation>
 <structure name="finalpos" >
  <crystal>
   <varray name="basis" >
    <v>      15.00000000       0.00000000       0.00000000 </v>
    <v>       0.00000000      15.00000000       0.00000000 </v>
    <v>       0.00000000       0.00000000      15.00000000 </v>
   </varray>
   <i name="volume">   3375.00000000 </i>
   <varray name="rec_basis" >
    <v>       0.06666667       0.00000000       0.00000000 </v>
    <v>       0.00000000       0.06666667       0.00000000 </v>
    <v>       0.00000000       0.00000000       0.06666667 </v>
   </varray>
  </crystal>
  <varray name="positions" >
   <v>       0.29675267       0.42291000       0.55593733 </v>
   <v>       0.37407933       0.54451000       0.49104600 </v>
   <v>       0.38780200       0.29276467       0.55304067 </v>
   <v>       0.52957333       0.51004867       0.48549400 </v>
   <v>       0.55617933       0.35646533       0.52625067 </v>
   <v>       0.45187533       0.43106800       0.60981400 </v>
   <v>       0.40490600       0.40437933       0.44961333 </v>
   <v>       0.22744933       0.55697800       0.55578067 </v>
   <v>       0.34249467       0.54982333       0.66814000 </v>
   <v>       0.35038067       0.67434667       0.56570933 </v>
   <v>       0.47285200       0.66385000       0.46767800 </v>
   <v>       0.63259000       0.48105000       0.59937667 </v>
   <v>       0.49086067       0.59447600       0.61936133 </v>
   <v>       0.74599333       0.49548067       0.64130867 </v>
   <v>       0.80891333       0.50818067       0.68398667 </v>
  </varray>
 </structure>
</modeling>
