<?xml version="1.0" encoding="ISO-8859-1"?>
<modeling>
 <generator>
  <i name="program" type="string">vasp </i>
  <i name="version" type="string">5.4.4.18Apr17-6-g9f103f2a35  </i>
  <i name="subversion" type="string">(build May 08 2019 13:49:07) complex            parallel </i>
  <i name="platform" type="string">LinuxIFC </i>
  <i name="date" type="string">2019 11 13 </i>
  <i name="time" type="string">11:21:28 </i>
 </generator>
 <incar>
  <i type="string" name="SYSTEM"> CuCO</i>
  <i type="int" name="ISTART">     0</i>
  <i type="string" name="PREC">accurate</i>
  <i type="string" name="ALGO"> Fast</i>
  <i type="int" name="ISPIN">     2</i>
  <i type="int" name="INIWAV">     1</i>
  <i type="int" name="NELM">   300</i>
  <i type="int" name="NELMIN">     3</i>
  <i type="int" name="IBRION">    -1</i>
  <i name="EDIFF">      0.00000010</i>
  <i name="EDIFFG">     -0.00100000</i>
  <i type="int" name="NSW">     0</i>
  <i type="int" name="ISYM">     0</i>
  <i name="ENCUT">    600.00000000</i>
  <i name="NUPDOWN">      1.00000000</i>
  <i type="logical" name="LREAL"> F  </i>
  <i type="int" name="ISMEAR">     1</i>
  <i name="SIGMA">      0.10000000</i>
  <i name="KSPACING">      0.50000000</i>
  <i type="logical" name="KGAMMA"> F  </i>
  <i type="logical" name="LWAVE"> F  </i>
  <i type="logical" name="LCHARG"> F  </i>
  <v type="int" name="KPOINT_BSE">    -1     0     0     0</v>
  <i type="int" name="NELM">   300</i>
  <i type="string" name="GGA"> PE</i>
 </incar>
 <structure name="primitive_cell" >
  <crystal>
   <varray name="basis" >
    <v>      15.00000000       0.00000000       0.00000000 </v>
    <v>       0.00000000      15.00000000       0.00000000 </v>
    <v>       0.00000000       0.00000000      15.00000000 </v>
   </varray>
   <i name="volume">   3375.00000000 </i>
   <varray name="rec_basis" >
    <v>       0.06666667       0.00000000       0.00000000 </v>
    <v>       0.00000000       0.06666667       0.00000000 </v>
    <v>       0.00000000       0.00000000       0.06666667 </v>
   </varray>
  </crystal>
  <varray name="positions" >
   <v>       0.28843533       0.42014867      -0.44063333 </v>
   <v>       0.22365600      -0.43737000      -0.44659000 </v>
   <v>       0.37197333      -0.45693933       0.49193333 </v>
   <v>       0.39502400       0.29621800      -0.43785200 </v>
   <v>       0.33243400      -0.45437600      -0.33956400 </v>
   <v>       0.45003533       0.43865533      -0.38447533 </v>
   <v>       0.41602800       0.39723467       0.44336933 </v>
   <v>       0.48177333      -0.40950733      -0.38748000 </v>
   <v>      -0.46947800      -0.49433133       0.47828400 </v>
   <v>      -0.45192600       0.34632867      -0.46709000 </v>
   <v>       0.35599600      -0.31391333      -0.43066200 </v>
   <v>       0.48609067      -0.33684333       0.47140867 </v>
   <v>      -0.36278733       0.48868267      -0.40190267 </v>
   <v>      -0.25423333       0.48900600      -0.35672867 </v>
   <v>      -0.18876000      -0.49218400      -0.32345333 </v>
  </varray>
 </structure>
 <varray name="primitive_index" >
  <v type="int" >        1 </v>
  <v type="int" >        8 </v>
  <v type="int" >        2 </v>
  <v type="int" >        3 </v>
  <v type="int" >        9 </v>
  <v type="int" >        6 </v>
  <v type="int" >        7 </v>
  <v type="int" >       13 </v>
  <v type="int" >        4 </v>
  <v type="int" >        5 </v>
  <v type="int" >       10 </v>
  <v type="int" >       11 </v>
  <v type="int" >       12 </v>
  <v type="int" >       14 </v>
  <v type="int" >       15 </v>
 </varray>
 <kpoints>
  <generation param="Monkhorst-Pack">
   <v type="int" name="divisions">       1        1        1 </v>
   <v name="usershift">      0.00000000       0.00000000       0.00000000 </v>
   <v name="genvec1">      1.00000000       0.00000000       0.00000000 </v>
   <v name="genvec2">      0.00000000       1.00000000       0.00000000 </v>
   <v name="genvec3">      0.00000000       0.00000000       1.00000000 </v>
   <v name="shift">      0.00000000       0.00000000       0.00000000 </v>
  </generation>
  <varray name="kpointlist" >
   <v>       0.00000000       0.00000000       0.00000000 </v>
  </varray>
  <varray name="weights" >
   <v>       1.00000000 </v>
  </varray>
 </kpoints>
 <parameters>
  <separator name="general" >
   <i type="string" name="SYSTEM">CuCO</i>
   <i type="logical" name="LCOMPAT"> F  </i>
  </separator>
  <separator name="electronic" >
   <i type="string" name="PREC">accura</i>
   <i name="ENMAX">    600.00000000</i>
   <i name="ENAUG">    644.87300000</i>
   <i name="EDIFF">      0.00000010</i>
   <i type="int" name="IALGO">    68</i>
   <i type="int" name="IWAVPR">    10</i>
   <i type="int" name="NBANDS">    92</i>
   <i name="NELECT">    153.00000000</i>
   <i type="int" name="TURBO">     0</i>
   <i type="int" name="IRESTART">     0</i>
   <i type="int" name="NREBOOT">     0</i>
   <i type="int" name="NMIN">     0</i>
   <i name="EREF">      0.00000000</i>
   <separator name="electronic smearing" >
    <i type="int" name="ISMEAR">     1</i>
    <i name="SIGMA">      0.10000000</i>
    <i name="KSPACING">      0.50000000</i>
    <i type="logical" name="KGAMMA"> F  </i>
   </separator>
   <separator name="electronic projectors" >
    <i type="logical" name="LREAL"> F  </i>
    <v name="ROPT">      0.00000000      0.00000000      0.00000000</v>
    <i type="int" name="LMAXPAW">  -100</i>
    <i type="int" name="LMAXMIX">     2</i>
    <i type="logical" name="NLSPLINE"> F  </i>
   </separator>
   <separator name="electronic startup" >
    <i type="int" name="ISTART">     0</i>
    <i type="int" name="ICHARG">     2</i>
    <i type="int" name="INIWAV">     1</i>
   </separator>
   <separator name="electronic spin" >
    <i type="int" name="ISPIN">     2</i>
    <i type="logical" name="LNONCOLLINEAR"> F  </i>
    <v name="MAGMOM">      0.06666667      0.06666667      0.06666667      0.06666667      0.06666667      0.06666667      0.06666667      0.06666667      0.06666667      0.06666667      0.06666667      0.06666667      0.06666667      0.06666667      0.06666667</v>
    <i name="NUPDOWN">      1.00000000</i>
    <i type="logical" name="LSORBIT"> F  </i>
    <v name="SAXIS">      0.00000000      0.00000000      1.00000000</v>
    <i type="logical" name="LSPIRAL"> F  </i>
    <v name="QSPIRAL">      0.00000000      0.00000000      0.00000000</v>
    <i type="logical" name="LZEROZ"> F  </i>
   </separator>
   <separator name="electronic exchange-correlation" >
    <i type="logical" name="LASPH"> F  </i>
    <i type="logical" name="LMETAGGA"> F  </i>
   </separator>
   <separator name="electronic convergence" >
    <i type="int" name="NELM">   300</i>
    <i type="int" name="NELMDL">    -5</i>
    <i type="int" name="NELMIN">     3</i>
    <i name="ENINI">    600.00000000</i>
    <separator name="electronic convergence detail" >
     <i type="logical" name="LDIAG"> T  </i>
     <i type="logical" name="LSUBROT"> F  </i>
     <i name="WEIMIN">      0.00000000</i>
     <i name="EBREAK">      0.00000000</i>
     <i name="DEPER">      0.30000000</i>
     <i type="int" name="NRMM">     4</i>
     <i name="TIME">      0.40000000</i>
    </separator>
   </separator>
   <separator name="electronic mixer" >
    <i name="AMIX">      0.40000000</i>
    <i name="BMIX">      1.00000000</i>
    <i name="AMIN">      0.10000000</i>
    <i name="AMIX_MAG">      1.60000000</i>
    <i name="BMIX_MAG">      1.00000000</i>
    <separator name="electronic mixer details" >
     <i type="int" name="IMIX">     4</i>
     <i type="logical" name="MIXFIRST"> F  </i>
     <i type="int" name="MAXMIX">   -45</i>
     <i name="WC">    100.00000000</i>
     <i type="int" name="INIMIX">     1</i>
     <i type="int" name="MIXPRE">     1</i>
     <i type="int" name="MREMOVE">     5</i>
    </separator>
   </separator>
   <separator name="electronic dipolcorrection" >
    <i type="logical" name="LDIPOL"> F  </i>
    <i type="logical" name="LMONO"> F  </i>
    <i type="int" name="IDIPOL">     0</i>
    <i name="EPSILON">      1.00000000</i>
    <v name="DIPOL">   -100.00000000   -100.00000000   -100.00000000</v>
    <i name="EFIELD">      0.00000000</i>
   </separator>
  </separator>
  <separator name="grids" >
   <i type="int" name="NGX">   120</i>
   <i type="int" name="NGY">   120</i>
   <i type="int" name="NGZ">   120</i>
   <i type="int" name="NGXF">   240</i>
   <i type="int" name="NGYF">   240</i>
   <i type="int" name="NGZF">   240</i>
   <i type="logical" name="ADDGRID"> F  </i>
  </separator>
  <separator name="ionic" >
   <i type="int" name="NSW">     0</i>
   <i type="int" name="IBRION">    -1</i>
   <i type="int" name="MDALGO">     0</i>
   <i type="int" name="ISIF">     2</i>
   <i name="PSTRESS">      0.00000000</i>
   <i name="EDIFFG">     -0.00100000</i>
   <i type="int" name="NFREE">     0</i>
   <i name="POTIM">      0.50000000</i>
   <i name="SMASS">     -3.00000000</i>
   <i name="SCALEE">      1.00000000</i>
  </separator>
  <separator name="ionic md" >
   <i name="TEBEG">      0.00010000</i>
   <i name="TEEND">      0.00010000</i>
   <i type="int" name="NBLOCK">     1</i>
   <i type="int" name="KBLOCK">     1</i>
   <i type="int" name="NPACO">   256</i>
   <i name="APACO">     16.00000000</i>
  </separator>
  <separator name="symmetry" >
   <i type="int" name="ISYM">     0</i>
   <i name="SYMPREC">      0.00001000</i>
  </separator>
  <separator name="dos" >
   <i type="int" name="LORBIT">     0</i>
   <v name="RWIGS">     -1.00000000     -1.00000000     -1.00000000</v>
   <i type="int" name="NEDOS">   301</i>
   <i name="EMIN">     10.00000000</i>
   <i name="EMAX">    -10.00000000</i>
   <i name="EFERMI">      0.00000000</i>
  </separator>
  <separator name="writing" >
   <i type="int" name="NWRITE">     2</i>
   <i type="logical" name="LWAVE"> F  </i>
   <i type="logical" name="LDOWNSAMPLE"> F  </i>
   <i type="logical" name="LCHARG"> F  </i>
   <i type="logical" name="LPARD"> F  </i>
   <i type="logical" name="LVTOT"> F  </i>
   <i type="logical" name="LVHAR"> F  </i>
   <i type="logical" name="LELF"> F  </i>
   <i type="logical" name="LOPTICS"> F  </i>
   <v name="STM">      0.00000000      0.00000000      0.00000000      0.00000000      0.00000000      0.00000000      0.00000000</v>
  </separator>
  <separator name="performance" >
   <i type="int" name="NPAR">     4</i>
   <i type="int" name="NSIM">     4</i>
   <i type="int" name="NBLK">    -1</i>
   <i type="logical" name="LPLANE"> T  </i>
   <i type="logical" name="LSCALAPACK"> T  </i>
   <i type="logical" name="LSCAAWARE"> F  </i>
   <i type="logical" name="LSCALU"> F  </i>
   <i type="logical" name="LASYNC"> F  </i>
   <i type="logical" name="LORBITALREAL"> F  </i>
  </separator>
  <separator name="miscellaneous" >
   <i type="int" name="IDIOT">     3</i>
   <i type="int" name="ISPECIAL">     0</i>
   <i type="logical" name="LMUSIC"> F  </i>
   <v name="POMASS">     63.54600000     12.01100000     16.00000000</v>
   <v name="DARWINR">      0.00000000      0.00000000      0.00000000</v>
   <v name="DARWINV">      1.00000000      1.00000000      1.00000000</v>
   <i type="logical" name="LCORR"> T  </i>
  </separator>
  <i type="logical" name="GGA_COMPAT"> T  </i>
  <i type="logical" name="LBERRY"> F  </i>
  <i type="int" name="ICORELEVEL">     0</i>
  <i type="logical" name="LDAU"> F  </i>
  <i type="int" name="I_CONSTRAINED_M">     0</i>
  <separator name="electronic exchange-correlation" >
   <i type="string" name="GGA">PE</i>
   <i type="int" name="VOSKOWN">     0</i>
   <i type="logical" name="LHFCALC"> F  </i>
   <i type="string" name="PRECFOCK"></i>
   <i type="logical" name="LSYMGRAD"> F  </i>
   <i type="logical" name="LHFONE"> F  </i>
   <i type="logical" name="LRHFCALC"> F  </i>
   <i type="logical" name="LTHOMAS"> F  </i>
   <i type="logical" name="LMODELHF"> F  </i>
   <i name="ENCUT4O">     -1.00000000</i>
   <i type="int" name="EXXOEP">     0</i>
   <i type="int" name="FOURORBIT">     0</i>
   <i name="AEXX">      0.00000000</i>
   <i name="HFALPHA">      0.00000000</i>
   <i name="MCALPHA">      0.00000000</i>
   <i name="ALDAX">      1.00000000</i>
   <i name="AGGAX">      1.00000000</i>
   <i name="ALDAC">      1.00000000</i>
   <i name="AGGAC">      1.00000000</i>
   <i type="int" name="NKREDX">     1</i>
   <i type="int" name="NKREDY">     1</i>
   <i type="int" name="NKREDZ">     1</i>
   <i type="logical" name="SHIFTRED"> F  </i>
   <i type="logical" name="ODDONLY"> F  </i>
   <i type="logical" name="EVENONLY"> F  </i>
   <i type="int" name="LMAXFOCK">     0</i>
   <i type="int" name="NMAXFOCKAE">     0</i>
   <i type="logical" name="LFOCKAEDFT"> F  </i>
   <i name="HFSCREEN">      0.00000000</i>
   <i name="HFSCREENC">      0.00000000</i>
   <i type="int" name="NBANDSGWLOW">     0</i>
  </separator>
  <separator name="vdW DFT" >
   <i type="logical" name="LUSE_VDW"> F  </i>
   <i name="Zab_VDW">     -0.84910000</i>
   <i name="PARAM1">      0.12340000</i>
   <i name="PARAM2">      1.00000000</i>
   <i name="PARAM3">      0.00000000</i>
  </separator>
  <separator name="model GW" >
   <i type="int" name="MODEL_GW">     0</i>
   <i name="MODEL_EPS0">    135.00000000</i>
   <i name="MODEL_ALPHA">      1.00000000</i>
  </separator>
  <separator name="linear response parameters" >
   <i type="logical" name="LEPSILON"> F  </i>
   <i type="logical" name="LRPA"> F  </i>
   <i type="logical" name="LNABLA"> F  </i>
   <i type="logical" name="LVEL"> F  </i>
   <i type="int" name="KINTER">     0</i>
   <i name="CSHIFT">      0.10000000</i>
   <i name="OMEGAMAX">     -1.00000000</i>
   <i name="DEG_THRESHOLD">      0.00200000</i>
   <i name="RTIME">     -0.10000000</i>
   <i name="WPLASMAI">      0.00000000</i>
   <v name="DFIELD">      0.00000000      0.00000000      0.00000000</v>
   <v name="WPLASMA">      0.00000000      0.00000000      0.00000000      0.00000000      0.00000000      0.00000000      0.00000000      0.00000000      0.00000000</v>
  </separator>
  <separator name="orbital magnetization" >
   <i type="logical" name="NUCIND"> F  </i>
   <v name="MAGPOS">      0.00000000      0.00000000      0.00000000</v>
   <i type="logical" name="LNICSALL"> T  </i>
   <i type="logical" name="ORBITALMAG"> F  </i>
   <i type="logical" name="LMAGBLOCH"> F  </i>
   <i type="logical" name="LCHIMAG"> F  </i>
   <i type="logical" name="LGAUGE"> T  </i>
   <i type="int" name="MAGATOM">     0</i>
   <v name="MAGDIPOL">      0.00000000      0.00000000      0.00000000</v>
   <v name="AVECCONST">      0.00000000      0.00000000      0.00000000</v>
  </separator>
  <separator name="response functions" >
   <i type="logical" name="LADDER"> F  </i>
   <i type="logical" name="LRPAFORCE"> F  </i>
   <i type="logical" name="LFXC"> F  </i>
   <i type="logical" name="LHARTREE"> T  </i>
   <i type="int" name="IBSE">     0</i>
   <v type="int" name="KPOINT">    -1     0     0     0</v>
   <i type="logical" name="LTCTE"> F  </i>
   <i type="logical" name="LTETE"> F  </i>
   <i type="logical" name="LTRIPLET"> F  </i>
   <i type="logical" name="LFXCEPS"> F  </i>
   <i type="logical" name="LFXHEG"> F  </i>
   <i type="int" name="NATURALO">     2</i>
   <i type="logical" name="L2ORDER"> F  </i>
   <i type="logical" name="LMP2LT"> F  </i>
   <i type="logical" name="LUSEW"> F  </i>
   <i name="ENCUTGW">     -2.00000000</i>
   <i name="ENCUTGWSOFT">     -2.00000000</i>
   <i name="ENCUTLF">     -1.00000000</i>
   <i type="int" name="LMAXMP2">    -1</i>
   <i name="SCISSOR">      0.00000000</i>
   <i type="int" name="NOMEGA">     0</i>
   <i type="int" name="NOMEGAR">     0</i>
   <i type="int" name="NBANDSGW">    -1</i>
   <i type="int" name="NBANDSO">    -1</i>
   <i type="int" name="NBANDSV">    -1</i>
   <i type="int" name="NELM">   300</i>
   <i type="int" name="NELMHF">     1</i>
   <i type="int" name="DIM">     3</i>
   <i type="int" name="ANTIRES">     0</i>
   <i name="OMEGAMAX">    -30.00000000</i>
   <i name="OMEGAMIN">    -30.00000000</i>
   <i name="OMEGATL">   -200.00000000</i>
   <i type="int" name="OMEGAGRID">   140</i>
   <i name="CSHIFT">     -0.10000000</i>
   <i type="logical" name="SELFENERGY"> F  </i>
   <i type="logical" name="LSPECTRAL"> F  </i>
   <i type="logical" name="LSPECTRALGW"> F  </i>
   <i type="logical" name="LSINGLES"> F  </i>
   <i type="logical" name="LFERMIGW"> F  </i>
   <i type="logical" name="ODDONLYGW"> F  </i>
   <i type="logical" name="EVENONLYGW"> F  </i>
   <i type="int" name="NKREDLFX">     1</i>
   <i type="int" name="NKREDLFY">     1</i>
   <i type="int" name="NKREDLFZ">     1</i>
   <i type="int" name="MAXMEM">  2800</i>
   <i type="int" name="TELESCOPE">     0</i>
   <i type="int" name="TAUPAR">     1</i>
   <i type="int" name="OMEGAPAR">    -1</i>
   <i name="LAMBDA">      1.00000000</i>
  </separator>
  <separator name="External order field" >
   <i name="OFIELD_KAPPA">      0.00000000</i>
   <v name="OFIELD_K">      0.00000000      0.00000000      0.00000000</v>
   <i name="OFIELD_Q6_NEAR">      0.00000000</i>
   <i name="OFIELD_Q6_FAR">      0.00000000</i>
   <i name="OFIELD_A">      0.00000000</i>
  </separator>
 </parameters>
 <atominfo>
  <atoms>      15 </atoms>
  <types>       3 </types>
  <array name="atoms" >
   <dimension dim="1">ion</dimension>
   <field type="string">element</field>
   <field type="int">atomtype</field>
   <set>
    <rc><c>Cu</c><c>   1</c></rc>
    <rc><c>Cu</c><c>   1</c></rc>
    <rc><c>Cu</c><c>   1</c></rc>
    <rc><c>Cu</c><c>   1</c></rc>
    <rc><c>Cu</c><c>   1</c></rc>
    <rc><c>Cu</c><c>   1</c></rc>
    <rc><c>Cu</c><c>   1</c></rc>
    <rc><c>Cu</c><c>   1</c></rc>
    <rc><c>Cu</c><c>   1</c></rc>
    <rc><c>Cu</c><c>   1</c></rc>
    <rc><c>Cu</c><c>   1</c></rc>
    <rc><c>Cu</c><c>   1</c></rc>
    <rc><c>Cu</c><c>   1</c></rc>
    <rc><c>C </c><c>   2</c></rc>
    <rc><c>O </c><c>   3</c></rc>
   </set>
  </array>
  <array name="atomtypes" >
   <dimension dim="1">type</dimension>
   <field type="int">atomspertype</field>
   <field type="string">element</field>
   <field>mass</field>
   <field>valence</field>
   <field type="string">pseudopotential</field>
   <set>
    <rc><c>  13</c><c>Cu</c><c>     63.54600000</c><c>     11.00000000</c><c>  PAW_PBE Cu 22Jun2005                  </c></rc>
    <rc><c>   1</c><c>C </c><c>     12.01100000</c><c>      4.00000000</c><c>  PAW_PBE C 08Apr2002                   </c></rc>
    <rc><c>   1</c><c>O </c><c>     16.00000000</c><c>      6.00000000</c><c>  PAW_PBE O 08Apr2002                   </c></rc>
   </set>
  </array>
 </atominfo>
 <structure name="initialpos" >
  <crystal>
   <varray name="basis" >
    <v>      15.00000000       0.00000000       0.00000000 </v>
    <v>       0.00000000      15.00000000       0.00000000 </v>
    <v>       0.00000000       0.00000000      15.00000000 </v>
   </varray>
   <i name="volume">   3375.00000000 </i>
   <varray name="rec_basis" >
    <v>       0.06666667       0.00000000       0.00000000 </v>
    <v>       0.00000000       0.06666667       0.00000000 </v>
    <v>       0.00000000       0.00000000       0.06666667 </v>
   </varray>
  </crystal>
  <varray name="positions" >
   <v>       0.28843533       0.42014867       0.55936667 </v>
   <v>       0.37197333       0.54306067       0.49193333 </v>
   <v>       0.39502400       0.29621800       0.56214800 </v>
   <v>       0.53052200       0.50566867       0.47828400 </v>
   <v>       0.54807400       0.34632867       0.53291000 </v>
   <v>       0.45003533       0.43865533       0.61552467 </v>
   <v>       0.41602800       0.39723467       0.44336933 </v>
   <v>       0.22365600       0.56263000       0.55341000 </v>
   <v>       0.33243400       0.54562400       0.66043600 </v>
   <v>       0.35599600       0.68608667       0.56933800 </v>
   <v>       0.48609067       0.66315667       0.47140867 </v>
   <v>       0.63721267       0.48868267       0.59809733 </v>
   <v>       0.48177333       0.59049267       0.61252000 </v>
   <v>       0.74576667       0.48900600       0.64327133 </v>
   <v>       0.81124000       0.50781600       0.67654667 </v>
  </varray>
 </structure>
 <calculation>
  <scstep>
   <time name="dav">    7.47    7.48</time>
   <time name="total">    8.67    8.68</time>
   <energy>
    <i name="alphaZ">     41.16232785 </i>
    <i name="ewald">  16187.03500502 </i>
    <i name="hartreedc"> -33208.00495016 </i>
    <i name="XCdc">    623.45608171 </i>
    <i name="pawpsdc">  16421.75059358 </i>
    <i name="pawaedc"> -17800.06104309 </i>
    <i name="eentropy">     -0.00595557 </i>
    <i name="bandstr">    192.78075282 </i>
    <i name="atom">  18662.21924712 </i>
    <i name="e_fr_energy">   1120.33205926 </i>
    <i name="e_wo_entrp">   1120.33801483 </i>
    <i name="e_0_energy">   1120.33404445 </i>
   </energy>
  </scstep>
  <scstep>
   <time name="dav">    7.33    7.35</time>
   <time name="total">    7.33    7.35</time>
   <energy>
    <i name="e_fr_energy">     89.86384921 </i>
    <i name="e_wo_entrp">     89.85805128 </i>
    <i name="e_0_energy">     89.86191657 </i>
   </energy>
  </scstep>
  <scstep>
   <time name="dav">   11.59   11.61</time>
   <time name="total">   11.59   11.61</time>
   <energy>
    <i name="e_fr_energy">    -34.27134692 </i>
    <i name="e_wo_entrp">    -34.27817232 </i>
    <i name="e_0_energy">    -34.27362205 </i>
   </energy>
  </scstep>
  <scstep>
   <time name="dav">   10.31   10.33</time>
   <time name="total">   10.31   10.33</time>
   <energy>
    <i name="e_fr_energy">    -55.86769318 </i>
    <i name="e_wo_entrp">    -55.87706004 </i>
    <i name="e_0_energy">    -55.87081546 </i>
   </energy>
  </scstep>
  <scstep>
   <time name="dav">   11.88   11.90</time>
   <time name="total">   12.56   12.57</time>
   <energy>
    <i name="e_fr_energy">    -57.27885189 </i>
    <i name="e_wo_entrp">    -57.28836166 </i>
    <i name="e_0_energy">    -57.28202182 </i>
   </energy>
  </scstep>
  <scstep>
   <time name="diag">    1.07    1.08</time>
   <time name="diis">    7.02    7.03</time>
   <time name="orth">    0.06    0.06</time>
   <time name="total">   10.01   10.04</time>
   <energy>
    <i name="e_fr_energy">    -56.70125455 </i>
    <i name="e_wo_entrp">    -56.70805224 </i>
    <i name="e_0_energy">    -56.70352045 </i>
   </energy>
  </scstep>
  <scstep>
   <time name="diag">    1.08    1.08</time>
   <time name="diis">    6.43    6.44</time>
   <time name="orth">    0.06    0.06</time>
   <time name="total">    9.41    9.42</time>
   <energy>
    <i name="e_fr_energy">    -49.01815931 </i>
    <i name="e_wo_entrp">    -49.02584976 </i>
    <i name="e_0_energy">    -49.02072280 </i>
   </energy>
  </scstep>
  <scstep>
   <time name="diag">    1.08    1.08</time>
   <time name="diis">    6.63    6.64</time>
   <time name="orth">    0.06    0.06</time>
   <time name="total">    9.62    9.63</time>
   <energy>
    <i name="e_fr_energy">    -48.81854822 </i>
    <i name="e_wo_entrp">    -48.82733478 </i>
    <i name="e_0_energy">    -48.82147707 </i>
   </energy>
  </scstep>
  <scstep>
   <time name="diag">    1.08    1.08</time>
   <time name="diis">    6.67    6.68</time>
   <time name="orth">    0.06    0.06</time>
   <time name="total">    9.66    9.67</time>
   <energy>
    <i name="e_fr_energy">    -48.73555624 </i>
    <i name="e_wo_entrp">    -48.74435450 </i>
    <i name="e_0_energy">    -48.73848899 </i>
   </energy>
  </scstep>
  <scstep>
   <time name="diag">    1.08    1.08</time>
   <time name="diis">    6.94    6.94</time>
   <time name="orth">    0.06    0.06</time>
   <time name="total">    9.92    9.93</time>
   <energy>
    <i name="e_fr_energy">    -48.67558045 </i>
    <i name="e_wo_entrp">    -48.68443227 </i>
    <i name="e_0_energy">    -48.67853106 </i>
   </energy>
  </scstep>
  <scstep>
   <time name="diag">    1.08    1.08</time>
   <time name="diis">    7.19    7.19</time>
   <time name="orth">    0.06    0.06</time>
   <time name="total">   10.18   10.19</time>
   <energy>
    <i name="e_fr_energy">    -48.65965997 </i>
    <i name="e_wo_entrp">    -48.66864407 </i>
    <i name="e_0_energy">    -48.66265467 </i>
   </energy>
  </scstep>
  <scstep>
   <time name="diag">    1.08    1.08</time>
   <time name="diis">    7.05    7.06</time>
   <time name="orth">    0.06    0.06</time>
   <time name="total">   10.05   10.06</time>
   <energy>
    <i name="e_fr_energy">    -48.65768641 </i>
    <i name="e_wo_entrp">    -48.66668936 </i>
    <i name="e_0_energy">    -48.66068739 </i>
   </energy>
  </scstep>
  <scstep>
   <time name="diag">    1.08    1.08</time>
   <time name="diis">    7.10    7.12</time>
   <time name="orth">    0.06    0.06</time>
   <time name="total">   10.10   10.12</time>
   <energy>
    <i name="e_fr_energy">    -48.65619104 </i>
    <i name="e_wo_entrp">    -48.66521639 </i>
    <i name="e_0_energy">    -48.65919949 </i>
   </energy>
  </scstep>
  <scstep>
   <time name="diag">    1.08    1.08</time>
   <time name="diis">    6.98    6.98</time>
   <time name="orth">    0.06    0.06</time>
   <time name="total">    9.98    9.99</time>
   <energy>
    <i name="e_fr_energy">    -48.65701250 </i>
    <i name="e_wo_entrp">    -48.66603906 </i>
    <i name="e_0_energy">    -48.66002135 </i>
   </energy>
  </scstep>
  <scstep>
   <time name="diag">    1.08    1.08</time>
   <time name="diis">    6.90    6.91</time>
   <time name="orth">    0.06    0.06</time>
   <time name="total">    9.90    9.91</time>
   <energy>
    <i name="e_fr_energy">    -48.65853776 </i>
    <i name="e_wo_entrp">    -48.66758472 </i>
    <i name="e_0_energy">    -48.66155342 </i>
   </energy>
  </scstep>
  <scstep>
   <time name="diag">    1.08    1.08</time>
   <time name="diis">    6.95    6.95</time>
   <time name="orth">    0.06    0.06</time>
   <time name="total">    9.95    9.96</time>
   <energy>
    <i name="e_fr_energy">    -48.66017607 </i>
    <i name="e_wo_entrp">    -48.66923211 </i>
    <i name="e_0_energy">    -48.66319475 </i>
   </energy>
  </scstep>
  <scstep>
   <time name="diag">    1.08    1.08</time>
   <time name="diis">    7.22    7.22</time>
   <time name="orth">    0.06    0.06</time>
   <time name="total">   10.22   10.23</time>
   <energy>
    <i name="e_fr_energy">    -48.66172912 </i>
    <i name="e_wo_entrp">    -48.67078358 </i>
    <i name="e_0_energy">    -48.66474727 </i>
   </energy>
  </scstep>
  <scstep>
   <time name="diag">    1.08    1.08</time>
   <time name="diis">    6.40    6.41</time>
   <time name="orth">    0.06    0.06</time>
   <time name="total">    9.41    9.42</time>
   <energy>
    <i name="e_fr_energy">    -48.66273176 </i>
    <i name="e_wo_entrp">    -48.67178944 </i>
    <i name="e_0_energy">    -48.66575099 </i>
   </energy>
  </scstep>
  <scstep>
   <time name="diag">    1.08    1.08</time>
   <time name="diis">    7.13    7.14</time>
   <time name="orth">    0.06    0.06</time>
   <time name="total">   10.14   10.15</time>
   <energy>
    <i name="e_fr_energy">    -48.66349006 </i>
    <i name="e_wo_entrp">    -48.67254694 </i>
    <i name="e_0_energy">    -48.66650902 </i>
   </energy>
  </scstep>
  <scstep>
   <time name="diag">    1.08    1.08</time>
   <time name="diis">    6.86    6.87</time>
   <time name="orth">    0.06    0.06</time>
   <time name="total">    9.87    9.88</time>
   <energy>
    <i name="e_fr_energy">    -48.66405119 </i>
    <i name="e_wo_entrp">    -48.67310797 </i>
    <i name="e_0_energy">    -48.66707012 </i>
   </energy>
  </scstep>
  <scstep>
   <time name="diag">    1.08    1.08</time>
   <time name="diis">    6.66    6.66</time>
   <time name="orth">    0.06    0.06</time>
   <time name="total">    9.67    9.68</time>
   <energy>
    <i name="e_fr_energy">    -48.66442908 </i>
    <i name="e_wo_entrp">    -48.67348504 </i>
    <i name="e_0_energy">    -48.66744774 </i>
   </energy>
  </scstep>
  <scstep>
   <time name="diag">    1.08    1.09</time>
   <time name="diis">    6.73    6.74</time>
   <time name="orth">    0.06    0.06</time>
   <time name="total">    9.74    9.75</time>
   <energy>
    <i name="e_fr_energy">    -48.66470251 </i>
    <i name="e_wo_entrp">    -48.67375760 </i>
    <i name="e_0_energy">    -48.66772087 </i>
   </energy>
  </scstep>
  <scstep>
   <time name="diag">    1.08    1.08</time>
   <time name="diis">    6.93    6.94</time>
   <time name="orth">    0.06    0.06</time>
   <time name="total">    9.94    9.95</time>
   <energy>
    <i name="e_fr_energy">    -48.66481803 </i>
    <i name="e_wo_entrp">    -48.67387383 </i>
    <i name="e_0_energy">    -48.66783663 </i>
   </energy>
  </scstep>
  <scstep>
   <time name="diag">    1.08    1.08</time>
   <time name="diis">    6.86    6.87</time>
   <time name="orth">    0.06    0.06</time>
   <time name="total">    9.88    9.89</time>
   <energy>
    <i name="e_fr_energy">    -48.66491575 </i>
    <i name="e_wo_entrp">    -48.67397172 </i>
    <i name="e_0_energy">    -48.66793440 </i>
   </energy>
  </scstep>
  <scstep>
   <time name="diag">    1.09    1.09</time>
   <time name="diis">    6.29    6.30</time>
   <time name="orth">    0.06    0.06</time>
   <time name="total">    9.31    9.32</time>
   <energy>
    <i name="e_fr_energy">    -48.66498778 </i>
    <i name="e_wo_entrp">    -48.67404360 </i>
    <i name="e_0_energy">    -48.66800639 </i>
   </energy>
  </scstep>
  <scstep>
   <time name="diag">    1.08    1.09</time>
   <time name="diis">    5.68    5.69</time>
   <time name="orth">    0.06    0.06</time>
   <time name="total">    8.70    8.71</time>
   <energy>
    <i name="e_fr_energy">    -48.66501273 </i>
    <i name="e_wo_entrp">    -48.67406839 </i>
    <i name="e_0_energy">    -48.66803128 </i>
   </energy>
  </scstep>
  <scstep>
   <time name="diag">    1.08    1.09</time>
   <time name="diis">    4.87    4.87</time>
   <time name="orth">    0.06    0.06</time>
   <time name="total">    7.89    7.90</time>
   <energy>
    <i name="e_fr_energy">    -48.66502310 </i>
    <i name="e_wo_entrp">    -48.67407877 </i>
    <i name="e_0_energy">    -48.66804166 </i>
   </energy>
  </scstep>
  <scstep>
   <time name="diag">    1.09    1.09</time>
   <time name="diis">    4.80    4.81</time>
   <time name="orth">    0.06    0.06</time>
   <time name="total">    7.83    7.84</time>
   <energy>
    <i name="e_fr_energy">    -48.66502748 </i>
    <i name="e_wo_entrp">    -48.67408309 </i>
    <i name="e_0_energy">    -48.66804602 </i>
   </energy>
  </scstep>
  <scstep>
   <time name="diag">    1.09    1.09</time>
   <time name="diis">    4.23    4.23</time>
   <time name="orth">    0.06    0.06</time>
   <time name="total">    7.26    7.27</time>
   <energy>
    <i name="e_fr_energy">    -48.66503060 </i>
    <i name="e_wo_entrp">    -48.67408616 </i>
    <i name="e_0_energy">    -48.66804912 </i>
   </energy>
  </scstep>
  <scstep>
   <time name="diag">    1.09    1.09</time>
   <time name="diis">    4.45    4.45</time>
   <time name="orth">    0.06    0.06</time>
   <time name="total">    7.49    7.49</time>
   <energy>
    <i name="e_fr_energy">    -48.66503156 </i>
    <i name="e_wo_entrp">    -48.67408711 </i>
    <i name="e_0_energy">    -48.66805007 </i>
   </energy>
  </scstep>
  <scstep>
   <time name="diag">    1.08    1.09</time>
   <time name="diis">    4.38    4.38</time>
   <time name="orth">    0.06    0.06</time>
   <time name="total">    7.43    7.43</time>
   <energy>
    <i name="e_fr_energy">    -48.66503255 </i>
    <i name="e_wo_entrp">    -48.67408807 </i>
    <i name="e_0_energy">    -48.66805106 </i>
   </energy>
  </scstep>
  <scstep>
   <time name="diag">    1.08    1.09</time>
   <time name="diis">    4.42    4.43</time>
   <time name="orth">    0.06    0.06</time>
   <time name="total">    7.48    7.48</time>
   <energy>
    <i name="e_fr_energy">    -48.66503317 </i>
    <i name="e_wo_entrp">    -48.67408869 </i>
    <i name="e_0_energy">    -48.66805167 </i>
   </energy>
  </scstep>
  <scstep>
   <time name="diag">    1.09    1.09</time>
   <time name="diis">    4.15    4.15</time>
   <time name="orth">    0.06    0.06</time>
   <time name="total">    7.21    7.22</time>
   <energy>
    <i name="e_fr_energy">    -48.66503370 </i>
    <i name="e_wo_entrp">    -48.67408924 </i>
    <i name="e_0_energy">    -48.66805221 </i>
   </energy>
  </scstep>
  <scstep>
   <time name="diag">    1.09    1.09</time>
   <time name="diis">    4.00    4.01</time>
   <time name="orth">    0.06    0.06</time>
   <time name="total">    7.07    7.08</time>
   <energy>
    <i name="e_fr_energy">    -48.66503405 </i>
    <i name="e_wo_entrp">    -48.67408959 </i>
    <i name="e_0_energy">    -48.66805256 </i>
   </energy>
  </scstep>
  <scstep>
   <time name="diag">    1.08    1.09</time>
   <time name="diis">    3.77    3.77</time>
   <time name="orth">    0.06    0.06</time>
   <time name="total">    6.85    6.85</time>
   <energy>
    <i name="e_fr_energy">    -48.66503430 </i>
    <i name="e_wo_entrp">    -48.67408984 </i>
    <i name="e_0_energy">    -48.66805281 </i>
   </energy>
  </scstep>
  <scstep>
   <time name="diag">    1.08    1.09</time>
   <time name="diis">    3.50    3.50</time>
   <time name="orth">    0.06    0.06</time>
   <time name="total">    6.57    6.58</time>
   <energy>
    <i name="e_fr_energy">    -48.66503453 </i>
    <i name="e_wo_entrp">    -48.67409007 </i>
    <i name="e_0_energy">    -48.66805305 </i>
   </energy>
  </scstep>
  <scstep>
   <time name="diag">    1.09    1.09</time>
   <time name="diis">    3.45    3.45</time>
   <time name="orth">    0.06    0.06</time>
   <time name="total">    5.79    5.79</time>
   <energy>
    <i name="alphaZ">     41.16232785 </i>
    <i name="ewald">  16187.03500502 </i>
    <i name="hartreedc"> -33167.12192325 </i>
    <i name="XCdc">    615.53777563 </i>
    <i name="pawpsdc">  17686.86756338 </i>
    <i name="pawaedc"> -19085.45771006 </i>
    <i name="eentropy">      0.00905554 </i>
    <i name="bandstr">   -988.91637582 </i>
    <i name="atom">  18662.21924712 </i>
    <i name="e_fr_energy">    -48.66503461 </i>
    <i name="e_wo_entrp">    -48.67409015 </i>
    <i name="e_0_energy">    -48.66805312 </i>
   </energy>
  </scstep>
  <structure>
   <crystal>
    <varray name="basis" >
     <v>      15.00000000       0.00000000       0.00000000 </v>
     <v>       0.00000000      15.00000000       0.00000000 </v>
     <v>       0.00000000       0.00000000      15.00000000 </v>
    </varray>
    <i name="volume">   3375.00000000 </i>
    <varray name="rec_basis" >
     <v>       0.06666667       0.00000000       0.00000000 </v>
     <v>       0.00000000       0.06666667       0.00000000 </v>
     <v>       0.00000000       0.00000000       0.06666667 </v>
    </varray>
   </crystal>
   <varray name="positions" >
    <v>       0.28843533       0.42014867       0.55936667 </v>
    <v>       0.37197333       0.54306067       0.49193333 </v>
    <v>       0.39502400       0.29621800       0.56214800 </v>
    <v>       0.53052200       0.50566867       0.47828400 </v>
    <v>       0.54807400       0.34632867       0.53291000 </v>
    <v>       0.45003533       0.43865533       0.61552467 </v>
    <v>       0.41602800       0.39723467       0.44336933 </v>
    <v>       0.22365600       0.56263000       0.55341000 </v>
    <v>       0.33243400       0.54562400       0.66043600 </v>
    <v>       0.35599600       0.68608667       0.56933800 </v>
    <v>       0.48609067       0.66315667       0.47140867 </v>
    <v>       0.63721267       0.48868267       0.59809733 </v>
    <v>       0.48177333       0.59049267       0.61252000 </v>
    <v>       0.74576667       0.48900600       0.64327133 </v>
    <v>       0.81124000       0.50781600       0.67654667 </v>
   </varray>
  </structure>
  <varray name="forces" >
   <v>       0.42085063      -0.35450446      -0.01036349 </v>
   <v>      -0.06661005       0.43110346       0.11383416 </v>
   <v>      -0.06485327      -0.22361213       0.20782105 </v>
   <v>       0.16353857      -0.14643217       0.25055729 </v>
   <v>       0.15619553       0.31494433      -0.22215765 </v>
   <v>      -0.02697699      -0.32735770      -0.27055014 </v>
   <v>       0.01406601      -0.00174954       0.36524106 </v>
   <v>      -0.34975350       0.58108390      -0.23415072 </v>
   <v>       0.44567846       0.03648569      -0.16006827 </v>
   <v>      -0.20781514      -0.34665060      -0.02159697 </v>
   <v>      -0.14066852      -0.04340097       0.11703477 </v>
   <v>      -1.55987123      -0.45552531      -0.67308390 </v>
   <v>       0.43516314       0.25272789      -0.02197882 </v>
   <v>      -1.18117348      -0.00955827      -0.22062685 </v>
   <v>       1.96222984       0.29244589       0.78008849 </v>
  </varray>
  <varray name="stress" >
   <v>       0.59897733      -0.17176027       0.95766425 </v>
   <v>      -0.17176027       0.36301944      -0.10454420 </v>
   <v>       0.95766425      -0.10454418      -0.47332244 </v>
  </varray>
  <energy>
   <i name="e_fr_energy">    -48.66503461 </i>
   <i name="e_wo_entrp">    -48.66805312 </i>
   <i name="e_0_energy">      0.00905554 </i>
  </energy>
  <time name="totalsc">  346.11  346.47</time>
  <eigenvalues>
   <array>
    <dimension dim="1">band</dimension>
    <dimension dim="2">kpoint</dimension>
    <dimension dim="3">spin</dimension>
    <field>eigene</field>
    <field>occ</field>
    <set>
     <set comment="spin 1">
      <set comment="kpoint 1">
       <r>  -28.9184    1.0000 </r>
       <r>  -14.0179    1.0000 </r>
       <r>  -11.6515    1.0000 </r>
       <r>  -11.4980    1.0000 </r>
       <r>  -11.3180    1.0000 </r>
       <r>  -10.1002    1.0000 </r>
       <r>   -8.5020    1.0000 </r>
       <r>   -8.1733    1.0000 </r>
       <r>   -7.6709    1.0000 </r>
       <r>   -7.4380    1.0000 </r>
       <r>   -7.3461    1.0000 </r>
       <r>   -7.2921    1.0000 </r>
       <r>   -7.2529    1.0000 </r>
       <r>   -7.1529    1.0000 </r>
       <r>   -7.0354    1.0000 </r>
       <r>   -6.9197    1.0000 </r>
       <r>   -6.7754    1.0000 </r>
       <r>   -6.7494    1.0000 </r>
       <r>   -6.6664    1.0000 </r>
       <r>   -6.5962    1.0000 </r>
       <r>   -6.5738    1.0000 </r>
       <r>   -6.5538    1.0000 </r>
       <r>   -6.5128    1.0000 </r>
       <r>   -6.4676    1.0000 </r>
       <r>   -6.4382    1.0000 </r>
       <r>   -6.3945    1.0000 </r>
       <r>   -6.3872    1.0000 </r>
       <r>   -6.2837    1.0000 </r>
       <r>   -6.2553    1.0000 </r>
       <r>   -6.2181    1.0000 </r>
       <r>   -6.1600    1.0000 </r>
       <r>   -6.1374    1.0000 </r>
       <r>   -6.0700    1.0000 </r>
       <r>   -6.0229    1.0000 </r>
       <r>   -5.9191    1.0000 </r>
       <r>   -5.8257    1.0000 </r>
       <r>   -5.7834    1.0000 </r>
       <r>   -5.7277    1.0000 </r>
       <r>   -5.6446    1.0000 </r>
       <r>   -5.6134    1.0000 </r>
       <r>   -5.5630    1.0000 </r>
       <r>   -5.5213    1.0000 </r>
       <r>   -5.4663    1.0000 </r>
       <r>   -5.4504    1.0000 </r>
       <r>   -5.4214    1.0000 </r>
       <r>   -5.3870    1.0000 </r>
       <r>   -5.3501    1.0000 </r>
       <r>   -5.3437    1.0000 </r>
       <r>   -5.3200    1.0000 </r>
       <r>   -5.3076    1.0000 </r>
       <r>   -5.2751    1.0000 </r>
       <r>   -5.2212    1.0000 </r>
       <r>   -5.2137    1.0000 </r>
       <r>   -5.1876    1.0000 </r>
       <r>   -5.1636    1.0000 </r>
       <r>   -5.1512    1.0000 </r>
       <r>   -5.1151    1.0000 </r>
       <r>   -5.1084    1.0000 </r>
       <r>   -5.0820    1.0000 </r>
       <r>   -5.0520    1.0000 </r>
       <r>   -5.0384    1.0000 </r>
       <r>   -4.9987    1.0000 </r>
       <r>   -4.9815    1.0000 </r>
       <r>   -4.9574    1.0000 </r>
       <r>   -4.9121    1.0000 </r>
       <r>   -4.8776    1.0000 </r>
       <r>   -4.8606    1.0000 </r>
       <r>   -4.8548    1.0000 </r>
       <r>   -4.8326    1.0000 </r>
       <r>   -4.7981    1.0000 </r>
       <r>   -4.7802    1.0000 </r>
       <r>   -4.7275    1.0000 </r>
       <r>   -4.6818    1.0000 </r>
       <r>   -4.5206    1.0000 </r>
       <r>   -4.1359    1.0000 </r>
       <r>   -4.0488    1.0000 </r>
       <r>   -3.5792    1.0000 </r>
       <r>   -2.9965   -0.0000 </r>
       <r>   -2.9485   -0.0000 </r>
       <r>   -2.4551   -0.0000 </r>
       <r>   -2.3475   -0.0000 </r>
       <r>   -1.9425   -0.0000 </r>
       <r>   -1.8390   -0.0000 </r>
       <r>   -1.6779   -0.0000 </r>
       <r>   -1.4970   -0.0000 </r>
       <r>   -1.1122   -0.0000 </r>
       <r>   -0.9341   -0.0000 </r>
       <r>   -0.6250    0.0000 </r>
       <r>   -0.3511    0.0000 </r>
       <r>   -0.2114    0.0000 </r>
       <r>   -0.0760    0.0000 </r>
       <r>    0.1083    0.0000 </r>
      </set>
     </set>
     <set comment="spin 2">
      <set comment="kpoint 1">
       <r>  -28.9025    1.0000 </r>
       <r>  -13.9864    1.0000 </r>
       <r>  -11.6317    1.0000 </r>
       <r>  -11.4726    1.0000 </r>
       <r>  -11.2748    1.0000 </r>
       <r>  -10.0550    1.0000 </r>
       <r>   -8.4802    1.0000 </r>
       <r>   -8.1271    1.0000 </r>
       <r>   -7.6239    1.0000 </r>
       <r>   -7.4191    1.0000 </r>
       <r>   -7.3217    1.0000 </r>
       <r>   -7.2497    1.0000 </r>
       <r>   -7.2034    1.0000 </r>
       <r>   -7.1288    1.0000 </r>
       <r>   -7.0077    1.0000 </r>
       <r>   -6.8871    1.0000 </r>
       <r>   -6.7516    1.0000 </r>
       <r>   -6.7167    1.0000 </r>
       <r>   -6.6322    1.0000 </r>
       <r>   -6.5803    1.0000 </r>
       <r>   -6.5543    1.0000 </r>
       <r>   -6.5333    1.0000 </r>
       <r>   -6.4811    1.0000 </r>
       <r>   -6.4388    1.0000 </r>
       <r>   -6.4147    1.0000 </r>
       <r>   -6.3721    1.0000 </r>
       <r>   -6.3523    1.0000 </r>
       <r>   -6.2624    1.0000 </r>
       <r>   -6.2321    1.0000 </r>
       <r>   -6.1971    1.0000 </r>
       <r>   -6.1373    1.0000 </r>
       <r>   -6.1026    1.0000 </r>
       <r>   -6.0437    1.0000 </r>
       <r>   -6.0012    1.0000 </r>
       <r>   -5.8952    1.0000 </r>
       <r>   -5.8008    1.0000 </r>
       <r>   -5.7488    1.0000 </r>
       <r>   -5.7053    1.0000 </r>
       <r>   -5.6226    1.0000 </r>
       <r>   -5.5861    1.0000 </r>
       <r>   -5.5367    1.0000 </r>
       <r>   -5.4931    1.0000 </r>
       <r>   -5.4331    1.0000 </r>
       <r>   -5.4227    1.0000 </r>
       <r>   -5.3978    1.0000 </r>
       <r>   -5.3506    1.0000 </r>
       <r>   -5.3213    1.0000 </r>
       <r>   -5.3161    1.0000 </r>
       <r>   -5.2918    1.0000 </r>
       <r>   -5.2818    1.0000 </r>
       <r>   -5.2416    1.0000 </r>
       <r>   -5.1945    1.0000 </r>
       <r>   -5.1882    1.0000 </r>
       <r>   -5.1649    1.0000 </r>
       <r>   -5.1399    1.0000 </r>
       <r>   -5.1196    1.0000 </r>
       <r>   -5.0967    1.0000 </r>
       <r>   -5.0807    1.0000 </r>
       <r>   -5.0632    1.0000 </r>
       <r>   -5.0181    1.0000 </r>
       <r>   -5.0113    1.0000 </r>
       <r>   -4.9746    1.0000 </r>
       <r>   -4.9630    1.0000 </r>
       <r>   -4.9232    1.0000 </r>
       <r>   -4.8843    1.0000 </r>
       <r>   -4.8506    1.0000 </r>
       <r>   -4.8347    1.0000 </r>
       <r>   -4.8122    1.0000 </r>
       <r>   -4.8043    1.0000 </r>
       <r>   -4.7618    1.0000 </r>
       <r>   -4.7489    1.0000 </r>
       <r>   -4.7045    1.0000 </r>
       <r>   -4.6481    1.0000 </r>
       <r>   -4.4771    1.0000 </r>
       <r>   -4.0743    1.0308 </r>
       <r>   -4.0045    0.9692 </r>
       <r>   -3.3751   -0.0000 </r>
       <r>   -2.9476   -0.0000 </r>
       <r>   -2.8951   -0.0000 </r>
       <r>   -2.3940   -0.0000 </r>
       <r>   -2.2620   -0.0000 </r>
       <r>   -1.9119   -0.0000 </r>
       <r>   -1.7504   -0.0000 </r>
       <r>   -1.6253   -0.0000 </r>
       <r>   -1.3958   -0.0000 </r>
       <r>   -0.9575    0.0000 </r>
       <r>   -0.8696    0.0000 </r>
       <r>   -0.5664    0.0000 </r>
       <r>   -0.2394    0.0000 </r>
       <r>   -0.1665    0.0000 </r>
       <r>   -0.0107    0.0000 </r>
       <r>    0.1537    0.0000 </r>
      </set>
     </set>
    </set>
   </array>
  </eigenvalues>
  <separator name="orbital magnetization" >
   <v name="MAGDIPOLOUT">      0.00000000      0.00000000      0.00000000</v>
  </separator>
  <dos>
   <i name="efermi">     -3.93170024 </i>
   <total>
    <array>
     <dimension dim="1">gridpoints</dimension>
     <dimension dim="2">spin</dimension>
     <field>energy</field>
     <field>total</field>
     <field>integrated</field>
     <set>
      <set comment="spin 1">
       <r>   -30.3720     0.0000     0.0000 </r>
       <r>   -30.2654     0.0000     0.0000 </r>
       <r>   -30.1588     0.0000     0.0000 </r>
       <r>   -30.0522     0.0000     0.0000 </r>
       <r>   -29.9456     0.0000     0.0000 </r>
       <r>   -29.8390     0.0000     0.0000 </r>
       <r>   -29.7324    -0.0000    -0.0000 </r>
       <r>   -29.6258    -0.0000    -0.0000 </r>
       <r>   -29.5192    -0.0000    -0.0000 </r>
       <r>   -29.4126    -0.0000    -0.0000 </r>
       <r>   -29.3060    -0.0000    -0.0000 </r>
       <r>   -29.1994    -0.0049    -0.0005 </r>
       <r>   -29.0928    -0.3077    -0.0333 </r>
       <r>   -28.9862     1.2115     0.0958 </r>
       <r>   -28.8796    14.1541     1.6046 </r>
       <r>   -28.7731     4.2656     2.0593 </r>
       <r>   -28.6665    -0.5366     2.0021 </r>
       <r>   -28.5599    -0.0199     2.0000 </r>
       <r>   -28.4533    -0.0000     2.0000 </r>
       <r>   -28.3467    -0.0000     2.0000 </r>
       <r>   -28.2401    -0.0000     2.0000 </r>
       <r>   -28.1335     0.0000     2.0000 </r>
       <r>   -28.0269     0.0000     2.0000 </r>
       <r>   -27.9203     0.0000     2.0000 </r>
       <r>   -27.8137     0.0000     2.0000 </r>
       <r>   -27.7071     0.0000     2.0000 </r>
       <r>   -27.6005     0.0000     2.0000 </r>
       <r>   -27.4939     0.0000     2.0000 </r>
       <r>   -27.3873     0.0000     2.0000 </r>
       <r>   -27.2807     0.0000     2.0000 </r>
       <r>   -27.1741     0.0000     2.0000 </r>
       <r>   -27.0675     0.0000     2.0000 </r>
       <r>   -26.9609     0.0000     2.0000 </r>
       <r>   -26.8543     0.0000     2.0000 </r>
       <r>   -26.7477     0.0000     2.0000 </r>
       <r>   -26.6411     0.0000     2.0000 </r>
       <r>   -26.5345     0.0000     2.0000 </r>
       <r>   -26.4279     0.0000     2.0000 </r>
       <r>   -26.3213     0.0000     2.0000 </r>
       <r>   -26.2147     0.0000     2.0000 </r>
       <r>   -26.1081     0.0000     2.0000 </r>
       <r>   -26.0015     0.0000     2.0000 </r>
       <r>   -25.8949     0.0000     2.0000 </r>
       <r>   -25.7883     0.0000     2.0000 </r>
       <r>   -25.6817     0.0000     2.0000 </r>
       <r>   -25.5751     0.0000     2.0000 </r>
       <r>   -25.4685     0.0000     2.0000 </r>
       <r>   -25.3619     0.0000     2.0000 </r>
       <r>   -25.2553     0.0000     2.0000 </r>
       <r>   -25.1487     0.0000     2.0000 </r>
       <r>   -25.0421     0.0000     2.0000 </r>
       <r>   -24.9355     0.0000     2.0000 </r>
       <r>   -24.8289     0.0000     2.0000 </r>
       <r>   -24.7223     0.0000     2.0000 </r>
       <r>   -24.6157     0.0000     2.0000 </r>
       <r>   -24.5091     0.0000     2.0000 </r>
       <r>   -24.4025     0.0000     2.0000 </r>
       <r>   -24.2959     0.0000     2.0000 </r>
       <r>   -24.1893     0.0000     2.0000 </r>
       <r>   -24.0827     0.0000     2.0000 </r>
       <r>   -23.9762     0.0000     2.0000 </r>
       <r>   -23.8696     0.0000     2.0000 </r>
       <r>   -23.7630     0.0000     2.0000 </r>
       <r>   -23.6564     0.0000     2.0000 </r>
       <r>   -23.5498     0.0000     2.0000 </r>
       <r>   -23.4432     0.0000     2.0000 </r>
       <r>   -23.3366     0.0000     2.0000 </r>
       <r>   -23.2300     0.0000     2.0000 </r>
       <r>   -23.1234     0.0000     2.0000 </r>
       <r>   -23.0168     0.0000     2.0000 </r>
       <r>   -22.9102     0.0000     2.0000 </r>
       <r>   -22.8036     0.0000     2.0000 </r>
       <r>   -22.6970     0.0000     2.0000 </r>
       <r>   -22.5904     0.0000     2.0000 </r>
       <r>   -22.4838     0.0000     2.0000 </r>
       <r>   -22.3772     0.0000     2.0000 </r>
       <r>   -22.2706     0.0000     2.0000 </r>
       <r>   -22.1640     0.0000     2.0000 </r>
       <r>   -22.0574     0.0000     2.0000 </r>
       <r>   -21.9508     0.0000     2.0000 </r>
       <r>   -21.8442     0.0000     2.0000 </r>
       <r>   -21.7376     0.0000     2.0000 </r>
       <r>   -21.6310     0.0000     2.0000 </r>
       <r>   -21.5244     0.0000     2.0000 </r>
       <r>   -21.4178     0.0000     2.0000 </r>
       <r>   -21.3112     0.0000     2.0000 </r>
       <r>   -21.2046     0.0000     2.0000 </r>
       <r>   -21.0980     0.0000     2.0000 </r>
       <r>   -20.9914     0.0000     2.0000 </r>
       <r>   -20.8848     0.0000     2.0000 </r>
       <r>   -20.7782     0.0000     2.0000 </r>
       <r>   -20.6716     0.0000     2.0000 </r>
       <r>   -20.5650     0.0000     2.0000 </r>
       <r>   -20.4584     0.0000     2.0000 </r>
       <r>   -20.3518     0.0000     2.0000 </r>
       <r>   -20.2452     0.0000     2.0000 </r>
       <r>   -20.1386     0.0000     2.0000 </r>
       <r>   -20.0320     0.0000     2.0000 </r>
       <r>   -19.9254     0.0000     2.0000 </r>
       <r>   -19.8188     0.0000     2.0000 </r>
       <r>   -19.7122     0.0000     2.0000 </r>
       <r>   -19.6056     0.0000     2.0000 </r>
       <r>   -19.4990     0.0000     2.0000 </r>
       <r>   -19.3924     0.0000     2.0000 </r>
       <r>   -19.2858     0.0000     2.0000 </r>
       <r>   -19.1792     0.0000     2.0000 </r>
       <r>   -19.0727     0.0000     2.0000 </r>
       <r>   -18.9661     0.0000     2.0000 </r>
       <r>   -18.8595     0.0000     2.0000 </r>
       <r>   -18.7529     0.0000     2.0000 </r>
       <r>   -18.6463     0.0000     2.0000 </r>
       <r>   -18.5397     0.0000     2.0000 </r>
       <r>   -18.4331     0.0000     2.0000 </r>
       <r>   -18.3265     0.0000     2.0000 </r>
       <r>   -18.2199     0.0000     2.0000 </r>
       <r>   -18.1133     0.0000     2.0000 </r>
       <r>   -18.0067     0.0000     2.0000 </r>
       <r>   -17.9001     0.0000     2.0000 </r>
       <r>   -17.7935     0.0000     2.0000 </r>
       <r>   -17.6869     0.0000     2.0000 </r>
       <r>   -17.5803     0.0000     2.0000 </r>
       <r>   -17.4737     0.0000     2.0000 </r>
       <r>   -17.3671     0.0000     2.0000 </r>
       <r>   -17.2605     0.0000     2.0000 </r>
       <r>   -17.1539     0.0000     2.0000 </r>
       <r>   -17.0473     0.0000     2.0000 </r>
       <r>   -16.9407     0.0000     2.0000 </r>
       <r>   -16.8341     0.0000     2.0000 </r>
       <r>   -16.7275     0.0000     2.0000 </r>
       <r>   -16.6209     0.0000     2.0000 </r>
       <r>   -16.5143     0.0000     2.0000 </r>
       <r>   -16.4077     0.0000     2.0000 </r>
       <r>   -16.3011     0.0000     2.0000 </r>
       <r>   -16.1945     0.0000     2.0000 </r>
       <r>   -16.0879     0.0000     2.0000 </r>
       <r>   -15.9813     0.0000     2.0000 </r>
       <r>   -15.8747     0.0000     2.0000 </r>
       <r>   -15.7681     0.0000     2.0000 </r>
       <r>   -15.6615     0.0000     2.0000 </r>
       <r>   -15.5549     0.0000     2.0000 </r>
       <r>   -15.4483     0.0000     2.0000 </r>
       <r>   -15.3417     0.0000     2.0000 </r>
       <r>   -15.2351     0.0000     2.0000 </r>
       <r>   -15.1285     0.0000     2.0000 </r>
       <r>   -15.0219     0.0000     2.0000 </r>
       <r>   -14.9153    -0.0000     2.0000 </r>
       <r>   -14.8087    -0.0000     2.0000 </r>
       <r>   -14.7021    -0.0000     2.0000 </r>
       <r>   -14.5955    -0.0000     2.0000 </r>
       <r>   -14.4889    -0.0000     2.0000 </r>
       <r>   -14.3823    -0.0000     2.0000 </r>
       <r>   -14.2757    -0.0151     1.9984 </r>
       <r>   -14.1692    -0.4929     1.9458 </r>
       <r>   -14.0626     3.5203     2.3211 </r>
       <r>   -13.9560    14.4078     3.8569 </r>
       <r>   -13.8494     1.7023     4.0384 </r>
       <r>   -13.7428    -0.3536     4.0007 </r>
       <r>   -13.6362    -0.0066     4.0000 </r>
       <r>   -13.5296    -0.0000     4.0000 </r>
       <r>   -13.4230    -0.0000     4.0000 </r>
       <r>   -13.3164    -0.0000     4.0000 </r>
       <r>   -13.2098     0.0000     4.0000 </r>
       <r>   -13.1032     0.0000     4.0000 </r>
       <r>   -12.9966     0.0000     4.0000 </r>
       <r>   -12.8900     0.0000     4.0000 </r>
       <r>   -12.7834     0.0000     4.0000 </r>
       <r>   -12.6768     0.0000     4.0000 </r>
       <r>   -12.5702     0.0000     4.0000 </r>
       <r>   -12.4636    -0.0000     4.0000 </r>
       <r>   -12.3570    -0.0000     4.0000 </r>
       <r>   -12.2504    -0.0000     4.0000 </r>
       <r>   -12.1438    -0.0000     4.0000 </r>
       <r>   -12.0372    -0.0000     4.0000 </r>
       <r>   -11.9306    -0.0054     3.9994 </r>
       <r>   -11.8240    -0.3227     3.9650 </r>
       <r>   -11.7174     1.2871     4.1022 </r>
       <r>   -11.6108    13.6886     5.5614 </r>
       <r>   -11.5042    12.8185     6.9278 </r>
       <r>   -11.3976    10.7609     8.0749 </r>
       <r>   -11.2910    12.9168     9.4518 </r>
       <r>   -11.1844     5.7778    10.0677 </r>
       <r>   -11.0778    -0.6021    10.0035 </r>
       <r>   -10.9712    -0.0332    10.0000 </r>
       <r>   -10.8646    -0.0001    10.0000 </r>
       <r>   -10.7580    -0.0000    10.0000 </r>
       <r>   -10.6514    -0.0000    10.0000 </r>
       <r>   -10.5448    -0.0000    10.0000 </r>
       <r>   -10.4382    -0.0002    10.0000 </r>
       <r>   -10.3316    -0.0476     9.9949 </r>
       <r>   -10.2250    -0.6159     9.9293 </r>
       <r>   -10.1184     7.2010    10.6969 </r>
       <r>   -10.0118    12.3833    12.0169 </r>
       <r>    -9.9052     0.0175    12.0188 </r>
       <r>    -9.7986    -0.1744    12.0002 </r>
       <r>    -9.6920    -0.0016    12.0000 </r>
       <r>    -9.5854    -0.0000    12.0000 </r>
       <r>    -9.4788    -0.0000    12.0000 </r>
       <r>    -9.3723    -0.0000    12.0000 </r>
       <r>    -9.2657    -0.0000    12.0000 </r>
       <r>    -9.1591    -0.0000    12.0000 </r>
       <r>    -9.0525    -0.0000    12.0000 </r>
       <r>    -8.9459    -0.0000    12.0000 </r>
       <r>    -8.8393    -0.0002    12.0000 </r>
       <r>    -8.7327    -0.0492    11.9947 </r>
       <r>    -8.6261    -0.6152    11.9292 </r>
       <r>    -8.5195     7.3255    12.7100 </r>
       <r>    -8.4129    12.2537    14.0163 </r>
       <r>    -8.3063    -0.6185    13.9503 </r>
       <r>    -8.1997     5.8140    14.5701 </r>
       <r>    -8.0931    13.2367    15.9811 </r>
       <r>    -7.9865     0.4011    16.0238 </r>
       <r>    -7.8799    -0.3323    15.9884 </r>
       <r>    -7.7733    -0.4059    15.9452 </r>
       <r>    -7.6667    10.5130    17.0658 </r>
       <r>    -7.5601     8.6143    17.9841 </r>
       <r>    -7.4535     6.0370    18.6276 </r>
       <r>    -7.3469    23.8344    21.1683 </r>
       <r>    -7.2403    36.1486    25.0217 </r>
       <r>    -7.1337    22.2244    27.3907 </r>
       <r>    -7.0271    16.5335    29.1532 </r>
       <r>    -6.9205    16.9700    30.9621 </r>
       <r>    -6.8139    14.5873    32.5171 </r>
       <r>    -6.7073    30.0669    35.7222 </r>
       <r>    -6.6007    36.4478    39.6074 </r>
       <r>    -6.4941    58.6352    45.8578 </r>
       <r>    -6.3875    55.9088    51.8176 </r>
       <r>    -6.2809    37.6154    55.8273 </r>
       <r>    -6.1743    46.6799    60.8033 </r>
       <r>    -6.0677    42.4866    65.3322 </r>
       <r>    -5.9611    27.1024    68.2213 </r>
       <r>    -5.8545    20.8894    70.4481 </r>
       <r>    -5.7479    34.0302    74.0756 </r>
       <r>    -5.6413    32.9876    77.5920 </r>
       <r>    -5.5347    43.1821    82.1951 </r>
       <r>    -5.4281    55.9999    88.1646 </r>
       <r>    -5.3215    79.6905    96.6594 </r>
       <r>    -5.2149    76.9994   104.8674 </r>
       <r>    -5.1083    89.1818   114.3740 </r>
       <r>    -5.0017    83.1717   123.2399 </r>
       <r>    -4.8951    71.6228   130.8747 </r>
       <r>    -4.7885    83.4403   139.7693 </r>
       <r>    -4.6819    48.1498   144.9019 </r>
       <r>    -4.5753    13.5653   146.3480 </r>
       <r>    -4.4688    13.3585   147.7720 </r>
       <r>    -4.3622     2.5267   148.0413 </r>
       <r>    -4.2556    -1.1591   147.9177 </r>
       <r>    -4.1490     7.6237   148.7304 </r>
       <r>    -4.0424    22.6239   151.1421 </r>
       <r>    -3.9358     8.8333   152.0837 </r>
       <r>    -3.8292    -0.7298   152.0059 </r>
       <r>    -3.7226    -0.6265   151.9391 </r>
       <r>    -3.6160     4.5256   152.4215 </r>
       <r>    -3.5094    14.0421   153.9184 </r>
       <r>    -3.4028     1.0631   154.0317 </r>
       <r>    -3.2962    -0.2949   154.0003 </r>
       <r>    -3.1896    -0.2210   153.9767 </r>
       <r>    -3.0830    -0.5014   153.9233 </r>
       <r>    -2.9764    18.3656   155.8810 </r>
       <r>    -2.8698    20.2891   158.0438 </r>
       <r>    -2.7632    -0.1333   158.0296 </r>
       <r>    -2.6566    -0.4185   157.9849 </r>
       <r>    -2.5500    -0.3523   157.9474 </r>
       <r>    -2.4434    11.3454   159.1568 </r>
       <r>    -2.3368    19.6479   161.2512 </r>
       <r>    -2.2302     7.7400   162.0763 </r>
       <r>    -2.1236    -0.9179   161.9784 </r>
       <r>    -2.0170     0.3929   162.0203 </r>
       <r>    -1.9104    14.6203   163.5788 </r>
       <r>    -1.8038    18.4924   165.5500 </r>
       <r>    -1.6972    11.0602   166.7290 </r>
       <r>    -1.5906    11.7461   167.9811 </r>
       <r>    -1.4840    11.7896   169.2379 </r>
       <r>    -1.3774     7.8032   170.0697 </r>
       <r>    -1.2708    -1.0400   169.9588 </r>
       <r>    -1.1642     2.5690   170.2327 </r>
       <r>    -1.0576    13.9293   171.7175 </r>
       <r>    -0.9510     9.8072   172.7630 </r>
       <r>    -0.8444    11.7410   174.0145 </r>
       <r>    -0.7378    -0.6019   173.9504 </r>
       <r>    -0.6312     8.8575   174.8945 </r>
       <r>    -0.5246    10.5289   176.0169 </r>
       <r>    -0.4180     0.7995   176.1021 </r>
       <r>    -0.3114    13.6884   177.5613 </r>
       <r>    -0.2048    14.4304   179.0995 </r>
       <r>    -0.0982    14.9294   180.6910 </r>
       <r>     0.0084    11.8920   181.9586 </r>
       <r>     0.1150    11.0177   183.1331 </r>
       <r>     0.2216     8.7718   184.0681 </r>
       <r>     0.3281    -0.5642   184.0080 </r>
       <r>     0.4347    -0.0747   184.0000 </r>
       <r>     0.5413    -0.0004   184.0000 </r>
       <r>     0.6479    -0.0000   184.0000 </r>
       <r>     0.7545    -0.0000   184.0000 </r>
       <r>     0.8611     0.0000   184.0000 </r>
       <r>     0.9677     0.0000   184.0000 </r>
       <r>     1.0743     0.0000   184.0000 </r>
       <r>     1.1809     0.0000   184.0000 </r>
       <r>     1.2875     0.0000   184.0000 </r>
       <r>     1.3941     0.0000   184.0000 </r>
       <r>     1.5007     0.0000   184.0000 </r>
       <r>     1.6073     0.0000   184.0000 </r>
      </set>
      <set comment="spin 2">
       <r>   -30.3720     0.0000     0.0000 </r>
       <r>   -30.2654     0.0000     0.0000 </r>
       <r>   -30.1588     0.0000     0.0000 </r>
       <r>   -30.0522     0.0000     0.0000 </r>
       <r>   -29.9456     0.0000     0.0000 </r>
       <r>   -29.8390     0.0000     0.0000 </r>
       <r>   -29.7324    -0.0000    -0.0000 </r>
       <r>   -29.6258    -0.0000    -0.0000 </r>
       <r>   -29.5192    -0.0000    -0.0000 </r>
       <r>   -29.4126    -0.0000    -0.0000 </r>
       <r>   -29.3060    -0.0000    -0.0000 </r>
       <r>   -29.1994    -0.0021    -0.0002 </r>
       <r>   -29.0928    -0.2000    -0.0215 </r>
       <r>   -28.9862     0.2186     0.0018 </r>
       <r>   -28.8796    12.8836     1.3751 </r>
       <r>   -28.7731     6.5146     2.0696 </r>
       <r>   -28.6665    -0.6130     2.0042 </r>
       <r>   -28.5599    -0.0395     2.0000 </r>
       <r>   -28.4533    -0.0001     2.0000 </r>
       <r>   -28.3467    -0.0000     2.0000 </r>
       <r>   -28.2401    -0.0000     2.0000 </r>
       <r>   -28.1335     0.0000     2.0000 </r>
       <r>   -28.0269     0.0000     2.0000 </r>
       <r>   -27.9203     0.0000     2.0000 </r>
       <r>   -27.8137     0.0000     2.0000 </r>
       <r>   -27.7071     0.0000     2.0000 </r>
       <r>   -27.6005     0.0000     2.0000 </r>
       <r>   -27.4939     0.0000     2.0000 </r>
       <r>   -27.3873     0.0000     2.0000 </r>
       <r>   -27.2807     0.0000     2.0000 </r>
       <r>   -27.1741     0.0000     2.0000 </r>
       <r>   -27.0675     0.0000     2.0000 </r>
       <r>   -26.9609     0.0000     2.0000 </r>
       <r>   -26.8543     0.0000     2.0000 </r>
       <r>   -26.7477     0.0000     2.0000 </r>
       <r>   -26.6411     0.0000     2.0000 </r>
       <r>   -26.5345     0.0000     2.0000 </r>
       <r>   -26.4279     0.0000     2.0000 </r>
       <r>   -26.3213     0.0000     2.0000 </r>
       <r>   -26.2147     0.0000     2.0000 </r>
       <r>   -26.1081     0.0000     2.0000 </r>
       <r>   -26.0015     0.0000     2.0000 </r>
       <r>   -25.8949     0.0000     2.0000 </r>
       <r>   -25.7883     0.0000     2.0000 </r>
       <r>   -25.6817     0.0000     2.0000 </r>
       <r>   -25.5751     0.0000     2.0000 </r>
       <r>   -25.4685     0.0000     2.0000 </r>
       <r>   -25.3619     0.0000     2.0000 </r>
       <r>   -25.2553     0.0000     2.0000 </r>
       <r>   -25.1487     0.0000     2.0000 </r>
       <r>   -25.0421     0.0000     2.0000 </r>
       <r>   -24.9355     0.0000     2.0000 </r>
       <r>   -24.8289     0.0000     2.0000 </r>
       <r>   -24.7223     0.0000     2.0000 </r>
       <r>   -24.6157     0.0000     2.0000 </r>
       <r>   -24.5091     0.0000     2.0000 </r>
       <r>   -24.4025     0.0000     2.0000 </r>
       <r>   -24.2959     0.0000     2.0000 </r>
       <r>   -24.1893     0.0000     2.0000 </r>
       <r>   -24.0827     0.0000     2.0000 </r>
       <r>   -23.9762     0.0000     2.0000 </r>
       <r>   -23.8696     0.0000     2.0000 </r>
       <r>   -23.7630     0.0000     2.0000 </r>
       <r>   -23.6564     0.0000     2.0000 </r>
       <r>   -23.5498     0.0000     2.0000 </r>
       <r>   -23.4432     0.0000     2.0000 </r>
       <r>   -23.3366     0.0000     2.0000 </r>
       <r>   -23.2300     0.0000     2.0000 </r>
       <r>   -23.1234     0.0000     2.0000 </r>
       <r>   -23.0168     0.0000     2.0000 </r>
       <r>   -22.9102     0.0000     2.0000 </r>
       <r>   -22.8036     0.0000     2.0000 </r>
       <r>   -22.6970     0.0000     2.0000 </r>
       <r>   -22.5904     0.0000     2.0000 </r>
       <r>   -22.4838     0.0000     2.0000 </r>
       <r>   -22.3772     0.0000     2.0000 </r>
       <r>   -22.2706     0.0000     2.0000 </r>
       <r>   -22.1640     0.0000     2.0000 </r>
       <r>   -22.0574     0.0000     2.0000 </r>
       <r>   -21.9508     0.0000     2.0000 </r>
       <r>   -21.8442     0.0000     2.0000 </r>
       <r>   -21.7376     0.0000     2.0000 </r>
       <r>   -21.6310     0.0000     2.0000 </r>
       <r>   -21.5244     0.0000     2.0000 </r>
       <r>   -21.4178     0.0000     2.0000 </r>
       <r>   -21.3112     0.0000     2.0000 </r>
       <r>   -21.2046     0.0000     2.0000 </r>
       <r>   -21.0980     0.0000     2.0000 </r>
       <r>   -20.9914     0.0000     2.0000 </r>
       <r>   -20.8848     0.0000     2.0000 </r>
       <r>   -20.7782     0.0000     2.0000 </r>
       <r>   -20.6716     0.0000     2.0000 </r>
       <r>   -20.5650     0.0000     2.0000 </r>
       <r>   -20.4584     0.0000     2.0000 </r>
       <r>   -20.3518     0.0000     2.0000 </r>
       <r>   -20.2452     0.0000     2.0000 </r>
       <r>   -20.1386     0.0000     2.0000 </r>
       <r>   -20.0320     0.0000     2.0000 </r>
       <r>   -19.9254     0.0000     2.0000 </r>
       <r>   -19.8188     0.0000     2.0000 </r>
       <r>   -19.7122     0.0000     2.0000 </r>
       <r>   -19.6056     0.0000     2.0000 </r>
       <r>   -19.4990     0.0000     2.0000 </r>
       <r>   -19.3924     0.0000     2.0000 </r>
       <r>   -19.2858     0.0000     2.0000 </r>
       <r>   -19.1792     0.0000     2.0000 </r>
       <r>   -19.0727     0.0000     2.0000 </r>
       <r>   -18.9661     0.0000     2.0000 </r>
       <r>   -18.8595     0.0000     2.0000 </r>
       <r>   -18.7529     0.0000     2.0000 </r>
       <r>   -18.6463     0.0000     2.0000 </r>
       <r>   -18.5397     0.0000     2.0000 </r>
       <r>   -18.4331     0.0000     2.0000 </r>
       <r>   -18.3265     0.0000     2.0000 </r>
       <r>   -18.2199     0.0000     2.0000 </r>
       <r>   -18.1133     0.0000     2.0000 </r>
       <r>   -18.0067     0.0000     2.0000 </r>
       <r>   -17.9001     0.0000     2.0000 </r>
       <r>   -17.7935     0.0000     2.0000 </r>
       <r>   -17.6869     0.0000     2.0000 </r>
       <r>   -17.5803     0.0000     2.0000 </r>
       <r>   -17.4737     0.0000     2.0000 </r>
       <r>   -17.3671     0.0000     2.0000 </r>
       <r>   -17.2605     0.0000     2.0000 </r>
       <r>   -17.1539     0.0000     2.0000 </r>
       <r>   -17.0473     0.0000     2.0000 </r>
       <r>   -16.9407     0.0000     2.0000 </r>
       <r>   -16.8341     0.0000     2.0000 </r>
       <r>   -16.7275     0.0000     2.0000 </r>
       <r>   -16.6209     0.0000     2.0000 </r>
       <r>   -16.5143     0.0000     2.0000 </r>
       <r>   -16.4077     0.0000     2.0000 </r>
       <r>   -16.3011     0.0000     2.0000 </r>
       <r>   -16.1945     0.0000     2.0000 </r>
       <r>   -16.0879     0.0000     2.0000 </r>
       <r>   -15.9813     0.0000     2.0000 </r>
       <r>   -15.8747     0.0000     2.0000 </r>
       <r>   -15.7681     0.0000     2.0000 </r>
       <r>   -15.6615     0.0000     2.0000 </r>
       <r>   -15.5549     0.0000     2.0000 </r>
       <r>   -15.4483     0.0000     2.0000 </r>
       <r>   -15.3417     0.0000     2.0000 </r>
       <r>   -15.2351     0.0000     2.0000 </r>
       <r>   -15.1285     0.0000     2.0000 </r>
       <r>   -15.0219     0.0000     2.0000 </r>
       <r>   -14.9153     0.0000     2.0000 </r>
       <r>   -14.8087    -0.0000     2.0000 </r>
       <r>   -14.7021    -0.0000     2.0000 </r>
       <r>   -14.5955    -0.0000     2.0000 </r>
       <r>   -14.4889    -0.0000     2.0000 </r>
       <r>   -14.3823    -0.0000     2.0000 </r>
       <r>   -14.2757    -0.0031     1.9997 </r>
       <r>   -14.1692    -0.2485     1.9732 </r>
       <r>   -14.0626     0.6375     2.0411 </r>
       <r>   -13.9560    13.5947     3.4903 </r>
       <r>   -13.8494     5.3967     4.0656 </r>
       <r>   -13.7428    -0.5864     4.0031 </r>
       <r>   -13.6362    -0.0286     4.0000 </r>
       <r>   -13.5296    -0.0001     4.0000 </r>
       <r>   -13.4230    -0.0000     4.0000 </r>
       <r>   -13.3164    -0.0000     4.0000 </r>
       <r>   -13.2098     0.0000     4.0000 </r>
       <r>   -13.1032     0.0000     4.0000 </r>
       <r>   -12.9966     0.0000     4.0000 </r>
       <r>   -12.8900     0.0000     4.0000 </r>
       <r>   -12.7834     0.0000     4.0000 </r>
       <r>   -12.6768     0.0000     4.0000 </r>
       <r>   -12.5702     0.0000     4.0000 </r>
       <r>   -12.4636    -0.0000     4.0000 </r>
       <r>   -12.3570    -0.0000     4.0000 </r>
       <r>   -12.2504    -0.0000     4.0000 </r>
       <r>   -12.1438    -0.0000     4.0000 </r>
       <r>   -12.0372    -0.0000     4.0000 </r>
       <r>   -11.9306    -0.0019     3.9998 </r>
       <r>   -11.8240    -0.1892     3.9796 </r>
       <r>   -11.7174     0.1041     3.9907 </r>
       <r>   -11.6108    12.1024     5.2808 </r>
       <r>   -11.5042    11.9858     6.5585 </r>
       <r>   -11.3976    12.4534     7.8860 </r>
       <r>   -11.2910     8.1703     8.7569 </r>
       <r>   -11.1844    11.8904    10.0244 </r>
       <r>   -11.0778    -0.0638    10.0176 </r>
       <r>   -10.9712    -0.1638    10.0002 </r>
       <r>   -10.8646    -0.0014    10.0000 </r>
       <r>   -10.7580    -0.0000    10.0000 </r>
       <r>   -10.6514    -0.0000    10.0000 </r>
       <r>   -10.5448    -0.0000    10.0000 </r>
       <r>   -10.4382    -0.0000    10.0000 </r>
       <r>   -10.3316    -0.0061     9.9993 </r>
       <r>   -10.2250    -0.3419     9.9629 </r>
       <r>   -10.1184     1.5739    10.1307 </r>
       <r>   -10.0118    14.3565    11.6610 </r>
       <r>    -9.9052     3.7003    12.0555 </r>
       <r>    -9.7986    -0.5042    12.0017 </r>
       <r>    -9.6920    -0.0162    12.0000 </r>
       <r>    -9.5854    -0.0000    12.0000 </r>
       <r>    -9.4788    -0.0000    12.0000 </r>
       <r>    -9.3723    -0.0000    12.0000 </r>
       <r>    -9.2657    -0.0000    12.0000 </r>
       <r>    -9.1591    -0.0000    12.0000 </r>
       <r>    -9.0525    -0.0000    12.0000 </r>
       <r>    -8.9459    -0.0000    12.0000 </r>
       <r>    -8.8393    -0.0000    12.0000 </r>
       <r>    -8.7327    -0.0194    11.9979 </r>
       <r>    -8.6261    -0.5329    11.9411 </r>
       <r>    -8.5195     4.1968    12.3885 </r>
       <r>    -8.4129    14.1780    13.8998 </r>
       <r>    -8.3063     0.9799    14.0043 </r>
       <r>    -8.1997     0.5526    14.0632 </r>
       <r>    -8.0931    13.8541    15.5400 </r>
       <r>    -7.9865     4.9073    16.0631 </r>
       <r>    -7.8799    -0.5840    16.0009 </r>
       <r>    -7.7733    -0.5322    15.9441 </r>
       <r>    -7.6667     3.7314    16.3419 </r>
       <r>    -7.5601    13.7375    17.8063 </r>
       <r>    -7.4535     5.6255    18.4059 </r>
       <r>    -7.3469    18.8019    20.4102 </r>
       <r>    -7.2403    29.2031    23.5232 </r>
       <r>    -7.1337    31.2504    26.8544 </r>
       <r>    -7.0271    17.3725    28.7063 </r>
       <r>    -6.9205    16.2707    30.4407 </r>
       <r>    -6.8139    14.8366    32.0222 </r>
       <r>    -6.7073    25.5394    34.7447 </r>
       <r>    -6.6007    35.6420    38.5440 </r>
       <r>    -6.4941    54.9713    44.4039 </r>
       <r>    -6.3875    56.1747    50.3920 </r>
       <r>    -6.2809    42.8664    54.9614 </r>
       <r>    -6.1743    43.9447    59.6458 </r>
       <r>    -6.0677    43.4533    64.2778 </r>
       <r>    -5.9611    32.7340    67.7672 </r>
       <r>    -5.8545    19.1755    69.8113 </r>
       <r>    -5.7479    30.5032    73.0629 </r>
       <r>    -5.6413    34.4967    76.7401 </r>
       <r>    -5.5347    39.7227    80.9745 </r>
       <r>    -5.4281    49.6217    86.2641 </r>
       <r>    -5.3215    74.2754    94.1817 </r>
       <r>    -5.2149    80.7373   102.7881 </r>
       <r>    -5.1083    87.2411   112.0878 </r>
       <r>    -5.0017    86.4169   121.2996 </r>
       <r>    -4.8951    69.3471   128.6919 </r>
       <r>    -4.7885    80.4711   137.2699 </r>
       <r>    -4.6819    62.6253   143.9457 </r>
       <r>    -4.5753    19.5672   146.0315 </r>
       <r>    -4.4688    10.7331   147.1756 </r>
       <r>    -4.3622     8.3815   148.0690 </r>
       <r>    -4.2556    -0.8596   147.9774 </r>
       <r>    -4.1490     0.1143   147.9896 </r>
       <r>    -4.0424    18.0883   149.9178 </r>
       <r>    -3.9358    19.3013   151.9752 </r>
       <r>    -3.8292     0.5650   152.0355 </r>
       <r>    -3.7226    -0.3281   152.0005 </r>
       <r>    -3.6160    -0.0369   151.9966 </r>
       <r>    -3.5094    -0.5986   151.9327 </r>
       <r>    -3.4028     5.7926   152.5502 </r>
       <r>    -3.2962    13.3587   153.9742 </r>
       <r>    -3.1896     0.4415   154.0213 </r>
       <r>    -3.0830    -1.0392   153.9105 </r>
       <r>    -2.9764     5.9739   154.5473 </r>
       <r>    -2.8698    26.5849   157.3812 </r>
       <r>    -2.7632     6.6879   158.0941 </r>
       <r>    -2.6566    -0.8565   158.0028 </r>
       <r>    -2.5500    -0.4970   157.9499 </r>
       <r>    -2.4434     2.7050   158.2382 </r>
       <r>    -2.3368    15.2373   159.8625 </r>
       <r>    -2.2302    15.8439   161.5514 </r>
       <r>    -2.1236     4.7229   162.0548 </r>
       <r>    -2.0170    -1.0538   161.9425 </r>
       <r>    -1.9104     9.7184   162.9785 </r>
       <r>    -1.8038    11.9895   164.2565 </r>
       <r>    -1.6972    14.9572   165.8509 </r>
       <r>    -1.5906    16.1977   167.5776 </r>
       <r>    -1.4840     4.4055   168.0472 </r>
       <r>    -1.3774    11.8230   169.3075 </r>
       <r>    -1.2708     7.1593   170.0707 </r>
       <r>    -1.1642    -0.7374   169.9920 </r>
       <r>    -1.0576    -0.6166   169.9263 </r>
       <r>    -0.9510    11.2116   171.1215 </r>
       <r>    -0.8444    22.1149   173.4789 </r>
       <r>    -0.7378     5.2714   174.0408 </r>
       <r>    -0.6312     0.7693   174.1228 </r>
       <r>    -0.5246    14.2583   175.6427 </r>
       <r>    -0.4180     3.5831   176.0246 </r>
       <r>    -0.3114    -0.1488   176.0088 </r>
       <r>    -0.2048    18.0227   177.9299 </r>
       <r>    -0.0982    18.9856   179.9538 </r>
       <r>     0.0084    12.5579   181.2924 </r>
       <r>     0.1150    11.0142   182.4665 </r>
       <r>     0.2216    13.5331   183.9091 </r>
       <r>     0.3281     1.1654   184.0333 </r>
       <r>     0.4347    -0.3079   184.0005 </r>
       <r>     0.5413    -0.0049   184.0000 </r>
       <r>     0.6479    -0.0000   184.0000 </r>
       <r>     0.7545    -0.0000   184.0000 </r>
       <r>     0.8611    -0.0000   184.0000 </r>
       <r>     0.9677     0.0000   184.0000 </r>
       <r>     1.0743     0.0000   184.0000 </r>
       <r>     1.1809     0.0000   184.0000 </r>
       <r>     1.2875     0.0000   184.0000 </r>
       <r>     1.3941     0.0000   184.0000 </r>
       <r>     1.5007     0.0000   184.0000 </r>
       <r>     1.6073     0.0000   184.0000 </r>
      </set>
     </set>
    </array>
   </total>
  </dos>
 </calculation>
 <structure name="finalpos" >
  <crystal>
   <varray name="basis" >
    <v>      15.00000000       0.00000000       0.00000000 </v>
    <v>       0.00000000      15.00000000       0.00000000 </v>
    <v>       0.00000000       0.00000000      15.00000000 </v>
   </varray>
   <i name="volume">   3375.00000000 </i>
   <varray name="rec_basis" >
    <v>       0.06666667       0.00000000       0.00000000 </v>
    <v>       0.00000000       0.06666667       0.00000000 </v>
    <v>       0.00000000       0.00000000       0.06666667 </v>
   </varray>
  </crystal>
  <varray name="positions" >
   <v>       0.28843533       0.42014867       0.55936667 </v>
   <v>       0.37197333       0.54306067       0.49193333 </v>
   <v>       0.39502400       0.29621800       0.56214800 </v>
   <v>       0.53052200       0.50566867       0.47828400 </v>
   <v>       0.54807400       0.34632867       0.53291000 </v>
   <v>       0.45003533       0.43865533       0.61552467 </v>
   <v>       0.41602800       0.39723467       0.44336933 </v>
   <v>       0.22365600       0.56263000       0.55341000 </v>
   <v>       0.33243400       0.54562400       0.66043600 </v>
   <v>       0.35599600       0.68608667       0.56933800 </v>
   <v>       0.48609067       0.66315667       0.47140867 </v>
   <v>       0.63721267       0.48868267       0.59809733 </v>
   <v>       0.48177333       0.59049267       0.61252000 </v>
   <v>       0.74576667       0.48900600       0.64327133 </v>
   <v>       0.81124000       0.50781600       0.67654667 </v>
  </varray>
 </structure>
</modeling>
