<?xml version="1.0" encoding="ISO-8859-1"?>
<modeling>
 <generator>
  <i name="program" type="string">vasp </i>
  <i name="version" type="string">5.4.4.18Apr17-6-g9f103f2a35  </i>
  <i name="subversion" type="string">(build May 08 2019 13:49:07) complex            parallel </i>
  <i name="platform" type="string">LinuxIFC </i>
  <i name="date" type="string">2019 11 13 </i>
  <i name="time" type="string">11:10:30 </i>
 </generator>
 <incar>
  <i type="string" name="SYSTEM"> CuCO</i>
  <i type="int" name="ISTART">     0</i>
  <i type="string" name="PREC">accurate</i>
  <i type="string" name="ALGO"> Fast</i>
  <i type="int" name="ISPIN">     2</i>
  <i type="int" name="INIWAV">     1</i>
  <i type="int" name="NELM">   300</i>
  <i type="int" name="NELMIN">     3</i>
  <i type="int" name="IBRION">    -1</i>
  <i name="EDIFF">      0.00000010</i>
  <i name="EDIFFG">     -0.00100000</i>
  <i type="int" name="NSW">     0</i>
  <i type="int" name="ISYM">     0</i>
  <i name="ENCUT">    600.00000000</i>
  <i name="NUPDOWN">      1.00000000</i>
  <i type="logical" name="LREAL"> F  </i>
  <i type="int" name="ISMEAR">     1</i>
  <i name="SIGMA">      0.10000000</i>
  <i name="KSPACING">      0.50000000</i>
  <i type="logical" name="KGAMMA"> F  </i>
  <i type="logical" name="LWAVE"> F  </i>
  <i type="logical" name="LCHARG"> F  </i>
  <v type="int" name="KPOINT_BSE">    -1     0     0     0</v>
  <i type="int" name="NELM">   300</i>
  <i type="string" name="GGA"> PE</i>
 </incar>
 <structure name="primitive_cell" >
  <crystal>
   <varray name="basis" >
    <v>      15.00000000       0.00000000       0.00000000 </v>
    <v>       0.00000000      15.00000000       0.00000000 </v>
    <v>       0.00000000       0.00000000      15.00000000 </v>
   </varray>
   <i name="volume">   3375.00000000 </i>
   <varray name="rec_basis" >
    <v>       0.06666667       0.00000000       0.00000000 </v>
    <v>       0.00000000       0.06666667       0.00000000 </v>
    <v>       0.00000000       0.00000000       0.06666667 </v>
   </varray>
  </crystal>
  <varray name="positions" >
   <v>       0.28569333       0.41609200      -0.44304867 </v>
   <v>       0.34159667      -0.45769400      -0.35360533 </v>
   <v>       0.38850667       0.28836133      -0.42527933 </v>
   <v>       0.37110133      -0.45704933       0.48777200 </v>
   <v>       0.41495600       0.39395133       0.45206600 </v>
   <v>       0.44803733       0.43641533      -0.39464067 </v>
   <v>       0.22841667      -0.41728333      -0.45808733 </v>
   <v>      -0.46797933      -0.49234400       0.48672800 </v>
   <v>      -0.44869200       0.35005400      -0.47084133 </v>
   <v>       0.48542800      -0.40410533      -0.37742667 </v>
   <v>       0.35539333      -0.31264000      -0.43826800 </v>
   <v>       0.49667600      -0.33699933       0.48290533 </v>
   <v>      -0.38154800       0.48418200      -0.38543867 </v>
   <v>      -0.26136667       0.48248667      -0.36220733 </v>
   <v>      -0.18472667       0.48509933      -0.37529333 </v>
  </varray>
 </structure>
 <varray name="primitive_index" >
  <v type="int" >        1 </v>
  <v type="int" >        9 </v>
  <v type="int" >        3 </v>
  <v type="int" >        2 </v>
  <v type="int" >        7 </v>
  <v type="int" >        6 </v>
  <v type="int" >        8 </v>
  <v type="int" >        4 </v>
  <v type="int" >        5 </v>
  <v type="int" >       13 </v>
  <v type="int" >       10 </v>
  <v type="int" >       11 </v>
  <v type="int" >       12 </v>
  <v type="int" >       14 </v>
  <v type="int" >       15 </v>
 </varray>
 <kpoints>
  <generation param="Monkhorst-Pack">
   <v type="int" name="divisions">       1        1        1 </v>
   <v name="usershift">      0.00000000       0.00000000       0.00000000 </v>
   <v name="genvec1">      1.00000000       0.00000000       0.00000000 </v>
   <v name="genvec2">      0.00000000       1.00000000       0.00000000 </v>
   <v name="genvec3">      0.00000000       0.00000000       1.00000000 </v>
   <v name="shift">      0.00000000       0.00000000       0.00000000 </v>
  </generation>
  <varray name="kpointlist" >
   <v>       0.00000000       0.00000000       0.00000000 </v>
  </varray>
  <varray name="weights" >
   <v>       1.00000000 </v>
  </varray>
 </kpoints>
 <parameters>
  <separator name="general" >
   <i type="string" name="SYSTEM">CuCO</i>
   <i type="logical" name="LCOMPAT"> F  </i>
  </separator>
  <separator name="electronic" >
   <i type="string" name="PREC">accura</i>
   <i name="ENMAX">    600.00000000</i>
   <i name="ENAUG">    644.87300000</i>
   <i name="EDIFF">      0.00000010</i>
   <i type="int" name="IALGO">    68</i>
   <i type="int" name="IWAVPR">    10</i>
   <i type="int" name="NBANDS">    92</i>
   <i name="NELECT">    153.00000000</i>
   <i type="int" name="TURBO">     0</i>
   <i type="int" name="IRESTART">     0</i>
   <i type="int" name="NREBOOT">     0</i>
   <i type="int" name="NMIN">     0</i>
   <i name="EREF">      0.00000000</i>
   <separator name="electronic smearing" >
    <i type="int" name="ISMEAR">     1</i>
    <i name="SIGMA">      0.10000000</i>
    <i name="KSPACING">      0.50000000</i>
    <i type="logical" name="KGAMMA"> F  </i>
   </separator>
   <separator name="electronic projectors" >
    <i type="logical" name="LREAL"> F  </i>
    <v name="ROPT">      0.00000000      0.00000000      0.00000000</v>
    <i type="int" name="LMAXPAW">  -100</i>
    <i type="int" name="LMAXMIX">     2</i>
    <i type="logical" name="NLSPLINE"> F  </i>
   </separator>
   <separator name="electronic startup" >
    <i type="int" name="ISTART">     0</i>
    <i type="int" name="ICHARG">     2</i>
    <i type="int" name="INIWAV">     1</i>
   </separator>
   <separator name="electronic spin" >
    <i type="int" name="ISPIN">     2</i>
    <i type="logical" name="LNONCOLLINEAR"> F  </i>
    <v name="MAGMOM">      0.06666667      0.06666667      0.06666667      0.06666667      0.06666667      0.06666667      0.06666667      0.06666667      0.06666667      0.06666667      0.06666667      0.06666667      0.06666667      0.06666667      0.06666667</v>
    <i name="NUPDOWN">      1.00000000</i>
    <i type="logical" name="LSORBIT"> F  </i>
    <v name="SAXIS">      0.00000000      0.00000000      1.00000000</v>
    <i type="logical" name="LSPIRAL"> F  </i>
    <v name="QSPIRAL">      0.00000000      0.00000000      0.00000000</v>
    <i type="logical" name="LZEROZ"> F  </i>
   </separator>
   <separator name="electronic exchange-correlation" >
    <i type="logical" name="LASPH"> F  </i>
    <i type="logical" name="LMETAGGA"> F  </i>
   </separator>
   <separator name="electronic convergence" >
    <i type="int" name="NELM">   300</i>
    <i type="int" name="NELMDL">    -5</i>
    <i type="int" name="NELMIN">     3</i>
    <i name="ENINI">    600.00000000</i>
    <separator name="electronic convergence detail" >
     <i type="logical" name="LDIAG"> T  </i>
     <i type="logical" name="LSUBROT"> F  </i>
     <i name="WEIMIN">      0.00000000</i>
     <i name="EBREAK">      0.00000000</i>
     <i name="DEPER">      0.30000000</i>
     <i type="int" name="NRMM">     4</i>
     <i name="TIME">      0.40000000</i>
    </separator>
   </separator>
   <separator name="electronic mixer" >
    <i name="AMIX">      0.40000000</i>
    <i name="BMIX">      1.00000000</i>
    <i name="AMIN">      0.10000000</i>
    <i name="AMIX_MAG">      1.60000000</i>
    <i name="BMIX_MAG">      1.00000000</i>
    <separator name="electronic mixer details" >
     <i type="int" name="IMIX">     4</i>
     <i type="logical" name="MIXFIRST"> F  </i>
     <i type="int" name="MAXMIX">   -45</i>
     <i name="WC">    100.00000000</i>
     <i type="int" name="INIMIX">     1</i>
     <i type="int" name="MIXPRE">     1</i>
     <i type="int" name="MREMOVE">     5</i>
    </separator>
   </separator>
   <separator name="electronic dipolcorrection" >
    <i type="logical" name="LDIPOL"> F  </i>
    <i type="logical" name="LMONO"> F  </i>
    <i type="int" name="IDIPOL">     0</i>
    <i name="EPSILON">      1.00000000</i>
    <v name="DIPOL">   -100.00000000   -100.00000000   -100.00000000</v>
    <i name="EFIELD">      0.00000000</i>
   </separator>
  </separator>
  <separator name="grids" >
   <i type="int" name="NGX">   120</i>
   <i type="int" name="NGY">   120</i>
   <i type="int" name="NGZ">   120</i>
   <i type="int" name="NGXF">   240</i>
   <i type="int" name="NGYF">   240</i>
   <i type="int" name="NGZF">   240</i>
   <i type="logical" name="ADDGRID"> F  </i>
  </separator>
  <separator name="ionic" >
   <i type="int" name="NSW">     0</i>
   <i type="int" name="IBRION">    -1</i>
   <i type="int" name="MDALGO">     0</i>
   <i type="int" name="ISIF">     2</i>
   <i name="PSTRESS">      0.00000000</i>
   <i name="EDIFFG">     -0.00100000</i>
   <i type="int" name="NFREE">     0</i>
   <i name="POTIM">      0.50000000</i>
   <i name="SMASS">     -3.00000000</i>
   <i name="SCALEE">      1.00000000</i>
  </separator>
  <separator name="ionic md" >
   <i name="TEBEG">      0.00010000</i>
   <i name="TEEND">      0.00010000</i>
   <i type="int" name="NBLOCK">     1</i>
   <i type="int" name="KBLOCK">     1</i>
   <i type="int" name="NPACO">   256</i>
   <i name="APACO">     16.00000000</i>
  </separator>
  <separator name="symmetry" >
   <i type="int" name="ISYM">     0</i>
   <i name="SYMPREC">      0.00001000</i>
  </separator>
  <separator name="dos" >
   <i type="int" name="LORBIT">     0</i>
   <v name="RWIGS">     -1.00000000     -1.00000000     -1.00000000</v>
   <i type="int" name="NEDOS">   301</i>
   <i name="EMIN">     10.00000000</i>
   <i name="EMAX">    -10.00000000</i>
   <i name="EFERMI">      0.00000000</i>
  </separator>
  <separator name="writing" >
   <i type="int" name="NWRITE">     2</i>
   <i type="logical" name="LWAVE"> F  </i>
   <i type="logical" name="LDOWNSAMPLE"> F  </i>
   <i type="logical" name="LCHARG"> F  </i>
   <i type="logical" name="LPARD"> F  </i>
   <i type="logical" name="LVTOT"> F  </i>
   <i type="logical" name="LVHAR"> F  </i>
   <i type="logical" name="LELF"> F  </i>
   <i type="logical" name="LOPTICS"> F  </i>
   <v name="STM">      0.00000000      0.00000000      0.00000000      0.00000000      0.00000000      0.00000000      0.00000000</v>
  </separator>
  <separator name="performance" >
   <i type="int" name="NPAR">     4</i>
   <i type="int" name="NSIM">     4</i>
   <i type="int" name="NBLK">    -1</i>
   <i type="logical" name="LPLANE"> T  </i>
   <i type="logical" name="LSCALAPACK"> T  </i>
   <i type="logical" name="LSCAAWARE"> F  </i>
   <i type="logical" name="LSCALU"> F  </i>
   <i type="logical" name="LASYNC"> F  </i>
   <i type="logical" name="LORBITALREAL"> F  </i>
  </separator>
  <separator name="miscellaneous" >
   <i type="int" name="IDIOT">     3</i>
   <i type="int" name="ISPECIAL">     0</i>
   <i type="logical" name="LMUSIC"> F  </i>
   <v name="POMASS">     63.54600000     12.01100000     16.00000000</v>
   <v name="DARWINR">      0.00000000      0.00000000      0.00000000</v>
   <v name="DARWINV">      1.00000000      1.00000000      1.00000000</v>
   <i type="logical" name="LCORR"> T  </i>
  </separator>
  <i type="logical" name="GGA_COMPAT"> T  </i>
  <i type="logical" name="LBERRY"> F  </i>
  <i type="int" name="ICORELEVEL">     0</i>
  <i type="logical" name="LDAU"> F  </i>
  <i type="int" name="I_CONSTRAINED_M">     0</i>
  <separator name="electronic exchange-correlation" >
   <i type="string" name="GGA">PE</i>
   <i type="int" name="VOSKOWN">     0</i>
   <i type="logical" name="LHFCALC"> F  </i>
   <i type="string" name="PRECFOCK"></i>
   <i type="logical" name="LSYMGRAD"> F  </i>
   <i type="logical" name="LHFONE"> F  </i>
   <i type="logical" name="LRHFCALC"> F  </i>
   <i type="logical" name="LTHOMAS"> F  </i>
   <i type="logical" name="LMODELHF"> F  </i>
   <i name="ENCUT4O">     -1.00000000</i>
   <i type="int" name="EXXOEP">     0</i>
   <i type="int" name="FOURORBIT">     0</i>
   <i name="AEXX">      0.00000000</i>
   <i name="HFALPHA">      0.00000000</i>
   <i name="MCALPHA">      0.00000000</i>
   <i name="ALDAX">      1.00000000</i>
   <i name="AGGAX">      1.00000000</i>
   <i name="ALDAC">      1.00000000</i>
   <i name="AGGAC">      1.00000000</i>
   <i type="int" name="NKREDX">     1</i>
   <i type="int" name="NKREDY">     1</i>
   <i type="int" name="NKREDZ">     1</i>
   <i type="logical" name="SHIFTRED"> F  </i>
   <i type="logical" name="ODDONLY"> F  </i>
   <i type="logical" name="EVENONLY"> F  </i>
   <i type="int" name="LMAXFOCK">     0</i>
   <i type="int" name="NMAXFOCKAE">     0</i>
   <i type="logical" name="LFOCKAEDFT"> F  </i>
   <i name="HFSCREEN">      0.00000000</i>
   <i name="HFSCREENC">      0.00000000</i>
   <i type="int" name="NBANDSGWLOW">     0</i>
  </separator>
  <separator name="vdW DFT" >
   <i type="logical" name="LUSE_VDW"> F  </i>
   <i name="Zab_VDW">     -0.84910000</i>
   <i name="PARAM1">      0.12340000</i>
   <i name="PARAM2">      1.00000000</i>
   <i name="PARAM3">      0.00000000</i>
  </separator>
  <separator name="model GW" >
   <i type="int" name="MODEL_GW">     0</i>
   <i name="MODEL_EPS0">    135.00000000</i>
   <i name="MODEL_ALPHA">      1.00000000</i>
  </separator>
  <separator name="linear response parameters" >
   <i type="logical" name="LEPSILON"> F  </i>
   <i type="logical" name="LRPA"> F  </i>
   <i type="logical" name="LNABLA"> F  </i>
   <i type="logical" name="LVEL"> F  </i>
   <i type="int" name="KINTER">     0</i>
   <i name="CSHIFT">      0.10000000</i>
   <i name="OMEGAMAX">     -1.00000000</i>
   <i name="DEG_THRESHOLD">      0.00200000</i>
   <i name="RTIME">     -0.10000000</i>
   <i name="WPLASMAI">      0.00000000</i>
   <v name="DFIELD">      0.00000000      0.00000000      0.00000000</v>
   <v name="WPLASMA">      0.00000000      0.00000000      0.00000000      0.00000000      0.00000000      0.00000000      0.00000000      0.00000000      0.00000000</v>
  </separator>
  <separator name="orbital magnetization" >
   <i type="logical" name="NUCIND"> F  </i>
   <v name="MAGPOS">      0.00000000      0.00000000      0.00000000</v>
   <i type="logical" name="LNICSALL"> T  </i>
   <i type="logical" name="ORBITALMAG"> F  </i>
   <i type="logical" name="LMAGBLOCH"> F  </i>
   <i type="logical" name="LCHIMAG"> F  </i>
   <i type="logical" name="LGAUGE"> T  </i>
   <i type="int" name="MAGATOM">     0</i>
   <v name="MAGDIPOL">      0.00000000      0.00000000      0.00000000</v>
   <v name="AVECCONST">      0.00000000      0.00000000      0.00000000</v>
  </separator>
  <separator name="response functions" >
   <i type="logical" name="LADDER"> F  </i>
   <i type="logical" name="LRPAFORCE"> F  </i>
   <i type="logical" name="LFXC"> F  </i>
   <i type="logical" name="LHARTREE"> T  </i>
   <i type="int" name="IBSE">     0</i>
   <v type="int" name="KPOINT">    -1     0     0     0</v>
   <i type="logical" name="LTCTE"> F  </i>
   <i type="logical" name="LTETE"> F  </i>
   <i type="logical" name="LTRIPLET"> F  </i>
   <i type="logical" name="LFXCEPS"> F  </i>
   <i type="logical" name="LFXHEG"> F  </i>
   <i type="int" name="NATURALO">     2</i>
   <i type="logical" name="L2ORDER"> F  </i>
   <i type="logical" name="LMP2LT"> F  </i>
   <i type="logical" name="LUSEW"> F  </i>
   <i name="ENCUTGW">     -2.00000000</i>
   <i name="ENCUTGWSOFT">     -2.00000000</i>
   <i name="ENCUTLF">     -1.00000000</i>
   <i type="int" name="LMAXMP2">    -1</i>
   <i name="SCISSOR">      0.00000000</i>
   <i type="int" name="NOMEGA">     0</i>
   <i type="int" name="NOMEGAR">     0</i>
   <i type="int" name="NBANDSGW">    -1</i>
   <i type="int" name="NBANDSO">    -1</i>
   <i type="int" name="NBANDSV">    -1</i>
   <i type="int" name="NELM">   300</i>
   <i type="int" name="NELMHF">     1</i>
   <i type="int" name="DIM">     3</i>
   <i type="int" name="ANTIRES">     0</i>
   <i name="OMEGAMAX">    -30.00000000</i>
   <i name="OMEGAMIN">    -30.00000000</i>
   <i name="OMEGATL">   -200.00000000</i>
   <i type="int" name="OMEGAGRID">   140</i>
   <i name="CSHIFT">     -0.10000000</i>
   <i type="logical" name="SELFENERGY"> F  </i>
   <i type="logical" name="LSPECTRAL"> F  </i>
   <i type="logical" name="LSPECTRALGW"> F  </i>
   <i type="logical" name="LSINGLES"> F  </i>
   <i type="logical" name="LFERMIGW"> F  </i>
   <i type="logical" name="ODDONLYGW"> F  </i>
   <i type="logical" name="EVENONLYGW"> F  </i>
   <i type="int" name="NKREDLFX">     1</i>
   <i type="int" name="NKREDLFY">     1</i>
   <i type="int" name="NKREDLFZ">     1</i>
   <i type="int" name="MAXMEM">  2800</i>
   <i type="int" name="TELESCOPE">     0</i>
   <i type="int" name="TAUPAR">     1</i>
   <i type="int" name="OMEGAPAR">    -1</i>
   <i name="LAMBDA">      1.00000000</i>
  </separator>
  <separator name="External order field" >
   <i name="OFIELD_KAPPA">      0.00000000</i>
   <v name="OFIELD_K">      0.00000000      0.00000000      0.00000000</v>
   <i name="OFIELD_Q6_NEAR">      0.00000000</i>
   <i name="OFIELD_Q6_FAR">      0.00000000</i>
   <i name="OFIELD_A">      0.00000000</i>
  </separator>
 </parameters>
 <atominfo>
  <atoms>      15 </atoms>
  <types>       3 </types>
  <array name="atoms" >
   <dimension dim="1">ion</dimension>
   <field type="string">element</field>
   <field type="int">atomtype</field>
   <set>
    <rc><c>Cu</c><c>   1</c></rc>
    <rc><c>Cu</c><c>   1</c></rc>
    <rc><c>Cu</c><c>   1</c></rc>
    <rc><c>Cu</c><c>   1</c></rc>
    <rc><c>Cu</c><c>   1</c></rc>
    <rc><c>Cu</c><c>   1</c></rc>
    <rc><c>Cu</c><c>   1</c></rc>
    <rc><c>Cu</c><c>   1</c></rc>
    <rc><c>Cu</c><c>   1</c></rc>
    <rc><c>Cu</c><c>   1</c></rc>
    <rc><c>Cu</c><c>   1</c></rc>
    <rc><c>Cu</c><c>   1</c></rc>
    <rc><c>Cu</c><c>   1</c></rc>
    <rc><c>C </c><c>   2</c></rc>
    <rc><c>O </c><c>   3</c></rc>
   </set>
  </array>
  <array name="atomtypes" >
   <dimension dim="1">type</dimension>
   <field type="int">atomspertype</field>
   <field type="string">element</field>
   <field>mass</field>
   <field>valence</field>
   <field type="string">pseudopotential</field>
   <set>
    <rc><c>  13</c><c>Cu</c><c>     63.54600000</c><c>     11.00000000</c><c>  PAW_PBE Cu 22Jun2005                  </c></rc>
    <rc><c>   1</c><c>C </c><c>     12.01100000</c><c>      4.00000000</c><c>  PAW_PBE C 08Apr2002                   </c></rc>
    <rc><c>   1</c><c>O </c><c>     16.00000000</c><c>      6.00000000</c><c>  PAW_PBE O 08Apr2002                   </c></rc>
   </set>
  </array>
 </atominfo>
 <structure name="initialpos" >
  <crystal>
   <varray name="basis" >
    <v>      15.00000000       0.00000000       0.00000000 </v>
    <v>       0.00000000      15.00000000       0.00000000 </v>
    <v>       0.00000000       0.00000000      15.00000000 </v>
   </varray>
   <i name="volume">   3375.00000000 </i>
   <varray name="rec_basis" >
    <v>       0.06666667       0.00000000       0.00000000 </v>
    <v>       0.00000000       0.06666667       0.00000000 </v>
    <v>       0.00000000       0.00000000       0.06666667 </v>
   </varray>
  </crystal>
  <varray name="positions" >
   <v>       0.28569333       0.41609200       0.55695133 </v>
   <v>       0.37110133       0.54295067       0.48777200 </v>
   <v>       0.38850667       0.28836133       0.57472067 </v>
   <v>       0.53202067       0.50765600       0.48672800 </v>
   <v>       0.55130800       0.35005400       0.52915867 </v>
   <v>       0.44803733       0.43641533       0.60535933 </v>
   <v>       0.41495600       0.39395133       0.45206600 </v>
   <v>       0.22841667       0.58271667       0.54191267 </v>
   <v>       0.34159667       0.54230600       0.64639467 </v>
   <v>       0.35539333       0.68736000       0.56173200 </v>
   <v>       0.49667600       0.66300067       0.48290533 </v>
   <v>       0.61845200       0.48418200       0.61456133 </v>
   <v>       0.48542800       0.59589467       0.62257333 </v>
   <v>       0.73863333       0.48248667       0.63779267 </v>
   <v>       0.81527333       0.48509933       0.62470667 </v>
  </varray>
 </structure>
 <calculation>
  <scstep>
   <time name="dav">    7.51    7.51</time>
   <time name="total">    8.70    8.71</time>
   <energy>
    <i name="alphaZ">     41.16232785 </i>
    <i name="ewald">  16515.34830750 </i>
    <i name="hartreedc"> -33535.98940968 </i>
    <i name="XCdc">    623.58199846 </i>
    <i name="pawpsdc">  16421.75059358 </i>
    <i name="pawaedc"> -17800.06104309 </i>
    <i name="eentropy">     -0.01037458 </i>
    <i name="bandstr">    189.20948836 </i>
    <i name="atom">  18662.21924712 </i>
    <i name="e_fr_energy">   1117.21113551 </i>
    <i name="e_wo_entrp">   1117.22151009 </i>
    <i name="e_0_energy">   1117.21459370 </i>
   </energy>
  </scstep>
  <scstep>
   <time name="dav">    7.39    7.39</time>
   <time name="total">    7.39    7.39</time>
   <energy>
    <i name="e_fr_energy">     87.29699282 </i>
    <i name="e_wo_entrp">     87.29118824 </i>
    <i name="e_0_energy">     87.29505796 </i>
   </energy>
  </scstep>
  <scstep>
   <time name="dav">   11.72   11.75</time>
   <time name="total">   11.72   11.75</time>
   <energy>
    <i name="e_fr_energy">    -33.98733707 </i>
    <i name="e_wo_entrp">    -33.99661468 </i>
    <i name="e_0_energy">    -33.99042961 </i>
   </energy>
  </scstep>
  <scstep>
   <time name="dav">   10.33   10.36</time>
   <time name="total">   10.33   10.36</time>
   <energy>
    <i name="e_fr_energy">    -55.82233848 </i>
    <i name="e_wo_entrp">    -55.83171906 </i>
    <i name="e_0_energy">    -55.82546534 </i>
   </energy>
  </scstep>
  <scstep>
   <time name="dav">   12.17   12.20</time>
   <time name="total">   12.89   12.92</time>
   <energy>
    <i name="e_fr_energy">    -57.42955279 </i>
    <i name="e_wo_entrp">    -57.43905939 </i>
    <i name="e_0_energy">    -57.43272166 </i>
   </energy>
  </scstep>
  <scstep>
   <time name="diag">    1.09    1.09</time>
   <time name="diis">    6.87    6.88</time>
   <time name="orth">    0.06    0.06</time>
   <time name="total">    9.87    9.89</time>
   <energy>
    <i name="e_fr_energy">    -56.54281523 </i>
    <i name="e_wo_entrp">    -56.54902468 </i>
    <i name="e_0_energy">    -56.54488505 </i>
   </energy>
  </scstep>
  <scstep>
   <time name="diag">    1.09    1.09</time>
   <time name="diis">    6.63    6.64</time>
   <time name="orth">    0.06    0.06</time>
   <time name="total">    9.62    9.64</time>
   <energy>
    <i name="e_fr_energy">    -49.23228785 </i>
    <i name="e_wo_entrp">    -49.24094381 </i>
    <i name="e_0_energy">    -49.23517317 </i>
   </energy>
  </scstep>
  <scstep>
   <time name="diag">    1.09    1.09</time>
   <time name="diis">    6.85    6.85</time>
   <time name="orth">    0.06    0.06</time>
   <time name="total">    9.84    9.85</time>
   <energy>
    <i name="e_fr_energy">    -48.99714673 </i>
    <i name="e_wo_entrp">    -49.00624531 </i>
    <i name="e_0_energy">    -49.00017959 </i>
   </energy>
  </scstep>
  <scstep>
   <time name="diag">    1.09    1.09</time>
   <time name="diis">    6.85    6.86</time>
   <time name="orth">    0.06    0.06</time>
   <time name="total">    9.89    9.91</time>
   <energy>
    <i name="e_fr_energy">    -48.94922280 </i>
    <i name="e_wo_entrp">    -48.95818482 </i>
    <i name="e_0_energy">    -48.95221014 </i>
   </energy>
  </scstep>
  <scstep>
   <time name="diag">    1.09    1.09</time>
   <time name="diis">    6.89    6.90</time>
   <time name="orth">    0.06    0.06</time>
   <time name="total">    9.93    9.95</time>
   <energy>
    <i name="e_fr_energy">    -48.89024510 </i>
    <i name="e_wo_entrp">    -48.89886764 </i>
    <i name="e_0_energy">    -48.89311928 </i>
   </energy>
  </scstep>
  <scstep>
   <time name="diag">    1.08    1.09</time>
   <time name="diis">    7.04    7.05</time>
   <time name="orth">    0.06    0.06</time>
   <time name="total">   10.07   10.09</time>
   <energy>
    <i name="e_fr_energy">    -48.88233167 </i>
    <i name="e_wo_entrp">    -48.89115730 </i>
    <i name="e_0_energy">    -48.88527354 </i>
   </energy>
  </scstep>
  <scstep>
   <time name="diag">    1.08    1.08</time>
   <time name="diis">    6.87    6.87</time>
   <time name="orth">    0.06    0.06</time>
   <time name="total">    9.90    9.91</time>
   <energy>
    <i name="e_fr_energy">    -48.87780966 </i>
    <i name="e_wo_entrp">    -48.88648851 </i>
    <i name="e_0_energy">    -48.88070261 </i>
   </energy>
  </scstep>
  <scstep>
   <time name="diag">    1.08    1.08</time>
   <time name="diis">    7.21    7.22</time>
   <time name="orth">    0.06    0.06</time>
   <time name="total">   10.25   10.26</time>
   <energy>
    <i name="e_fr_energy">    -48.87683657 </i>
    <i name="e_wo_entrp">    -48.88549774 </i>
    <i name="e_0_energy">    -48.87972363 </i>
   </energy>
  </scstep>
  <scstep>
   <time name="diag">    1.08    1.08</time>
   <time name="diis">    6.88    6.88</time>
   <time name="orth">    0.06    0.06</time>
   <time name="total">    9.91    9.92</time>
   <energy>
    <i name="e_fr_energy">    -48.87771166 </i>
    <i name="e_wo_entrp">    -48.88636349 </i>
    <i name="e_0_energy">    -48.88059560 </i>
   </energy>
  </scstep>
  <scstep>
   <time name="diag">    1.08    1.08</time>
   <time name="diis">    6.69    6.69</time>
   <time name="orth">    0.06    0.06</time>
   <time name="total">    9.73    9.73</time>
   <energy>
    <i name="e_fr_energy">    -48.87878493 </i>
    <i name="e_wo_entrp">    -48.88742634 </i>
    <i name="e_0_energy">    -48.88166540 </i>
   </energy>
  </scstep>
  <scstep>
   <time name="diag">    1.08    1.08</time>
   <time name="diis">    6.56    6.56</time>
   <time name="orth">    0.06    0.06</time>
   <time name="total">    9.60    9.60</time>
   <energy>
    <i name="e_fr_energy">    -48.88027869 </i>
    <i name="e_wo_entrp">    -48.88895925 </i>
    <i name="e_0_energy">    -48.88317221 </i>
   </energy>
  </scstep>
  <scstep>
   <time name="diag">    1.08    1.09</time>
   <time name="diis">    7.26    7.26</time>
   <time name="orth">    0.06    0.06</time>
   <time name="total">   10.30   10.31</time>
   <energy>
    <i name="e_fr_energy">    -48.88199069 </i>
    <i name="e_wo_entrp">    -48.89067424 </i>
    <i name="e_0_energy">    -48.88488521 </i>
   </energy>
  </scstep>
  <scstep>
   <time name="diag">    1.08    1.08</time>
   <time name="diis">    6.94    6.94</time>
   <time name="orth">    0.06    0.06</time>
   <time name="total">    9.98    9.99</time>
   <energy>
    <i name="e_fr_energy">    -48.88285870 </i>
    <i name="e_wo_entrp">    -48.89154193 </i>
    <i name="e_0_energy">    -48.88575311 </i>
   </energy>
  </scstep>
  <scstep>
   <time name="diag">    1.08    1.09</time>
   <time name="diis">    7.78    7.78</time>
   <time name="orth">    0.06    0.06</time>
   <time name="total">   10.82   10.83</time>
   <energy>
    <i name="e_fr_energy">    -48.88358915 </i>
    <i name="e_wo_entrp">    -48.89227100 </i>
    <i name="e_0_energy">    -48.88648310 </i>
   </energy>
  </scstep>
  <scstep>
   <time name="diag">    1.08    1.09</time>
   <time name="diis">    7.40    7.40</time>
   <time name="orth">    0.06    0.06</time>
   <time name="total">   10.42   10.46</time>
   <energy>
    <i name="e_fr_energy">    -48.88415502 </i>
    <i name="e_wo_entrp">    -48.89283502 </i>
    <i name="e_0_energy">    -48.88704835 </i>
   </energy>
  </scstep>
  <scstep>
   <time name="diag">    1.08    1.08</time>
   <time name="diis">    6.71    6.72</time>
   <time name="orth">    0.06    0.06</time>
   <time name="total">    9.76    9.77</time>
   <energy>
    <i name="e_fr_energy">    -48.88452749 </i>
    <i name="e_wo_entrp">    -48.89320493 </i>
    <i name="e_0_energy">    -48.88741997 </i>
   </energy>
  </scstep>
  <scstep>
   <time name="diag">    1.08    1.09</time>
   <time name="diis">    6.88    6.88</time>
   <time name="orth">    0.06    0.06</time>
   <time name="total">    9.93    9.94</time>
   <energy>
    <i name="e_fr_energy">    -48.88479389 </i>
    <i name="e_wo_entrp">    -48.89347434 </i>
    <i name="e_0_energy">    -48.88768737 </i>
   </energy>
  </scstep>
  <scstep>
   <time name="diag">    1.08    1.09</time>
   <time name="diis">    6.70    6.70</time>
   <time name="orth">    0.06    0.06</time>
   <time name="total">    9.75    9.76</time>
   <energy>
    <i name="e_fr_energy">    -48.88493787 </i>
    <i name="e_wo_entrp">    -48.89361764 </i>
    <i name="e_0_energy">    -48.88783113 </i>
   </energy>
  </scstep>
  <scstep>
   <time name="diag">    1.08    1.08</time>
   <time name="diis">    6.57    6.57</time>
   <time name="orth">    0.06    0.06</time>
   <time name="total">    9.62    9.63</time>
   <energy>
    <i name="e_fr_energy">    -48.88504140 </i>
    <i name="e_wo_entrp">    -48.89372184 </i>
    <i name="e_0_energy">    -48.88793488 </i>
   </energy>
  </scstep>
  <scstep>
   <time name="diag">    1.09    1.09</time>
   <time name="diis">    6.45    6.45</time>
   <time name="orth">    0.06    0.06</time>
   <time name="total">    9.51    9.51</time>
   <energy>
    <i name="e_fr_energy">    -48.88509988 </i>
    <i name="e_wo_entrp">    -48.89378010 </i>
    <i name="e_0_energy">    -48.88799329 </i>
   </energy>
  </scstep>
  <scstep>
   <time name="diag">    1.08    1.08</time>
   <time name="diis">    6.42    6.42</time>
   <time name="orth">    0.06    0.06</time>
   <time name="total">    9.47    9.48</time>
   <energy>
    <i name="e_fr_energy">    -48.88513334 </i>
    <i name="e_wo_entrp">    -48.89381318 </i>
    <i name="e_0_energy">    -48.88802662 </i>
   </energy>
  </scstep>
  <scstep>
   <time name="diag">    1.08    1.08</time>
   <time name="diis">    4.87    4.87</time>
   <time name="orth">    0.06    0.06</time>
   <time name="total">    7.93    7.93</time>
   <energy>
    <i name="e_fr_energy">    -48.88514377 </i>
    <i name="e_wo_entrp">    -48.89382380 </i>
    <i name="e_0_energy">    -48.88803711 </i>
   </energy>
  </scstep>
  <scstep>
   <time name="diag">    1.08    1.08</time>
   <time name="diis">    4.74    4.74</time>
   <time name="orth">    0.06    0.06</time>
   <time name="total">    7.80    7.81</time>
   <energy>
    <i name="e_fr_energy">    -48.88514996 </i>
    <i name="e_wo_entrp">    -48.89383001 </i>
    <i name="e_0_energy">    -48.88804331 </i>
   </energy>
  </scstep>
  <scstep>
   <time name="diag">    1.08    1.08</time>
   <time name="diis">    4.40    4.40</time>
   <time name="orth">    0.06    0.06</time>
   <time name="total">    7.47    7.48</time>
   <energy>
    <i name="e_fr_energy">    -48.88515463 </i>
    <i name="e_wo_entrp">    -48.89383485 </i>
    <i name="e_0_energy">    -48.88804804 </i>
   </energy>
  </scstep>
  <scstep>
   <time name="diag">    1.08    1.08</time>
   <time name="diis">    4.61    4.62</time>
   <time name="orth">    0.06    0.06</time>
   <time name="total">    7.69    7.69</time>
   <energy>
    <i name="e_fr_energy">    -48.88515622 </i>
    <i name="e_wo_entrp">    -48.89383645 </i>
    <i name="e_0_energy">    -48.88804963 </i>
   </energy>
  </scstep>
  <scstep>
   <time name="diag">    1.09    1.09</time>
   <time name="diis">    4.33    4.33</time>
   <time name="orth">    0.06    0.06</time>
   <time name="total">    7.42    7.42</time>
   <energy>
    <i name="e_fr_energy">    -48.88515710 </i>
    <i name="e_wo_entrp">    -48.89383739 </i>
    <i name="e_0_energy">    -48.88805053 </i>
   </energy>
  </scstep>
  <scstep>
   <time name="diag">    1.08    1.09</time>
   <time name="diis">    4.07    4.07</time>
   <time name="orth">    0.06    0.06</time>
   <time name="total">    7.16    7.16</time>
   <energy>
    <i name="e_fr_energy">    -48.88515785 </i>
    <i name="e_wo_entrp">    -48.89383813 </i>
    <i name="e_0_energy">    -48.88805128 </i>
   </energy>
  </scstep>
  <scstep>
   <time name="diag">    1.09    1.09</time>
   <time name="diis">    4.44    4.44</time>
   <time name="orth">    0.06    0.06</time>
   <time name="total">    7.54    7.54</time>
   <energy>
    <i name="e_fr_energy">    -48.88515843 </i>
    <i name="e_wo_entrp">    -48.89383868 </i>
    <i name="e_0_energy">    -48.88805185 </i>
   </energy>
  </scstep>
  <scstep>
   <time name="diag">    1.08    1.08</time>
   <time name="diis">    4.13    4.13</time>
   <time name="orth">    0.06    0.06</time>
   <time name="total">    7.23    7.24</time>
   <energy>
    <i name="e_fr_energy">    -48.88515877 </i>
    <i name="e_wo_entrp">    -48.89383902 </i>
    <i name="e_0_energy">    -48.88805219 </i>
   </energy>
  </scstep>
  <scstep>
   <time name="diag">    1.08    1.08</time>
   <time name="diis">    3.85    3.85</time>
   <time name="orth">    0.06    0.06</time>
   <time name="total">    6.96    6.96</time>
   <energy>
    <i name="e_fr_energy">    -48.88515903 </i>
    <i name="e_wo_entrp">    -48.89383927 </i>
    <i name="e_0_energy">    -48.88805245 </i>
   </energy>
  </scstep>
  <scstep>
   <time name="diag">    1.08    1.08</time>
   <time name="diis">    3.50    3.50</time>
   <time name="orth">    0.06    0.06</time>
   <time name="total">    6.61    6.62</time>
   <energy>
    <i name="e_fr_energy">    -48.88515924 </i>
    <i name="e_wo_entrp">    -48.89383948 </i>
    <i name="e_0_energy">    -48.88805265 </i>
   </energy>
  </scstep>
  <scstep>
   <time name="diag">    1.08    1.09</time>
   <time name="diis">    3.39    3.39</time>
   <time name="orth">    0.06    0.06</time>
   <time name="total">    5.71    5.71</time>
   <energy>
    <i name="alphaZ">     41.16232785 </i>
    <i name="ewald">  16515.34830750 </i>
    <i name="hartreedc"> -33494.32678801 </i>
    <i name="XCdc">    615.59495250 </i>
    <i name="pawpsdc">  17656.11883702 </i>
    <i name="pawaedc"> -19055.02231358 </i>
    <i name="eentropy">      0.00868024 </i>
    <i name="bandstr">   -989.98840997 </i>
    <i name="atom">  18662.21924712 </i>
    <i name="e_fr_energy">    -48.88515932 </i>
    <i name="e_wo_entrp">    -48.89383956 </i>
    <i name="e_0_energy">    -48.88805273 </i>
   </energy>
  </scstep>
  <structure>
   <crystal>
    <varray name="basis" >
     <v>      15.00000000       0.00000000       0.00000000 </v>
     <v>       0.00000000      15.00000000       0.00000000 </v>
     <v>       0.00000000       0.00000000      15.00000000 </v>
    </varray>
    <i name="volume">   3375.00000000 </i>
    <varray name="rec_basis" >
     <v>       0.06666667       0.00000000       0.00000000 </v>
     <v>       0.00000000       0.06666667       0.00000000 </v>
     <v>       0.00000000       0.00000000       0.06666667 </v>
    </varray>
   </crystal>
   <varray name="positions" >
    <v>       0.28569333       0.41609200       0.55695133 </v>
    <v>       0.37110133       0.54295067       0.48777200 </v>
    <v>       0.38850667       0.28836133       0.57472067 </v>
    <v>       0.53202067       0.50765600       0.48672800 </v>
    <v>       0.55130800       0.35005400       0.52915867 </v>
    <v>       0.44803733       0.43641533       0.60535933 </v>
    <v>       0.41495600       0.39395133       0.45206600 </v>
    <v>       0.22841667       0.58271667       0.54191267 </v>
    <v>       0.34159667       0.54230600       0.64639467 </v>
    <v>       0.35539333       0.68736000       0.56173200 </v>
    <v>       0.49667600       0.66300067       0.48290533 </v>
    <v>       0.61845200       0.48418200       0.61456133 </v>
    <v>       0.48542800       0.59589467       0.62257333 </v>
    <v>       0.73863333       0.48248667       0.63779267 </v>
    <v>       0.81527333       0.48509933       0.62470667 </v>
   </varray>
  </structure>
  <varray name="forces" >
   <v>       0.21852236       0.22561402      -0.07662869 </v>
   <v>       0.32849870       0.39221609      -0.17294407 </v>
   <v>       0.20629511       0.26654593      -0.20478744 </v>
   <v>      -0.03186563      -0.03824922      -0.38297808 </v>
   <v>       0.11152920      -0.24594156      -0.02036464 </v>
   <v>       0.15554902      -0.21851382       0.42024979 </v>
   <v>      -0.03114536      -0.20046402       0.11453858 </v>
   <v>      -0.12319529      -0.14634763       0.13073513 </v>
   <v>      -0.74408414       0.33721922       0.30625253 </v>
   <v>       0.05521794      -0.24063753       0.08368484 </v>
   <v>      -0.22115312       0.16403435      -0.16278192 </v>
   <v>      -0.13216007      -0.21983559       0.06272754 </v>
   <v>       0.34841199      -0.15827245      -0.14457588 </v>
   <v>       0.78782016       0.15577342      -0.16997745 </v>
   <v>      -0.92824086      -0.07314120       0.21684976 </v>
  </varray>
  <varray name="stress" >
   <v>      -0.72388206      -0.73667125      -0.29214386 </v>
   <v>      -0.73667123      -0.18475879       0.00909987 </v>
   <v>      -0.29214387       0.00909986       0.49740869 </v>
  </varray>
  <energy>
   <i name="e_fr_energy">    -48.88515932 </i>
   <i name="e_wo_entrp">    -48.88805273 </i>
   <i name="e_0_energy">      0.00868024 </i>
  </energy>
  <time name="totalsc">  350.08  350.45</time>
  <eigenvalues>
   <array>
    <dimension dim="1">band</dimension>
    <dimension dim="2">kpoint</dimension>
    <dimension dim="3">spin</dimension>
    <field>eigene</field>
    <field>occ</field>
    <set>
     <set comment="spin 1">
      <set comment="kpoint 1">
       <r>  -28.2101    1.0000 </r>
       <r>  -13.7695    1.0000 </r>
       <r>  -11.2199    1.0000 </r>
       <r>  -10.9499    1.0000 </r>
       <r>  -10.8020    1.0000 </r>
       <r>  -10.2115    1.0000 </r>
       <r>   -8.6444    1.0000 </r>
       <r>   -8.2697    1.0000 </r>
       <r>   -7.7586    1.0000 </r>
       <r>   -7.6228    1.0000 </r>
       <r>   -7.5124    1.0000 </r>
       <r>   -7.4115    1.0000 </r>
       <r>   -7.2939    1.0000 </r>
       <r>   -7.2075    1.0000 </r>
       <r>   -7.0861    1.0000 </r>
       <r>   -7.0555    1.0000 </r>
       <r>   -6.8158    1.0000 </r>
       <r>   -6.7865    1.0000 </r>
       <r>   -6.7606    1.0000 </r>
       <r>   -6.7315    1.0000 </r>
       <r>   -6.6452    1.0000 </r>
       <r>   -6.5883    1.0000 </r>
       <r>   -6.5622    1.0000 </r>
       <r>   -6.5290    1.0000 </r>
       <r>   -6.4388    1.0000 </r>
       <r>   -6.3781    1.0000 </r>
       <r>   -6.3460    1.0000 </r>
       <r>   -6.3034    1.0000 </r>
       <r>   -6.2125    1.0000 </r>
       <r>   -6.1940    1.0000 </r>
       <r>   -6.1435    1.0000 </r>
       <r>   -6.0757    1.0000 </r>
       <r>   -6.0358    1.0000 </r>
       <r>   -6.0226    1.0000 </r>
       <r>   -5.9523    1.0000 </r>
       <r>   -5.8333    1.0000 </r>
       <r>   -5.7774    1.0000 </r>
       <r>   -5.7620    1.0000 </r>
       <r>   -5.6864    1.0000 </r>
       <r>   -5.6304    1.0000 </r>
       <r>   -5.5961    1.0000 </r>
       <r>   -5.5667    1.0000 </r>
       <r>   -5.5288    1.0000 </r>
       <r>   -5.5143    1.0000 </r>
       <r>   -5.4813    1.0000 </r>
       <r>   -5.4426    1.0000 </r>
       <r>   -5.3888    1.0000 </r>
       <r>   -5.3659    1.0000 </r>
       <r>   -5.3425    1.0000 </r>
       <r>   -5.3078    1.0000 </r>
       <r>   -5.2923    1.0000 </r>
       <r>   -5.2815    1.0000 </r>
       <r>   -5.2586    1.0000 </r>
       <r>   -5.2453    1.0000 </r>
       <r>   -5.2203    1.0000 </r>
       <r>   -5.1660    1.0000 </r>
       <r>   -5.1539    1.0000 </r>
       <r>   -5.1370    1.0000 </r>
       <r>   -5.0963    1.0000 </r>
       <r>   -5.0814    1.0000 </r>
       <r>   -5.0484    1.0000 </r>
       <r>   -5.0348    1.0000 </r>
       <r>   -5.0080    1.0000 </r>
       <r>   -4.9832    1.0000 </r>
       <r>   -4.9289    1.0000 </r>
       <r>   -4.9245    1.0000 </r>
       <r>   -4.9032    1.0000 </r>
       <r>   -4.8857    1.0000 </r>
       <r>   -4.8539    1.0000 </r>
       <r>   -4.8459    1.0000 </r>
       <r>   -4.8037    1.0000 </r>
       <r>   -4.7864    1.0000 </r>
       <r>   -4.7368    1.0000 </r>
       <r>   -4.5141    1.0000 </r>
       <r>   -4.2283    1.0000 </r>
       <r>   -4.1436    1.0000 </r>
       <r>   -3.5802    1.0000 </r>
       <r>   -2.9524   -0.0000 </r>
       <r>   -2.8520   -0.0000 </r>
       <r>   -2.4755   -0.0000 </r>
       <r>   -2.3678   -0.0000 </r>
       <r>   -1.9642   -0.0000 </r>
       <r>   -1.9498   -0.0000 </r>
       <r>   -1.7225   -0.0000 </r>
       <r>   -1.4358   -0.0000 </r>
       <r>   -1.0142   -0.0000 </r>
       <r>   -0.8738   -0.0000 </r>
       <r>   -0.6872    0.0000 </r>
       <r>   -0.4362    0.0000 </r>
       <r>   -0.3263    0.0000 </r>
       <r>   -0.2221    0.0000 </r>
       <r>    0.1327    0.0000 </r>
      </set>
     </set>
     <set comment="spin 2">
      <set comment="kpoint 1">
       <r>  -28.1791    1.0000 </r>
       <r>  -13.7144    1.0000 </r>
       <r>  -11.1758    1.0000 </r>
       <r>  -10.9246    1.0000 </r>
       <r>  -10.7124    1.0000 </r>
       <r>  -10.1657    1.0000 </r>
       <r>   -8.6226    1.0000 </r>
       <r>   -8.2210    1.0000 </r>
       <r>   -7.7165    1.0000 </r>
       <r>   -7.6006    1.0000 </r>
       <r>   -7.4842    1.0000 </r>
       <r>   -7.3611    1.0000 </r>
       <r>   -7.2662    1.0000 </r>
       <r>   -7.1743    1.0000 </r>
       <r>   -7.0568    1.0000 </r>
       <r>   -7.0167    1.0000 </r>
       <r>   -6.7939    1.0000 </r>
       <r>   -6.7484    1.0000 </r>
       <r>   -6.7345    1.0000 </r>
       <r>   -6.7073    1.0000 </r>
       <r>   -6.6254    1.0000 </r>
       <r>   -6.5604    1.0000 </r>
       <r>   -6.5407    1.0000 </r>
       <r>   -6.5071    1.0000 </r>
       <r>   -6.4092    1.0000 </r>
       <r>   -6.3496    1.0000 </r>
       <r>   -6.3166    1.0000 </r>
       <r>   -6.2825    1.0000 </r>
       <r>   -6.1894    1.0000 </r>
       <r>   -6.1639    1.0000 </r>
       <r>   -6.1177    1.0000 </r>
       <r>   -6.0531    1.0000 </r>
       <r>   -6.0072    1.0000 </r>
       <r>   -6.0001    1.0000 </r>
       <r>   -5.9245    1.0000 </r>
       <r>   -5.8075    1.0000 </r>
       <r>   -5.7553    1.0000 </r>
       <r>   -5.7377    1.0000 </r>
       <r>   -5.6646    1.0000 </r>
       <r>   -5.5978    1.0000 </r>
       <r>   -5.5724    1.0000 </r>
       <r>   -5.5409    1.0000 </r>
       <r>   -5.4945    1.0000 </r>
       <r>   -5.4898    1.0000 </r>
       <r>   -5.4597    1.0000 </r>
       <r>   -5.4181    1.0000 </r>
       <r>   -5.3594    1.0000 </r>
       <r>   -5.3359    1.0000 </r>
       <r>   -5.3190    1.0000 </r>
       <r>   -5.2815    1.0000 </r>
       <r>   -5.2707    1.0000 </r>
       <r>   -5.2424    1.0000 </r>
       <r>   -5.2386    1.0000 </r>
       <r>   -5.2176    1.0000 </r>
       <r>   -5.1958    1.0000 </r>
       <r>   -5.1466    1.0000 </r>
       <r>   -5.1329    1.0000 </r>
       <r>   -5.1192    1.0000 </r>
       <r>   -5.0691    1.0000 </r>
       <r>   -5.0540    1.0000 </r>
       <r>   -5.0180    1.0000 </r>
       <r>   -5.0054    1.0000 </r>
       <r>   -4.9854    1.0000 </r>
       <r>   -4.9617    1.0000 </r>
       <r>   -4.9048    1.0000 </r>
       <r>   -4.8968    1.0000 </r>
       <r>   -4.8798    1.0000 </r>
       <r>   -4.8441    1.0000 </r>
       <r>   -4.8272    1.0000 </r>
       <r>   -4.8086    1.0000 </r>
       <r>   -4.7785    1.0000 </r>
       <r>   -4.7636    1.0000 </r>
       <r>   -4.7069    1.0000 </r>
       <r>   -4.4719    1.0000 </r>
       <r>   -4.1777    1.0258 </r>
       <r>   -4.0980    0.9742 </r>
       <r>   -3.3743   -0.0000 </r>
       <r>   -2.9032   -0.0000 </r>
       <r>   -2.7996   -0.0000 </r>
       <r>   -2.4091   -0.0000 </r>
       <r>   -2.2483   -0.0000 </r>
       <r>   -1.9205   -0.0000 </r>
       <r>   -1.8865   -0.0000 </r>
       <r>   -1.6506   -0.0000 </r>
       <r>   -1.3161   -0.0000 </r>
       <r>   -0.9019    0.0000 </r>
       <r>   -0.7951    0.0000 </r>
       <r>   -0.6098    0.0000 </r>
       <r>   -0.3498    0.0000 </r>
       <r>   -0.2750    0.0000 </r>
       <r>   -0.1486    0.0000 </r>
       <r>    0.1838    0.0000 </r>
      </set>
     </set>
    </set>
   </array>
  </eigenvalues>
  <separator name="orbital magnetization" >
   <v name="MAGDIPOLOUT">      0.00000000      0.00000000      0.00000000</v>
  </separator>
  <dos>
   <i name="efermi">     -4.02363696 </i>
   <total>
    <array>
     <dimension dim="1">gridpoints</dimension>
     <dimension dim="2">spin</dimension>
     <field>energy</field>
     <field>total</field>
     <field>integrated</field>
     <set>
      <set comment="spin 1">
       <r>   -29.6298     0.0000     0.0000 </r>
       <r>   -29.5257     0.0000     0.0000 </r>
       <r>   -29.4216     0.0000     0.0000 </r>
       <r>   -29.3175     0.0000     0.0000 </r>
       <r>   -29.2133     0.0000     0.0000 </r>
       <r>   -29.1092    -0.0000    -0.0000 </r>
       <r>   -29.0051    -0.0000    -0.0000 </r>
       <r>   -28.9010    -0.0000    -0.0000 </r>
       <r>   -28.7969    -0.0000    -0.0000 </r>
       <r>   -28.6928    -0.0000    -0.0000 </r>
       <r>   -28.5887    -0.0000    -0.0000 </r>
       <r>   -28.4846    -0.0069    -0.0007 </r>
       <r>   -28.3805    -0.3463    -0.0368 </r>
       <r>   -28.2763     1.3887     0.1078 </r>
       <r>   -28.1722    14.2627     1.5927 </r>
       <r>   -28.0681     4.5083     2.0621 </r>
       <r>   -27.9640    -0.5696     2.0028 </r>
       <r>   -27.8599    -0.0264     2.0000 </r>
       <r>   -27.7558    -0.0001     2.0000 </r>
       <r>   -27.6517    -0.0000     2.0000 </r>
       <r>   -27.5476    -0.0000     2.0000 </r>
       <r>   -27.4435     0.0000     2.0000 </r>
       <r>   -27.3393     0.0000     2.0000 </r>
       <r>   -27.2352     0.0000     2.0000 </r>
       <r>   -27.1311     0.0000     2.0000 </r>
       <r>   -27.0270     0.0000     2.0000 </r>
       <r>   -26.9229     0.0000     2.0000 </r>
       <r>   -26.8188     0.0000     2.0000 </r>
       <r>   -26.7147     0.0000     2.0000 </r>
       <r>   -26.6106     0.0000     2.0000 </r>
       <r>   -26.5065     0.0000     2.0000 </r>
       <r>   -26.4023     0.0000     2.0000 </r>
       <r>   -26.2982     0.0000     2.0000 </r>
       <r>   -26.1941     0.0000     2.0000 </r>
       <r>   -26.0900     0.0000     2.0000 </r>
       <r>   -25.9859     0.0000     2.0000 </r>
       <r>   -25.8818     0.0000     2.0000 </r>
       <r>   -25.7777     0.0000     2.0000 </r>
       <r>   -25.6736     0.0000     2.0000 </r>
       <r>   -25.5695     0.0000     2.0000 </r>
       <r>   -25.4654     0.0000     2.0000 </r>
       <r>   -25.3612     0.0000     2.0000 </r>
       <r>   -25.2571     0.0000     2.0000 </r>
       <r>   -25.1530     0.0000     2.0000 </r>
       <r>   -25.0489     0.0000     2.0000 </r>
       <r>   -24.9448     0.0000     2.0000 </r>
       <r>   -24.8407     0.0000     2.0000 </r>
       <r>   -24.7366     0.0000     2.0000 </r>
       <r>   -24.6325     0.0000     2.0000 </r>
       <r>   -24.5284     0.0000     2.0000 </r>
       <r>   -24.4242     0.0000     2.0000 </r>
       <r>   -24.3201     0.0000     2.0000 </r>
       <r>   -24.2160     0.0000     2.0000 </r>
       <r>   -24.1119     0.0000     2.0000 </r>
       <r>   -24.0078     0.0000     2.0000 </r>
       <r>   -23.9037     0.0000     2.0000 </r>
       <r>   -23.7996     0.0000     2.0000 </r>
       <r>   -23.6955     0.0000     2.0000 </r>
       <r>   -23.5914     0.0000     2.0000 </r>
       <r>   -23.4872     0.0000     2.0000 </r>
       <r>   -23.3831     0.0000     2.0000 </r>
       <r>   -23.2790     0.0000     2.0000 </r>
       <r>   -23.1749     0.0000     2.0000 </r>
       <r>   -23.0708     0.0000     2.0000 </r>
       <r>   -22.9667     0.0000     2.0000 </r>
       <r>   -22.8626     0.0000     2.0000 </r>
       <r>   -22.7585     0.0000     2.0000 </r>
       <r>   -22.6544     0.0000     2.0000 </r>
       <r>   -22.5502     0.0000     2.0000 </r>
       <r>   -22.4461     0.0000     2.0000 </r>
       <r>   -22.3420     0.0000     2.0000 </r>
       <r>   -22.2379     0.0000     2.0000 </r>
       <r>   -22.1338     0.0000     2.0000 </r>
       <r>   -22.0297     0.0000     2.0000 </r>
       <r>   -21.9256     0.0000     2.0000 </r>
       <r>   -21.8215     0.0000     2.0000 </r>
       <r>   -21.7174     0.0000     2.0000 </r>
       <r>   -21.6133     0.0000     2.0000 </r>
       <r>   -21.5091     0.0000     2.0000 </r>
       <r>   -21.4050     0.0000     2.0000 </r>
       <r>   -21.3009     0.0000     2.0000 </r>
       <r>   -21.1968     0.0000     2.0000 </r>
       <r>   -21.0927     0.0000     2.0000 </r>
       <r>   -20.9886     0.0000     2.0000 </r>
       <r>   -20.8845     0.0000     2.0000 </r>
       <r>   -20.7804     0.0000     2.0000 </r>
       <r>   -20.6763     0.0000     2.0000 </r>
       <r>   -20.5721     0.0000     2.0000 </r>
       <r>   -20.4680     0.0000     2.0000 </r>
       <r>   -20.3639     0.0000     2.0000 </r>
       <r>   -20.2598     0.0000     2.0000 </r>
       <r>   -20.1557     0.0000     2.0000 </r>
       <r>   -20.0516     0.0000     2.0000 </r>
       <r>   -19.9475     0.0000     2.0000 </r>
       <r>   -19.8434     0.0000     2.0000 </r>
       <r>   -19.7393     0.0000     2.0000 </r>
       <r>   -19.6351     0.0000     2.0000 </r>
       <r>   -19.5310     0.0000     2.0000 </r>
       <r>   -19.4269     0.0000     2.0000 </r>
       <r>   -19.3228     0.0000     2.0000 </r>
       <r>   -19.2187     0.0000     2.0000 </r>
       <r>   -19.1146     0.0000     2.0000 </r>
       <r>   -19.0105     0.0000     2.0000 </r>
       <r>   -18.9064     0.0000     2.0000 </r>
       <r>   -18.8023     0.0000     2.0000 </r>
       <r>   -18.6981     0.0000     2.0000 </r>
       <r>   -18.5940     0.0000     2.0000 </r>
       <r>   -18.4899     0.0000     2.0000 </r>
       <r>   -18.3858     0.0000     2.0000 </r>
       <r>   -18.2817     0.0000     2.0000 </r>
       <r>   -18.1776     0.0000     2.0000 </r>
       <r>   -18.0735     0.0000     2.0000 </r>
       <r>   -17.9694     0.0000     2.0000 </r>
       <r>   -17.8653     0.0000     2.0000 </r>
       <r>   -17.7612     0.0000     2.0000 </r>
       <r>   -17.6570     0.0000     2.0000 </r>
       <r>   -17.5529     0.0000     2.0000 </r>
       <r>   -17.4488     0.0000     2.0000 </r>
       <r>   -17.3447     0.0000     2.0000 </r>
       <r>   -17.2406     0.0000     2.0000 </r>
       <r>   -17.1365     0.0000     2.0000 </r>
       <r>   -17.0324     0.0000     2.0000 </r>
       <r>   -16.9283     0.0000     2.0000 </r>
       <r>   -16.8242     0.0000     2.0000 </r>
       <r>   -16.7200     0.0000     2.0000 </r>
       <r>   -16.6159     0.0000     2.0000 </r>
       <r>   -16.5118     0.0000     2.0000 </r>
       <r>   -16.4077     0.0000     2.0000 </r>
       <r>   -16.3036     0.0000     2.0000 </r>
       <r>   -16.1995     0.0000     2.0000 </r>
       <r>   -16.0954     0.0000     2.0000 </r>
       <r>   -15.9913     0.0000     2.0000 </r>
       <r>   -15.8872     0.0000     2.0000 </r>
       <r>   -15.7830     0.0000     2.0000 </r>
       <r>   -15.6789     0.0000     2.0000 </r>
       <r>   -15.5748     0.0000     2.0000 </r>
       <r>   -15.4707     0.0000     2.0000 </r>
       <r>   -15.3666     0.0000     2.0000 </r>
       <r>   -15.2625     0.0000     2.0000 </r>
       <r>   -15.1584     0.0000     2.0000 </r>
       <r>   -15.0543     0.0000     2.0000 </r>
       <r>   -14.9502     0.0000     2.0000 </r>
       <r>   -14.8460     0.0000     2.0000 </r>
       <r>   -14.7419     0.0000     2.0000 </r>
       <r>   -14.6378    -0.0000     2.0000 </r>
       <r>   -14.5337    -0.0000     2.0000 </r>
       <r>   -14.4296    -0.0000     2.0000 </r>
       <r>   -14.3255    -0.0000     2.0000 </r>
       <r>   -14.2214    -0.0000     2.0000 </r>
       <r>   -14.1173    -0.0001     2.0000 </r>
       <r>   -14.0132    -0.0293     1.9969 </r>
       <r>   -13.9091    -0.5841     1.9361 </r>
       <r>   -13.8049     4.8387     2.4399 </r>
       <r>   -13.7008    14.1235     3.9103 </r>
       <r>   -13.5967     1.1949     4.0347 </r>
       <r>   -13.4926    -0.3272     4.0006 </r>
       <r>   -13.3885    -0.0061     4.0000 </r>
       <r>   -13.2844    -0.0000     4.0000 </r>
       <r>   -13.1803    -0.0000     4.0000 </r>
       <r>   -13.0762    -0.0000     4.0000 </r>
       <r>   -12.9721     0.0000     4.0000 </r>
       <r>   -12.8679     0.0000     4.0000 </r>
       <r>   -12.7638     0.0000     4.0000 </r>
       <r>   -12.6597     0.0000     4.0000 </r>
       <r>   -12.5556     0.0000     4.0000 </r>
       <r>   -12.4515     0.0000     4.0000 </r>
       <r>   -12.3474     0.0000     4.0000 </r>
       <r>   -12.2433     0.0000     4.0000 </r>
       <r>   -12.1392     0.0000     4.0000 </r>
       <r>   -12.0351    -0.0000     4.0000 </r>
       <r>   -11.9309    -0.0000     4.0000 </r>
       <r>   -11.8268    -0.0000     4.0000 </r>
       <r>   -11.7227    -0.0000     4.0000 </r>
       <r>   -11.6186    -0.0000     4.0000 </r>
       <r>   -11.5145    -0.0024     3.9997 </r>
       <r>   -11.4104    -0.2036     3.9786 </r>
       <r>   -11.3063     0.1155     3.9906 </r>
       <r>   -11.2022    12.5015     5.2921 </r>
       <r>   -11.0981     6.9309     6.0137 </r>
       <r>   -10.9939     2.8924     6.3148 </r>
       <r>   -10.8898    14.5155     7.8261 </r>
       <r>   -10.7857    14.2918     9.3140 </r>
       <r>   -10.6816     7.2785    10.0718 </r>
       <r>   -10.5775    -0.6250    10.0067 </r>
       <r>   -10.4734    -0.0768     9.9987 </r>
       <r>   -10.3693    -0.4501     9.9518 </r>
       <r>   -10.2652     2.5809    10.2205 </r>
       <r>   -10.1611    14.6399    11.7447 </r>
       <r>   -10.0570     2.9439    12.0512 </r>
       <r>    -9.9528    -0.4767    12.0016 </r>
       <r>    -9.8487    -0.0150    12.0000 </r>
       <r>    -9.7446    -0.0000    12.0000 </r>
       <r>    -9.6405    -0.0000    12.0000 </r>
       <r>    -9.5364    -0.0000    12.0000 </r>
       <r>    -9.4323    -0.0000    12.0000 </r>
       <r>    -9.3282    -0.0000    12.0000 </r>
       <r>    -9.2241    -0.0000    12.0000 </r>
       <r>    -9.1200    -0.0000    12.0000 </r>
       <r>    -9.0158    -0.0000    12.0000 </r>
       <r>    -8.9117    -0.0099    11.9990 </r>
       <r>    -8.8076    -0.4046    11.9568 </r>
       <r>    -8.7035     2.0274    12.1679 </r>
       <r>    -8.5994    14.5492    13.6826 </r>
       <r>    -8.4953     3.5255    14.0497 </r>
       <r>    -8.3912    -1.1389    13.9311 </r>
       <r>    -8.2871     7.4832    14.7102 </r>
       <r>    -8.1830    12.4897    16.0105 </r>
       <r>    -8.0788     0.1028    16.0212 </r>
       <r>    -7.9747    -0.2896    15.9911 </r>
       <r>    -7.8706    -0.5826    15.9304 </r>
       <r>    -7.7665     8.3931    16.8042 </r>
       <r>    -7.6624    15.0258    18.3686 </r>
       <r>    -7.5583    17.0330    20.1419 </r>
       <r>    -7.4542    19.3725    22.1588 </r>
       <r>    -7.3501    17.9703    24.0297 </r>
       <r>    -7.2460    19.8023    26.0913 </r>
       <r>    -7.1418    19.6168    28.1336 </r>
       <r>    -7.0377    27.9828    31.0470 </r>
       <r>    -6.9336     8.6438    31.9469 </r>
       <r>    -6.8295    11.3722    33.1308 </r>
       <r>    -6.7254    50.8535    38.4252 </r>
       <r>    -6.6213    35.9057    42.1634 </r>
       <r>    -6.5172    44.6319    46.8101 </r>
       <r>    -6.4131    31.0363    50.0413 </r>
       <r>    -6.3090    41.1324    54.3236 </r>
       <r>    -6.2049    36.3425    58.1073 </r>
       <r>    -6.1007    41.7490    62.4538 </r>
       <r>    -5.9966    47.1570    67.3633 </r>
       <r>    -5.8925    25.4407    70.0120 </r>
       <r>    -5.7884    28.5493    72.9843 </r>
       <r>    -5.6843    39.7208    77.1197 </r>
       <r>    -5.5802    47.7996    82.0961 </r>
       <r>    -5.4761    64.7426    88.8365 </r>
       <r>    -5.3720    56.6255    94.7318 </r>
       <r>    -5.2679    87.6504   103.8572 </r>
       <r>    -5.1637    82.0693   112.4015 </r>
       <r>    -5.0596    78.1951   120.5425 </r>
       <r>    -4.9555    77.2262   128.5825 </r>
       <r>    -4.8514    87.2480   137.6660 </r>
       <r>    -4.7473    65.8685   144.5236 </r>
       <r>    -4.6432    15.1684   146.1028 </r>
       <r>    -4.5391     4.8945   146.6124 </r>
       <r>    -4.4350    12.9690   147.9626 </r>
       <r>    -4.3309    -0.1432   147.9477 </r>
       <r>    -4.2267    10.4074   149.0312 </r>
       <r>    -4.1226    22.8129   151.4063 </r>
       <r>    -4.0185     6.4927   152.0822 </r>
       <r>    -3.9144    -0.7357   152.0056 </r>
       <r>    -3.8103    -0.1055   151.9947 </r>
       <r>    -3.7062    -0.6263   151.9295 </r>
       <r>    -3.6021     6.8121   152.6387 </r>
       <r>    -3.4980    12.9882   153.9909 </r>
       <r>    -3.3939     0.3207   154.0243 </r>
       <r>    -3.2897    -0.2302   154.0003 </r>
       <r>    -3.1856    -0.0486   153.9952 </r>
       <r>    -3.0815    -0.6762   153.9248 </r>
       <r>    -2.9774     5.7166   154.5200 </r>
       <r>    -2.8733    20.2030   156.6234 </r>
       <r>    -2.7692    13.4140   158.0199 </r>
       <r>    -2.6651    -0.1725   158.0019 </r>
       <r>    -2.5610    -0.2580   157.9751 </r>
       <r>    -2.4569    12.6340   159.2904 </r>
       <r>    -2.3528    19.5206   161.3227 </r>
       <r>    -2.2486     7.2358   162.0760 </r>
       <r>    -2.1445    -1.1192   161.9595 </r>
       <r>    -2.0404     0.5410   162.0158 </r>
       <r>    -1.9363    25.4870   164.6693 </r>
       <r>    -1.8322    13.4892   166.0737 </r>
       <r>    -1.7281     8.1072   166.9177 </r>
       <r>    -1.6240    10.6284   168.0243 </r>
       <r>    -1.5199    -0.0888   168.0150 </r>
       <r>    -1.4158    12.6433   169.3313 </r>
       <r>    -1.3116     7.1011   170.0706 </r>
       <r>    -1.2075    -0.8122   169.9861 </r>
       <r>    -1.1034    -0.1115   169.9745 </r>
       <r>    -0.9993    11.5605   171.1780 </r>
       <r>    -0.8952    14.6700   172.7053 </r>
       <r>    -0.7911    11.8880   173.9430 </r>
       <r>    -0.6870    10.3931   175.0250 </r>
       <r>    -0.5829     9.3502   175.9985 </r>
       <r>    -0.4788     2.9317   176.3037 </r>
       <r>    -0.3746    17.0443   178.0782 </r>
       <r>    -0.2705    19.5949   180.1183 </r>
       <r>    -0.1664    16.6003   181.8465 </r>
       <r>    -0.0623     1.7506   182.0288 </r>
       <r>     0.0418    -0.5123   181.9755 </r>
       <r>     0.1459    11.9719   183.2219 </r>
       <r>     0.2500     8.1470   184.0700 </r>
       <r>     0.3541    -0.6005   184.0075 </r>
       <r>     0.4582    -0.0719   184.0000 </r>
       <r>     0.5624    -0.0004   184.0000 </r>
       <r>     0.6665    -0.0000   184.0000 </r>
       <r>     0.7706    -0.0000   184.0000 </r>
       <r>     0.8747     0.0000   184.0000 </r>
       <r>     0.9788     0.0000   184.0000 </r>
       <r>     1.0829     0.0000   184.0000 </r>
       <r>     1.1870     0.0000   184.0000 </r>
       <r>     1.2911     0.0000   184.0000 </r>
       <r>     1.3952     0.0000   184.0000 </r>
       <r>     1.4994     0.0000   184.0000 </r>
       <r>     1.6035     0.0000   184.0000 </r>
      </set>
      <set comment="spin 2">
       <r>   -29.6298     0.0000     0.0000 </r>
       <r>   -29.5257     0.0000     0.0000 </r>
       <r>   -29.4216     0.0000     0.0000 </r>
       <r>   -29.3175     0.0000     0.0000 </r>
       <r>   -29.2133     0.0000     0.0000 </r>
       <r>   -29.1092     0.0000     0.0000 </r>
       <r>   -29.0051    -0.0000    -0.0000 </r>
       <r>   -28.9010    -0.0000    -0.0000 </r>
       <r>   -28.7969    -0.0000    -0.0000 </r>
       <r>   -28.6928    -0.0000    -0.0000 </r>
       <r>   -28.5887    -0.0000    -0.0000 </r>
       <r>   -28.4846    -0.0013    -0.0001 </r>
       <r>   -28.3805    -0.1456    -0.0153 </r>
       <r>   -28.2763    -0.2765    -0.0441 </r>
       <r>   -28.1722    11.1402     1.1157 </r>
       <r>   -28.0681     9.1290     2.0662 </r>
       <r>   -27.9640    -0.5440     2.0095 </r>
       <r>   -27.8599    -0.0910     2.0001 </r>
       <r>   -27.7558    -0.0006     2.0000 </r>
       <r>   -27.6517    -0.0000     2.0000 </r>
       <r>   -27.5476    -0.0000     2.0000 </r>
       <r>   -27.4435     0.0000     2.0000 </r>
       <r>   -27.3393     0.0000     2.0000 </r>
       <r>   -27.2352     0.0000     2.0000 </r>
       <r>   -27.1311     0.0000     2.0000 </r>
       <r>   -27.0270     0.0000     2.0000 </r>
       <r>   -26.9229     0.0000     2.0000 </r>
       <r>   -26.8188     0.0000     2.0000 </r>
       <r>   -26.7147     0.0000     2.0000 </r>
       <r>   -26.6106     0.0000     2.0000 </r>
       <r>   -26.5065     0.0000     2.0000 </r>
       <r>   -26.4023     0.0000     2.0000 </r>
       <r>   -26.2982     0.0000     2.0000 </r>
       <r>   -26.1941     0.0000     2.0000 </r>
       <r>   -26.0900     0.0000     2.0000 </r>
       <r>   -25.9859     0.0000     2.0000 </r>
       <r>   -25.8818     0.0000     2.0000 </r>
       <r>   -25.7777     0.0000     2.0000 </r>
       <r>   -25.6736     0.0000     2.0000 </r>
       <r>   -25.5695     0.0000     2.0000 </r>
       <r>   -25.4654     0.0000     2.0000 </r>
       <r>   -25.3612     0.0000     2.0000 </r>
       <r>   -25.2571     0.0000     2.0000 </r>
       <r>   -25.1530     0.0000     2.0000 </r>
       <r>   -25.0489     0.0000     2.0000 </r>
       <r>   -24.9448     0.0000     2.0000 </r>
       <r>   -24.8407     0.0000     2.0000 </r>
       <r>   -24.7366     0.0000     2.0000 </r>
       <r>   -24.6325     0.0000     2.0000 </r>
       <r>   -24.5284     0.0000     2.0000 </r>
       <r>   -24.4242     0.0000     2.0000 </r>
       <r>   -24.3201     0.0000     2.0000 </r>
       <r>   -24.2160     0.0000     2.0000 </r>
       <r>   -24.1119     0.0000     2.0000 </r>
       <r>   -24.0078     0.0000     2.0000 </r>
       <r>   -23.9037     0.0000     2.0000 </r>
       <r>   -23.7996     0.0000     2.0000 </r>
       <r>   -23.6955     0.0000     2.0000 </r>
       <r>   -23.5914     0.0000     2.0000 </r>
       <r>   -23.4872     0.0000     2.0000 </r>
       <r>   -23.3831     0.0000     2.0000 </r>
       <r>   -23.2790     0.0000     2.0000 </r>
       <r>   -23.1749     0.0000     2.0000 </r>
       <r>   -23.0708     0.0000     2.0000 </r>
       <r>   -22.9667     0.0000     2.0000 </r>
       <r>   -22.8626     0.0000     2.0000 </r>
       <r>   -22.7585     0.0000     2.0000 </r>
       <r>   -22.6544     0.0000     2.0000 </r>
       <r>   -22.5502     0.0000     2.0000 </r>
       <r>   -22.4461     0.0000     2.0000 </r>
       <r>   -22.3420     0.0000     2.0000 </r>
       <r>   -22.2379     0.0000     2.0000 </r>
       <r>   -22.1338     0.0000     2.0000 </r>
       <r>   -22.0297     0.0000     2.0000 </r>
       <r>   -21.9256     0.0000     2.0000 </r>
       <r>   -21.8215     0.0000     2.0000 </r>
       <r>   -21.7174     0.0000     2.0000 </r>
       <r>   -21.6133     0.0000     2.0000 </r>
       <r>   -21.5091     0.0000     2.0000 </r>
       <r>   -21.4050     0.0000     2.0000 </r>
       <r>   -21.3009     0.0000     2.0000 </r>
       <r>   -21.1968     0.0000     2.0000 </r>
       <r>   -21.0927     0.0000     2.0000 </r>
       <r>   -20.9886     0.0000     2.0000 </r>
       <r>   -20.8845     0.0000     2.0000 </r>
       <r>   -20.7804     0.0000     2.0000 </r>
       <r>   -20.6763     0.0000     2.0000 </r>
       <r>   -20.5721     0.0000     2.0000 </r>
       <r>   -20.4680     0.0000     2.0000 </r>
       <r>   -20.3639     0.0000     2.0000 </r>
       <r>   -20.2598     0.0000     2.0000 </r>
       <r>   -20.1557     0.0000     2.0000 </r>
       <r>   -20.0516     0.0000     2.0000 </r>
       <r>   -19.9475     0.0000     2.0000 </r>
       <r>   -19.8434     0.0000     2.0000 </r>
       <r>   -19.7393     0.0000     2.0000 </r>
       <r>   -19.6351     0.0000     2.0000 </r>
       <r>   -19.5310     0.0000     2.0000 </r>
       <r>   -19.4269     0.0000     2.0000 </r>
       <r>   -19.3228     0.0000     2.0000 </r>
       <r>   -19.2187     0.0000     2.0000 </r>
       <r>   -19.1146     0.0000     2.0000 </r>
       <r>   -19.0105     0.0000     2.0000 </r>
       <r>   -18.9064     0.0000     2.0000 </r>
       <r>   -18.8023     0.0000     2.0000 </r>
       <r>   -18.6981     0.0000     2.0000 </r>
       <r>   -18.5940     0.0000     2.0000 </r>
       <r>   -18.4899     0.0000     2.0000 </r>
       <r>   -18.3858     0.0000     2.0000 </r>
       <r>   -18.2817     0.0000     2.0000 </r>
       <r>   -18.1776     0.0000     2.0000 </r>
       <r>   -18.0735     0.0000     2.0000 </r>
       <r>   -17.9694     0.0000     2.0000 </r>
       <r>   -17.8653     0.0000     2.0000 </r>
       <r>   -17.7612     0.0000     2.0000 </r>
       <r>   -17.6570     0.0000     2.0000 </r>
       <r>   -17.5529     0.0000     2.0000 </r>
       <r>   -17.4488     0.0000     2.0000 </r>
       <r>   -17.3447     0.0000     2.0000 </r>
       <r>   -17.2406     0.0000     2.0000 </r>
       <r>   -17.1365     0.0000     2.0000 </r>
       <r>   -17.0324     0.0000     2.0000 </r>
       <r>   -16.9283     0.0000     2.0000 </r>
       <r>   -16.8242     0.0000     2.0000 </r>
       <r>   -16.7200     0.0000     2.0000 </r>
       <r>   -16.6159     0.0000     2.0000 </r>
       <r>   -16.5118     0.0000     2.0000 </r>
       <r>   -16.4077     0.0000     2.0000 </r>
       <r>   -16.3036     0.0000     2.0000 </r>
       <r>   -16.1995     0.0000     2.0000 </r>
       <r>   -16.0954     0.0000     2.0000 </r>
       <r>   -15.9913     0.0000     2.0000 </r>
       <r>   -15.8872     0.0000     2.0000 </r>
       <r>   -15.7830     0.0000     2.0000 </r>
       <r>   -15.6789     0.0000     2.0000 </r>
       <r>   -15.5748     0.0000     2.0000 </r>
       <r>   -15.4707     0.0000     2.0000 </r>
       <r>   -15.3666     0.0000     2.0000 </r>
       <r>   -15.2625     0.0000     2.0000 </r>
       <r>   -15.1584     0.0000     2.0000 </r>
       <r>   -15.0543     0.0000     2.0000 </r>
       <r>   -14.9502     0.0000     2.0000 </r>
       <r>   -14.8460     0.0000     2.0000 </r>
       <r>   -14.7419     0.0000     2.0000 </r>
       <r>   -14.6378     0.0000     2.0000 </r>
       <r>   -14.5337    -0.0000     2.0000 </r>
       <r>   -14.4296    -0.0000     2.0000 </r>
       <r>   -14.3255    -0.0000     2.0000 </r>
       <r>   -14.2214    -0.0000     2.0000 </r>
       <r>   -14.1173    -0.0000     2.0000 </r>
       <r>   -14.0132    -0.0019     1.9998 </r>
       <r>   -13.9091    -0.1802     1.9810 </r>
       <r>   -13.8049    -0.0531     1.9755 </r>
       <r>   -13.7008    12.0314     3.2281 </r>
       <r>   -13.5967     8.0882     4.0702 </r>
       <r>   -13.4926    -0.6028     4.0074 </r>
       <r>   -13.3885    -0.0709     4.0000 </r>
       <r>   -13.2844    -0.0004     4.0000 </r>
       <r>   -13.1803    -0.0000     4.0000 </r>
       <r>   -13.0762    -0.0000     4.0000 </r>
       <r>   -12.9721     0.0000     4.0000 </r>
       <r>   -12.8679     0.0000     4.0000 </r>
       <r>   -12.7638     0.0000     4.0000 </r>
       <r>   -12.6597     0.0000     4.0000 </r>
       <r>   -12.5556     0.0000     4.0000 </r>
       <r>   -12.4515     0.0000     4.0000 </r>
       <r>   -12.3474     0.0000     4.0000 </r>
       <r>   -12.2433     0.0000     4.0000 </r>
       <r>   -12.1392     0.0000     4.0000 </r>
       <r>   -12.0351    -0.0000     4.0000 </r>
       <r>   -11.9309    -0.0000     4.0000 </r>
       <r>   -11.8268    -0.0000     4.0000 </r>
       <r>   -11.7227    -0.0000     4.0000 </r>
       <r>   -11.6186    -0.0000     4.0000 </r>
       <r>   -11.5145    -0.0002     4.0000 </r>
       <r>   -11.4104    -0.0429     3.9955 </r>
       <r>   -11.3063    -0.6211     3.9309 </r>
       <r>   -11.2022     6.1354     4.5696 </r>
       <r>   -11.0981    13.1043     5.9339 </r>
       <r>   -10.9939     1.7057     6.1115 </r>
       <r>   -10.8898    13.5266     7.5198 </r>
       <r>   -10.7857     5.7868     8.1222 </r>
       <r>   -10.6816    13.2075     9.4973 </r>
       <r>   -10.5775     5.4719    10.0670 </r>
       <r>   -10.4734    -0.6084    10.0036 </r>
       <r>   -10.3693    -0.1712     9.9858 </r>
       <r>   -10.2652    -0.3352     9.9509 </r>
       <r>   -10.1611    10.8325    11.0787 </r>
       <r>   -10.0570     9.4641    12.0640 </r>
       <r>    -9.9528    -0.5155    12.0103 </r>
       <r>    -9.8487    -0.0984    12.0001 </r>
       <r>    -9.7446    -0.0007    12.0000 </r>
       <r>    -9.6405    -0.0000    12.0000 </r>
       <r>    -9.5364    -0.0000    12.0000 </r>
       <r>    -9.4323    -0.0000    12.0000 </r>
       <r>    -9.3282    -0.0000    12.0000 </r>
       <r>    -9.2241    -0.0000    12.0000 </r>
       <r>    -9.1200    -0.0000    12.0000 </r>
       <r>    -9.0158    -0.0000    12.0000 </r>
       <r>    -8.9117    -0.0033    11.9997 </r>
       <r>    -8.8076    -0.2384    11.9748 </r>
       <r>    -8.7035     0.3894    12.0154 </r>
       <r>    -8.5994    13.1207    13.3814 </r>
       <r>    -8.4953     6.6096    14.0695 </r>
       <r>    -8.3912    -0.9733    13.9682 </r>
       <r>    -8.2871     1.3534    14.1091 </r>
       <r>    -8.1830    14.2711    15.5949 </r>
       <r>    -8.0788     4.4863    16.0619 </r>
       <r>    -7.9747    -0.5839    16.0011 </r>
       <r>    -7.8706    -0.5147    15.9476 </r>
       <r>    -7.7665     2.5996    16.2182 </r>
       <r>    -7.6624    16.1256    17.8970 </r>
       <r>    -7.5583    17.6372    19.7333 </r>
       <r>    -7.4542    16.8410    21.4866 </r>
       <r>    -7.3501    16.6838    23.2236 </r>
       <r>    -7.2460    21.3760    25.4490 </r>
       <r>    -7.1418    19.9214    27.5231 </r>
       <r>    -7.0377    24.1478    30.0371 </r>
       <r>    -6.9336    18.4482    31.9578 </r>
       <r>    -6.8295     3.8294    32.3565 </r>
       <r>    -6.7254    44.7345    37.0138 </r>
       <r>    -6.6213    41.5331    41.3378 </r>
       <r>    -6.5172    43.3701    45.8531 </r>
       <r>    -6.4131    31.3544    49.1175 </r>
       <r>    -6.3090    39.6787    53.2485 </r>
       <r>    -6.2049    37.1861    57.1199 </r>
       <r>    -6.1007    40.8820    61.3762 </r>
       <r>    -5.9966    46.4539    66.2125 </r>
       <r>    -5.8925    32.2463    69.5697 </r>
       <r>    -5.7884    23.5637    72.0230 </r>
       <r>    -5.6843    40.7456    76.2650 </r>
       <r>    -5.5802    40.4883    80.4803 </r>
       <r>    -5.4761    64.8593    87.2329 </r>
       <r>    -5.3720    55.8852    93.0511 </r>
       <r>    -5.2679    78.8836   101.2637 </r>
       <r>    -5.1637    91.0398   110.7420 </r>
       <r>    -5.0596    74.3624   118.4839 </r>
       <r>    -4.9555    78.1599   126.6212 </r>
       <r>    -4.8514    80.3242   134.9838 </r>
       <r>    -4.7473    79.0121   143.2098 </r>
       <r>    -4.6432    27.4124   146.0638 </r>
       <r>    -4.5391     0.8444   146.1517 </r>
       <r>    -4.4350    13.7175   147.5798 </r>
       <r>    -4.3309     4.0883   148.0054 </r>
       <r>    -4.2267     1.9070   148.2040 </r>
       <r>    -4.1226    21.0033   150.3907 </r>
       <r>    -4.0185    15.6912   152.0243 </r>
       <r>    -3.9144     0.0302   152.0274 </r>
       <r>    -3.8103    -0.2599   152.0004 </r>
       <r>    -3.7062    -0.0038   152.0000 </r>
       <r>    -3.6021    -0.0564   151.9941 </r>
       <r>    -3.4980    -0.6241   151.9291 </r>
       <r>    -3.3939     7.1747   152.6761 </r>
       <r>    -3.2897    12.7322   154.0016 </r>
       <r>    -3.1856     0.1972   154.0222 </r>
       <r>    -3.0815    -0.5046   153.9696 </r>
       <r>    -2.9774     0.5018   154.0219 </r>
       <r>    -2.8733    14.5525   155.5370 </r>
       <r>    -2.7692    19.3934   157.5560 </r>
       <r>    -2.6651     4.9300   158.0693 </r>
       <r>    -2.5610    -1.1450   157.9501 </r>
       <r>    -2.4569     3.1055   158.2734 </r>
       <r>    -2.3528    14.1640   159.7480 </r>
       <r>    -2.2486    12.4062   161.0396 </r>
       <r>    -2.1445     9.7043   162.0500 </r>
       <r>    -2.0404    -1.5380   161.8898 </r>
       <r>    -1.9363    10.6381   162.9974 </r>
       <r>    -1.8322    26.6760   165.7746 </r>
       <r>    -1.7281     3.1359   166.1011 </r>
       <r>    -1.6240    12.8078   167.4345 </r>
       <r>    -1.5199     5.9587   168.0549 </r>
       <r>    -1.4158    -0.9597   167.9550 </r>
       <r>    -1.3116    10.7671   169.0760 </r>
       <r>    -1.2075     9.4871   170.0637 </r>
       <r>    -1.1034    -0.6593   169.9950 </r>
       <r>    -0.9993    -0.5116   169.9418 </r>
       <r>    -0.8952    10.7654   171.0626 </r>
       <r>    -0.7911    19.6207   173.1053 </r>
       <r>    -0.6870     9.6277   174.1076 </r>
       <r>    -0.5829    12.8290   175.4433 </r>
       <r>    -0.4788     5.2042   175.9851 </r>
       <r>    -0.3746     5.3492   176.5420 </r>
       <r>    -0.2705    23.4267   178.9810 </r>
       <r>    -0.1664    17.4175   180.7943 </r>
       <r>    -0.0623    11.7441   182.0170 </r>
       <r>     0.0418    -0.5523   181.9595 </r>
       <r>     0.1459     4.3034   182.4076 </r>
       <r>     0.2500    14.2603   183.8922 </r>
       <r>     0.3541     1.3886   184.0368 </r>
       <r>     0.4582    -0.3463   184.0007 </r>
       <r>     0.5624    -0.0069   184.0000 </r>
       <r>     0.6665    -0.0000   184.0000 </r>
       <r>     0.7706    -0.0000   184.0000 </r>
       <r>     0.8747    -0.0000   184.0000 </r>
       <r>     0.9788     0.0000   184.0000 </r>
       <r>     1.0829     0.0000   184.0000 </r>
       <r>     1.1870     0.0000   184.0000 </r>
       <r>     1.2911     0.0000   184.0000 </r>
       <r>     1.3952     0.0000   184.0000 </r>
       <r>     1.4994     0.0000   184.0000 </r>
       <r>     1.6035     0.0000   184.0000 </r>
      </set>
     </set>
    </array>
   </total>
  </dos>
 </calculation>
 <structure name="finalpos" >
  <crystal>
   <varray name="basis" >
    <v>      15.00000000       0.00000000       0.00000000 </v>
    <v>       0.00000000      15.00000000       0.00000000 </v>
    <v>       0.00000000       0.00000000      15.00000000 </v>
   </varray>
   <i name="volume">   3375.00000000 </i>
   <varray name="rec_basis" >
    <v>       0.06666667       0.00000000       0.00000000 </v>
    <v>       0.00000000       0.06666667       0.00000000 </v>
    <v>       0.00000000       0.00000000       0.06666667 </v>
   </varray>
  </crystal>
  <varray name="positions" >
   <v>       0.28569333       0.41609200       0.55695133 </v>
   <v>       0.37110133       0.54295067       0.48777200 </v>
   <v>       0.38850667       0.28836133       0.57472067 </v>
   <v>       0.53202067       0.50765600       0.48672800 </v>
   <v>       0.55130800       0.35005400       0.52915867 </v>
   <v>       0.44803733       0.43641533       0.60535933 </v>
   <v>       0.41495600       0.39395133       0.45206600 </v>
   <v>       0.22841667       0.58271667       0.54191267 </v>
   <v>       0.34159667       0.54230600       0.64639467 </v>
   <v>       0.35539333       0.68736000       0.56173200 </v>
   <v>       0.49667600       0.66300067       0.48290533 </v>
   <v>       0.61845200       0.48418200       0.61456133 </v>
   <v>       0.48542800       0.59589467       0.62257333 </v>
   <v>       0.73863333       0.48248667       0.63779267 </v>
   <v>       0.81527333       0.48509933       0.62470667 </v>
  </varray>
 </structure>
</modeling>
