 vasp.5.4.4.18Apr17-6-g9f103f2a35 (build May 08 2019 13:49:07) complex          
  
 executed on             LinuxIFC date 2019.11.13  10:51:57
 running on   24 total cores
 distrk:  each k-point on   24 cores,    1 groups
 distr:  one band on NCORES_PER_BAND=   6 cores,    4 groups


--------------------------------------------------------------------------------------------------------


 INCAR:
 POTCAR:    PAW_PBE Cu 22Jun2005                  
 POTCAR:    PAW_PBE C 08Apr2002                   
 POTCAR:    PAW_PBE O 08Apr2002                   
 POTCAR:    PAW_PBE Cu 22Jun2005                  
   VRHFIN =Cu: d10 p1                                                           
   LEXCH  = PE                                                                  
   EATOM  =  1390.9808 eV,  102.2342 Ry                                         
                                                                                
   TITEL  = PAW_PBE Cu 22Jun2005                                                
   LULTRA =        F    use ultrasoft PP ?                                      
   IUNSCR =        1    unscreen: 0-lin 1-nonlin 2-no                           
   RPACOR =    2.000    partial core radius                                     
   POMASS =   63.546; ZVAL   =   11.000    mass and valenz                      
   RCORE  =    2.300    outmost cutoff radius                                   
   RWIGS  =    2.200; RWIGS  =    1.164    wigner-seitz radius (au A)           
   ENMAX  =  295.446; ENMIN  =  221.585 eV                                      
   ICORE  =        3    local potential                                         
   LCOR   =        T    correct aug charges                                     
   LPAW   =        T    paw PP                                                  
   EAUG   =  586.980                                                            
   DEXC   =    0.000                                                            
   RMAX   =    2.344    core radius for proj-oper                               
   RAUG   =    1.300    factor for augmentation sphere                          
   RDEP   =    2.302    radius for radial grids                                 
   RDEPT  =    1.771    core radius for aug-charge                              
                                                                                
   Atomic configuration                                                         
    9 entries                                                                   
     n  l   j            E        occ.                                          
     1  0  0.50     -8850.2468   2.0000                                         
     2  0  0.50     -1062.3498   2.0000                                         
     2  1  1.50      -916.8226   6.0000                                         
     3  0  0.50      -114.6929   2.0000                                         
     3  1  1.50       -72.1325   6.0000                                         
     3  2  2.50        -5.0394  10.0000                                         
     4  0  0.50        -4.6097   1.0000                                         
     4  1  0.50        -4.0817   0.0000                                         
     4  3  2.50        -1.3606   0.0000                                         
   Description                                                                  
     l       E           TYP  RCUT    TYP  RCUT                                 
     2     -5.0393973     23  2.200                                             
     2     10.8846608     23  2.200                                             
     0     -4.6097109     23  2.200                                             
     0      8.2520465     23  2.200                                             
     1     -2.7211652     23  2.200                                             
     1     21.7055443     23  2.200                                             
     3      2.7211652     23  2.300                                             
  local pseudopotential read in
  partial core-charges read in
  partial kinetic energy density read in
  atomic valenz-charges read in
  non local Contribution for L=           2  read in
    real space projection operators read in
  non local Contribution for L=           2  read in
    real space projection operators read in
  non local Contribution for L=           0  read in
    real space projection operators read in
  non local Contribution for L=           0  read in
    real space projection operators read in
  non local Contribution for L=           1  read in
    real space projection operators read in
  non local Contribution for L=           1  read in
    real space projection operators read in
    PAW grid and wavefunctions read in
 
   number of l-projection  operators is LMAX  =           6
   number of lm-projection operators is LMMAX =          18
 
 POTCAR:    PAW_PBE C 08Apr2002                   
   VRHFIN =C: s2p2                                                              
   LEXCH  = PE                                                                  
   EATOM  =   147.1560 eV,   10.8157 Ry                                         
                                                                                
   TITEL  = PAW_PBE C 08Apr2002                                                 
   LULTRA =        F    use ultrasoft PP ?                                      
   IUNSCR =        1    unscreen: 0-lin 1-nonlin 2-no                           
   RPACOR =    1.200    partial core radius                                     
   POMASS =   12.011; ZVAL   =    4.000    mass and valenz                      
   RCORE  =    1.500    outmost cutoff radius                                   
   RWIGS  =    1.630; RWIGS  =    0.863    wigner-seitz radius (au A)           
   ENMAX  =  400.000; ENMIN  =  300.000 eV                                      
   ICORE  =        2    local potential                                         
   LCOR   =        T    correct aug charges                                     
   LPAW   =        T    paw PP                                                  
   EAUG   =  644.873                                                            
   DEXC   =    0.000                                                            
   RMAX   =    1.529    core radius for proj-oper                               
   RAUG   =    1.300    factor for augmentation sphere                          
   RDEP   =    1.501    radius for radial grids                                 
   RDEPT  =    1.300    core radius for aug-charge                              
                                                                                
   Atomic configuration                                                         
    4 entries                                                                   
     n  l   j            E        occ.                                          
     1  0  0.50      -273.3789   2.0000                                         
     2  0  0.50       -13.7508   2.0000                                         
     2  1  0.50        -5.2854   2.0000                                         
     3  2  1.50        -5.4423   0.0000                                         
   Description                                                                  
     l       E           TYP  RCUT    TYP  RCUT                                 
     0    -13.7508458     23  1.200                                             
     0     -8.2022199     23  1.200                                             
     1     -5.2854383     23  1.500                                             
     1     34.0145650     23  1.500                                             
     2     -5.4423304      7  1.500                                             
  local pseudopotential read in
  partial core-charges read in
  partial kinetic energy density read in
  atomic valenz-charges read in
  non local Contribution for L=           0  read in
    real space projection operators read in
  non local Contribution for L=           0  read in
    real space projection operators read in
  non local Contribution for L=           1  read in
    real space projection operators read in
  non local Contribution for L=           1  read in
    real space projection operators read in
    PAW grid and wavefunctions read in
 
   number of l-projection  operators is LMAX  =           4
   number of lm-projection operators is LMMAX =           8
 
 POTCAR:    PAW_PBE O 08Apr2002                   
   VRHFIN =O: s2p4                                                              
   LEXCH  = PE                                                                  
   EATOM  =   432.3788 eV,   31.7789 Ry                                         
                                                                                
   TITEL  = PAW_PBE O 08Apr2002                                                 
   LULTRA =        F    use ultrasoft PP ?                                      
   IUNSCR =        1    unscreen: 0-lin 1-nonlin 2-no                           
   RPACOR =    1.200    partial core radius                                     
   POMASS =   16.000; ZVAL   =    6.000    mass and valenz                      
   RCORE  =    1.520    outmost cutoff radius                                   
   RWIGS  =    1.550; RWIGS  =    0.820    wigner-seitz radius (au A)           
   ENMAX  =  400.000; ENMIN  =  300.000 eV                                      
   ICORE  =        2    local potential                                         
   LCOR   =        T    correct aug charges                                     
   LPAW   =        T    paw PP                                                  
   EAUG   =  605.392                                                            
   DEXC   =    0.000                                                            
   RMAX   =    1.553    core radius for proj-oper                               
   RAUG   =    1.300    factor for augmentation sphere                          
   RDEP   =    1.550    radius for radial grids                                 
   RDEPT  =    1.329    core radius for aug-charge                              
                                                                                
   Atomic configuration                                                         
    4 entries                                                                   
     n  l   j            E        occ.                                          
     1  0  0.50      -514.6923   2.0000                                         
     2  0  0.50       -23.9615   2.0000                                         
     2  1  0.50        -9.0305   4.0000                                         
     3  2  1.50        -9.5241   0.0000                                         
   Description                                                                  
     l       E           TYP  RCUT    TYP  RCUT                                 
     0    -23.9615318     23  1.200                                             
     0     -9.5240782     23  1.200                                             
     1     -9.0304911     23  1.520                                             
     1      8.1634956     23  1.520                                             
     2     -9.5240782      7  1.500                                             
  local pseudopotential read in
  partial core-charges read in
  partial kinetic energy density read in
  kinetic energy density of atom read in
  atomic valenz-charges read in
  non local Contribution for L=           0  read in
    real space projection operators read in
  non local Contribution for L=           0  read in
    real space projection operators read in
  non local Contribution for L=           1  read in
    real space projection operators read in
  non local Contribution for L=           1  read in
    real space projection operators read in
    PAW grid and wavefunctions read in
 
   number of l-projection  operators is LMAX  =           4
   number of lm-projection operators is LMMAX =           8
 
  PAW_PBE Cu 22Jun2005                  :
 energy of atom  1       EATOM=-1390.9808
 kinetic energy error for atom=    0.0033 (will be added to EATOM!!)
  PAW_PBE C 08Apr2002                   :
 energy of atom  2       EATOM= -147.1560
 kinetic energy error for atom=    0.0057 (will be added to EATOM!!)
  PAW_PBE O 08Apr2002                   :
 energy of atom  3       EATOM= -432.3788
 kinetic energy error for atom=    0.0168 (will be added to EATOM!!)
 
 
 POSCAR: Cu13 C1 O1                              
  positions in cartesian coordinates
  No initial velocities read in
 exchange correlation table for  LEXCH =        8
   RHO(1)=    0.500       N(1)  =     2000
   RHO(2)=  100.500       N(2)  =     4000
 


--------------------------------------------------------------------------------------------------------


 ion  position               nearest neighbor table
   1  0.293  0.423  0.550-   2 2.37   7 2.44   6 2.50   3 2.50   8 2.51   9 2.55
   2  0.373  0.546  0.491-   8 2.33  10 2.35   1 2.37   7 2.39  11 2.45   4 2.49   9 2.52  13 2.66
                             6 2.72
   3  0.391  0.288  0.559-   7 2.37   6 2.47   1 2.50   5 2.68
   4  0.535  0.511  0.485-  12 2.39  11 2.42  13 2.42   5 2.42   7 2.46   2 2.49   6 2.60
   5  0.554  0.356  0.525-   6 2.38   7 2.40   4 2.42  12 2.45   3 2.68
   6  0.447  0.434  0.613-   5 2.38   9 2.41  13 2.42   3 2.47   1 2.50   7 2.53  12 2.57   4 2.60
                             2 2.72
   7  0.420  0.400  0.450-   3 2.37   2 2.39   5 2.40   1 2.44   4 2.46   6 2.53
   8  0.229  0.577  0.541-   2 2.33  10 2.44   9 2.44   1 2.51
   9  0.341  0.547  0.656-  10 2.38  13 2.39   6 2.41   8 2.44   2 2.52   1 2.55
  10  0.352  0.680  0.570-   2 2.35   9 2.38   8 2.44  11 2.47  13 2.58
  11  0.485  0.664  0.475-   4 2.42  13 2.42   2 2.45  10 2.47
  12  0.613  0.476  0.619-  14 1.82   4 2.39   5 2.45  13 2.52   6 2.57
  13  0.489  0.589  0.618-   9 2.39   6 2.42   4 2.42  11 2.42  12 2.52  10 2.58   2 2.66
  14  0.729  0.483  0.653-  15 1.17  12 1.82
  15  0.807  0.490  0.658-  14 1.17
 

IMPORTANT INFORMATION: All symmetrisations will be switched off!
NOSYMM: (Re-)initialisation of all symmetry stuff for point group C_1.

 
 

Automatic generation of k-mesh.
 generate k-points for:    1    1    1
Space group operators:
 irot       det(A)        alpha          n_x          n_y          n_z        tau_x        tau_y        tau_z
    1     1.000000     0.000000     1.000000     0.000000     0.000000     0.000000     0.000000     0.000000
 
 Subroutine IBZKPT returns following result:
 ===========================================
 
 Found      1 irreducible k-points:
 
 Following reciprocal coordinates:
            Coordinates               Weight
  0.000000  0.000000  0.000000      1.000000
 
 Following cartesian coordinates:
            Coordinates               Weight
  0.000000  0.000000  0.000000      1.000000
 


--------------------------------------------------------------------------------------------------------




 Dimension of arrays:
   k-points           NKPTS =      1   k-points in BZ     NKDIM =      1   number of bands    NBANDS=     92
   number of dos      NEDOS =    301   number of ions     NIONS =     15
   non local maximal  LDIM  =      6   non local SUM 2l+1 LMDIM =     18
   total plane-waves  NPLWV = ******
   max r-space proj   IRMAX =      1   max aug-charges    IRDMAX=  15028
   dimension x,y,z NGX =   120 NGY =  120 NGZ =  120
   dimension x,y,z NGXF=   240 NGYF=  240 NGZF=  240
   support grid    NGXF=   240 NGYF=  240 NGZF=  240
   ions per type =              13   1   1
   NGX,Y,Z   is equivalent  to a cutoff of  13.30, 13.30, 13.30 a.u.
   NGXF,Y,Z  is equivalent  to a cutoff of  26.60, 26.60, 26.60 a.u.

 SYSTEM =  CuCO                                    
 POSCAR =  Cu13 C1 O1                              

 Startparameter for this run:
   NWRITE =      2    write-flag & timer
   PREC   = accura    normal or accurate (medium, high low for compatibility)
   ISTART =      0    job   : 0-new  1-cont  2-samecut
   ICHARG =      2    charge: 1-file 2-atom 10-const
   ISPIN  =      2    spin polarized calculation?
   LNONCOLLINEAR =      F non collinear calculations
   LSORBIT =      F    spin-orbit coupling
   INIWAV =      1    electr: 0-lowe 1-rand  2-diag
   LASPH  =      F    aspherical Exc in radial PAW
   METAGGA=      F    non-selfconsistent MetaGGA calc.

 Electronic Relaxation 1
   ENCUT  =  600.0 eV  44.10 Ry    6.64 a.u.  29.96 29.96 29.96*2*pi/ulx,y,z
   ENINI  =  600.0     initial cutoff
   ENAUG  =  644.9 eV  augmentation charge cutoff
   NELM   =    300;   NELMIN=  3; NELMDL= -5     # of ELM steps 
   EDIFF  = 0.1E-06   stopping-criterion for ELM
   LREAL  =      F    real-space projection
   NLSPLINE    = F    spline interpolate recip. space projectors
   LCOMPAT=      F    compatible to vasp.4.4
   GGA_COMPAT  = T    GGA compatible to vasp.4.4-vasp.4.6
   LMAXPAW     = -100 max onsite density
   LMAXMIX     =    2 max onsite mixed and CHGCAR
   VOSKOWN=      0    Vosko Wilk Nusair interpolation
   ROPT   =    0.00000   0.00000   0.00000
 Ionic relaxation
   EDIFFG = -.1E-02   stopping-criterion for IOM
   NSW    =      0    number of steps for IOM
   NBLOCK =      1;   KBLOCK =      1    inner block; outer block 
   IBRION =     -1    ionic relax: 0-MD 1-quasi-New 2-CG
   NFREE  =      0    steps in history (QN), initial steepest desc. (CG)
   ISIF   =      2    stress and relaxation
   IWAVPR =     10    prediction:  0-non 1-charg 2-wave 3-comb
   ISYM   =      0    0-nonsym 1-usesym 2-fastsym
   LCORR  =      T    Harris-Foulkes like correction to forces

   POTIM  = 0.5000    time-step for ionic-motion
   TEIN   =    0.0    initial temperature
   TEBEG  =    0.0;   TEEND  =   0.0 temperature during run
   SMASS  =  -3.00    Nose mass-parameter (am)
   estimated Nose-frequenzy (Omega)   =  0.10E-29 period in steps =****** mass=  -0.514E-26a.u.
   SCALEE = 1.0000    scale energy and forces
   NPACO  =    256;   APACO  = 16.0  distance and # of slots for P.C.
   PSTRESS=    0.0 pullay stress

  Mass of Ions in am
   POMASS =  63.55 12.01 16.00
  Ionic Valenz
   ZVAL   =  11.00  4.00  6.00
  Atomic Wigner-Seitz radii
   RWIGS  =  -1.00 -1.00 -1.00
  virtual crystal weights 
   VCA    =   1.00  1.00  1.00
   NELECT =     153.0000    total number of electrons
   NUPDOWN=       1.0000    fix difference up-down

 DOS related values:
   EMIN   =  10.00;   EMAX   =-10.00  energy-range for DOS
   EFERMI =   0.00
   ISMEAR =     1;   SIGMA  =   0.10  broadening in eV -4-tet -1-fermi 0-gaus

 Electronic relaxation 2 (details)
   IALGO  =     68    algorithm
   LDIAG  =      T    sub-space diagonalisation (order eigenvalues)
   LSUBROT=      F    optimize rotation matrix (better conditioning)
   TURBO    =      0    0=normal 1=particle mesh
   IRESTART =      0    0=no restart 2=restart with 2 vectors
   NREBOOT  =      0    no. of reboots
   NMIN     =      0    reboot dimension
   EREF     =   0.00    reference energy to select bands
   IMIX   =      4    mixing-type and parameters
     AMIX     =   0.40;   BMIX     =  1.00
     AMIX_MAG =   1.60;   BMIX_MAG =  1.00
     AMIN     =   0.10
     WC   =   100.;   INIMIX=   1;  MIXPRE=   1;  MAXMIX= -45

 Intra band minimization:
   WEIMIN = 0.0000     energy-eigenvalue tresh-hold
   EBREAK =  0.27E-09  absolut break condition
   DEPER  =   0.30     relativ break condition  

   TIME   =   0.40     timestep for ELM

  volume/ion in A,a.u.               =     225.00      1518.37
  Fermi-wavevector in a.u.,A,eV,Ry     =   0.583733  1.103095  4.636102  0.340744
  Thomas-Fermi vector in A             =   1.629149
 
 Write flags
   LWAVE        =      F    write WAVECAR
   LDOWNSAMPLE  =      F    k-point downsampling of WAVECAR
   LCHARG       =      F    write CHGCAR
   LVTOT        =      F    write LOCPOT, total local potential
   LVHAR        =      F    write LOCPOT, Hartree potential only
   LELF         =      F    write electronic localiz. function (ELF)
   LORBIT       =      0    0 simple, 1 ext, 2 COOP (PROOUT), +10 PAW based schemes


 Dipole corrections
   LMONO  =      F    monopole corrections only (constant potential shift)
   LDIPOL =      F    correct potential (dipole corrections)
   IDIPOL =      0    1-x, 2-y, 3-z, 4-all directions 
   EPSILON=  1.0000000 bulk dielectric constant

 Exchange correlation treatment:
   GGA     =    PE    GGA type
   LEXCH   =     8    internal setting for exchange type
   VOSKOWN=      0    Vosko Wilk Nusair interpolation
   LHFCALC =     F    Hartree Fock is set to
   LHFONE  =     F    Hartree Fock one center treatment
   AEXX    =    0.0000 exact exchange contribution

 Linear response parameters
   LEPSILON=     F    determine dielectric tensor
   LRPA    =     F    only Hartree local field effects (RPA)
   LNABLA  =     F    use nabla operator in PAW spheres
   LVEL    =     F    velocity operator in full k-point grid
   LINTERFAST=   F  fast interpolation
   KINTER  =     0    interpolate to denser k-point grid
   CSHIFT  =0.1000    complex shift for real part using Kramers Kronig
   OMEGAMAX=  -1.0    maximum frequency
   DEG_THRESHOLD= 0.2000000E-02 threshold for treating states as degnerate
   RTIME   =   -0.100 relaxation time in fs
  (WPLASMAI=    0.000 imaginary part of plasma frequency in eV, 0.658/RTIME)
   DFIELD  = 0.0000000 0.0000000 0.0000000 field for delta impulse in time
 
 Orbital magnetization related:
   ORBITALMAG=     F  switch on orbital magnetization
   LCHIMAG   =     F  perturbation theory with respect to B field
   DQ        =  0.001000  dq finite difference perturbation B field
   LLRAUG    =     F  two centre corrections for induced B field



--------------------------------------------------------------------------------------------------------


 Static calculation
 charge density and potential will be updated during run
 spin polarized calculation
 RMM-DIIS sequential band-by-band and
  variant of blocked Davidson during initial phase
 perform sub-space diagonalisation
    before iterative eigenvector-optimisation
 modified Broyden-mixing scheme, WC =      100.0
 initial mixing is a Kerker type mixing with AMIX =  0.4000 and BMIX =      1.0000
 Hartree-type preconditioning will be used
 using additional bands           15
 reciprocal scheme for non local part
 use partial core corrections
 calculate Harris-corrections to forces 
   (improved forces if not selfconsistent)
 use gradient corrections 
 use of overlap-Matrix (Vanderbilt PP)
 Methfessel and Paxton  Order N= 1 SIGMA  =   0.10


--------------------------------------------------------------------------------------------------------


  energy-cutoff  :      600.00
  volume of cell :     3375.00
      direct lattice vectors                 reciprocal lattice vectors
    15.000000000  0.000000000  0.000000000     0.066666667  0.000000000  0.000000000
     0.000000000 15.000000000  0.000000000     0.000000000  0.066666667  0.000000000
     0.000000000  0.000000000 15.000000000     0.000000000  0.000000000  0.066666667

  length of vectors
    15.000000000 15.000000000 15.000000000     0.066666667  0.066666667  0.066666667


 
 k-points in units of 2pi/SCALE and weight: read from INCAR                         
   0.00000000  0.00000000  0.00000000       1.000
 
 k-points in reciprocal lattice and weights: read from INCAR                         
   0.00000000  0.00000000  0.00000000       1.000
 
 position of ions in fractional coordinates (direct lattice) 
   0.29327867  0.42285067  0.54972200
   0.37285333  0.54630867  0.49117133
   0.39147200  0.28830400  0.55873467
   0.53494333  0.51072533  0.48464400
   0.55359867  0.35556000  0.52526400
   0.44683867  0.43371267  0.61287667
   0.41972667  0.39967000  0.45006333
   0.22915467  0.57721267  0.54115000
   0.34068600  0.54683267  0.65589600
   0.35154200  0.68006667  0.57016467
   0.48489200  0.66360733  0.47489667
   0.61318800  0.47563067  0.61885667
   0.48931867  0.58896267  0.61815467
   0.72946000  0.48319267  0.65277067
   0.80664667  0.49049000  0.65810067
 
 position of ions in cartesian coordinates  (Angst):
   4.39918000  6.34276000  8.24583000
   5.59280000  8.19463000  7.36757000
   5.87208000  4.32456000  8.38102000
   8.02415000  7.66088000  7.26966000
   8.30398000  5.33340000  7.87896000
   6.70258000  6.50569000  9.19315000
   6.29590000  5.99505000  6.75095000
   3.43732000  8.65819000  8.11725000
   5.11029000  8.20249000  9.83844000
   5.27313000 10.20100000  8.55247000
   7.27338000  9.95411000  7.12345000
   9.19782000  7.13446000  9.28285000
   7.33978000  8.83444000  9.27232000
  10.94190000  7.24789000  9.79156000
  12.09970000  7.35735000  9.87151000
 


--------------------------------------------------------------------------------------------------------


 k-point  1 :   0.0000 0.0000 0.0000  plane waves:  112451

 maximum and minimum number of plane-waves per node :     18753    18726

 maximum number of plane-waves:    112451
 maximum index in each direction: 
   IXMAX=   29   IYMAX=   29   IZMAX=   29
   IXMIN=  -29   IYMIN=  -29   IZMIN=  -29


 parallel 3D FFT for wavefunctions:
    minimum data exchange during FFTs selected (reduces bandwidth)
 parallel 3D FFT for charge:
    minimum data exchange during FFTs selected (reduces bandwidth)


 total amount of memory used by VASP MPI-rank0   158680. kBytes
=======================================================================

   base      :      30000. kBytes
   nonl-proj :      12601. kBytes
   fftplans  :      27994. kBytes
   grid      :      74150. kBytes
   one-center:         93. kBytes
   wavefun   :      13842. kBytes
 
     INWAV:  cpu time    0.0000: real time    0.0001
 Broyden mixing: mesh for mixing (old mesh)
   NGX = 59   NGY = 59   NGZ = 59
  (NGX  =240   NGY  =240   NGZ  =240)
  gives a total of 205379 points

 initial charge density was supplied:
 charge density of overlapping atoms calculated
 number of electron     153.0000000 magnetization       1.0000000
 keeping initial charge density in first step


--------------------------------------------------------------------------------------------------------


 Maximum index for augmentation-charges          704 (set IRDMAX)


--------------------------------------------------------------------------------------------------------


 First call to EWALD:  gamma=   0.118
 Maximum number of real-space cells 3x 3x 3
 Maximum number of reciprocal cells 3x 3x 3

    FEWALD:  cpu time    0.0017: real time    0.0020


--------------------------------------- Iteration      1(   1)  ---------------------------------------


    POTLOK:  cpu time    1.1956: real time    1.1983
    SETDIJ:  cpu time    0.0185: real time    0.0185
     EDDAV:  cpu time    7.4222: real time    7.4378
       DOS:  cpu time    0.0011: real time    0.0011
    --------------------------------------------
      LOOP:  cpu time    8.6373: real time    8.6558

 eigenvalue-minimisations  :   376
 total energy-change (2. order) : 0.1120210E+04  (-0.4468114E+04)
 number of electron     153.0000000 magnetization       1.0000000
 augmentation part      153.0000000 magnetization       1.0000000

 Free energy of the ion-electron system (eV)
  ---------------------------------------------------
  alpha Z        PSCENC =        41.16232785
  Ewald energy   TEWEN  =     16790.01347022
  -Hartree energ DENC   =    -33805.48444674
  -exchange      EXHF   =         0.00000000
  -V(xc)+E(xc)   XCENC  =       623.97479408
  PAW double counting   =     16421.75059358   -17800.06104309
  entropy T*S    EENTRO =        -0.01888933
  eigenvalues    EBANDS =       186.65383044
  atomic energy  EATOM  =     18662.21924712
  Solvation  Ediel_sol  =         0.00000000
  ---------------------------------------------------
  free energy    TOTEN  =      1120.20988412 eV

  energy without entropy =     1120.22877346  energy(sigma->0) =     1120.21618057


--------------------------------------------------------------------------------------------------------




--------------------------------------- Iteration      1(   2)  ---------------------------------------


     EDDAV:  cpu time    7.3372: real time    7.3437
       DOS:  cpu time    0.0007: real time    0.0007
    --------------------------------------------
      LOOP:  cpu time    7.3379: real time    7.3444

 eigenvalue-minimisations  :   368
 total energy-change (2. order) :-0.1031691E+04  (-0.9790419E+03)
 number of electron     153.0000000 magnetization       1.0000000
 augmentation part      153.0000000 magnetization       1.0000000

 Free energy of the ion-electron system (eV)
  ---------------------------------------------------
  alpha Z        PSCENC =        41.16232785
  Ewald energy   TEWEN  =     16790.01347022
  -Hartree energ DENC   =    -33805.48444674
  -exchange      EXHF   =         0.00000000
  -V(xc)+E(xc)   XCENC  =       623.97479408
  PAW double counting   =     16421.75059358   -17800.06104309
  entropy T*S    EENTRO =         0.00857032
  eigenvalues    EBANDS =      -845.06487706
  atomic energy  EATOM  =     18662.21924712
  Solvation  Ediel_sol  =         0.00000000
  ---------------------------------------------------
  free energy    TOTEN  =        88.51863626 eV

  energy without entropy =       88.51006595  energy(sigma->0) =       88.51577949


--------------------------------------------------------------------------------------------------------




--------------------------------------- Iteration      1(   3)  ---------------------------------------


     EDDAV:  cpu time   11.6492: real time   11.6565
       DOS:  cpu time    0.0007: real time    0.0007
    --------------------------------------------
      LOOP:  cpu time   11.6499: real time   11.6572

 eigenvalue-minimisations  :   664
 total energy-change (2. order) :-0.1218277E+03  (-0.1135811E+03)
 number of electron     153.0000000 magnetization       1.0000000
 augmentation part      153.0000000 magnetization       1.0000000

 Free energy of the ion-electron system (eV)
  ---------------------------------------------------
  alpha Z        PSCENC =        41.16232785
  Ewald energy   TEWEN  =     16790.01347022
  -Hartree energ DENC   =    -33805.48444674
  -exchange      EXHF   =         0.00000000
  -V(xc)+E(xc)   XCENC  =       623.97479408
  PAW double counting   =     16421.75059358   -17800.06104309
  entropy T*S    EENTRO =         0.00830704
  eigenvalues    EBANDS =      -966.89227651
  atomic energy  EATOM  =     18662.21924712
  Solvation  Ediel_sol  =         0.00000000
  ---------------------------------------------------
  free energy    TOTEN  =       -33.30902646 eV

  energy without entropy =      -33.31733349  energy(sigma->0) =      -33.31179547


--------------------------------------------------------------------------------------------------------




--------------------------------------- Iteration      1(   4)  ---------------------------------------


     EDDAV:  cpu time   10.2189: real time   10.2285
       DOS:  cpu time    0.0008: real time    0.0008
    --------------------------------------------
      LOOP:  cpu time   10.2197: real time   10.2293

 eigenvalue-minimisations  :   568
 total energy-change (2. order) :-0.2271694E+02  (-0.2234320E+02)
 number of electron     153.0000000 magnetization       1.0000000
 augmentation part      153.0000000 magnetization       1.0000000

 Free energy of the ion-electron system (eV)
  ---------------------------------------------------
  alpha Z        PSCENC =        41.16232785
  Ewald energy   TEWEN  =     16790.01347022
  -Hartree energ DENC   =    -33805.48444674
  -exchange      EXHF   =         0.00000000
  -V(xc)+E(xc)   XCENC  =       623.97479408
  PAW double counting   =     16421.75059358   -17800.06104309
  entropy T*S    EENTRO =         0.01891672
  eigenvalues    EBANDS =      -989.61982766
  atomic energy  EATOM  =     18662.21924712
  Solvation  Ediel_sol  =         0.00000000
  ---------------------------------------------------
  free energy    TOTEN  =       -56.02596793 eV

  energy without entropy =      -56.04488465  energy(sigma->0) =      -56.03227350


--------------------------------------------------------------------------------------------------------




--------------------------------------- Iteration      1(   5)  ---------------------------------------


     EDDAV:  cpu time   12.0799: real time   12.0891
       DOS:  cpu time    0.0008: real time    0.0008
    CHARGE:  cpu time    0.6908: real time    0.6913
    MIXING:  cpu time    0.0226: real time    0.0226
    --------------------------------------------
      LOOP:  cpu time   12.7940: real time   12.8038

 eigenvalue-minimisations  :   696
 total energy-change (2. order) :-0.1694254E+01  (-0.1551571E+01)
 number of electron     153.0000014 magnetization       1.0000000
 augmentation part       87.3547954 magnetization       0.3814014

 Broyden mixing:
  rms(total) = 0.24160E+01    rms(broyden)= 0.24159E+01
  rms(prec ) = 0.27740E+01
  weight for this iteration     100.00

 Free energy of the ion-electron system (eV)
  ---------------------------------------------------
  alpha Z        PSCENC =        41.16232785
  Ewald energy   TEWEN  =     16790.01347022
  -Hartree energ DENC   =    -33805.48444674
  -exchange      EXHF   =         0.00000000
  -V(xc)+E(xc)   XCENC  =       623.97479408
  PAW double counting   =     16421.75059358   -17800.06104309
  entropy T*S    EENTRO =         0.01151076
  eigenvalues    EBANDS =      -991.30667571
  atomic energy  EATOM  =     18662.21924712
  Solvation  Ediel_sol  =         0.00000000
  ---------------------------------------------------
  free energy    TOTEN  =       -57.72022194 eV

  energy without entropy =      -57.73173270  energy(sigma->0) =      -57.72405886


--------------------------------------------------------------------------------------------------------




--------------------------------------- Iteration      1(   6)  ---------------------------------------


    POTLOK:  cpu time    1.1823: real time    1.1831
    SETDIJ:  cpu time    0.0191: real time    0.0190
    EDDIAG:  cpu time    1.0905: real time    1.0913
  RMM-DIIS:  cpu time    7.3371: real time    7.3415
    ORTHCH:  cpu time    0.0605: real time    0.0606
       DOS:  cpu time    0.0004: real time    0.0004
    CHARGE:  cpu time    0.6320: real time    0.6323
    MIXING:  cpu time    0.0237: real time    0.0237
    --------------------------------------------
      LOOP:  cpu time   10.3456: real time   10.3519

 eigenvalue-minimisations  :   425
 total energy-change (2. order) : 0.9445030E+00  (-0.1238040E+02)
 number of electron     153.0000016 magnetization       1.0000000
 augmentation part       95.6895370 magnetization       0.0720620

 Broyden mixing:
  rms(total) = 0.15775E+01    rms(broyden)= 0.15773E+01
  rms(prec ) = 0.18230E+01
  weight for this iteration     100.00

 eigenvalues of (default mixing * dielectric matrix)
  average eigenvalue GAMMA=   0.6136
  0.6136

 Free energy of the ion-electron system (eV)
  ---------------------------------------------------
  alpha Z        PSCENC =        41.16232785
  Ewald energy   TEWEN  =     16790.01347022
  -Hartree energ DENC   =    -33550.38722093
  -exchange      EXHF   =         0.00000000
  -V(xc)+E(xc)   XCENC  =       611.69951717
  PAW double counting   =     16726.55900392   -18050.10897261
  entropy T*S    EENTRO =         0.00604607
  eigenvalues    EBANDS =     -1287.93913779
  atomic energy  EATOM  =     18662.21924712
  Solvation  Ediel_sol  =         0.00000000
  ---------------------------------------------------
  free energy    TOTEN  =       -56.77571898 eV

  energy without entropy =      -56.78176505  energy(sigma->0) =      -56.77773433


--------------------------------------------------------------------------------------------------------




--------------------------------------- Iteration      1(   7)  ---------------------------------------


    POTLOK:  cpu time    1.1804: real time    1.1841
    SETDIJ:  cpu time    0.0185: real time    0.0185
    EDDIAG:  cpu time    1.0899: real time    1.0905
  RMM-DIIS:  cpu time    6.7004: real time    6.7044
    ORTHCH:  cpu time    0.0606: real time    0.0606
       DOS:  cpu time    0.0004: real time    0.0004
    CHARGE:  cpu time    0.6425: real time    0.6429
    MIXING:  cpu time    0.0247: real time    0.0247
    --------------------------------------------
      LOOP:  cpu time    9.7174: real time    9.7261

 eigenvalue-minimisations  :   382
 total energy-change (2. order) : 0.7382406E+01  (-0.2588142E+01)
 number of electron     153.0000015 magnetization       1.0000000
 augmentation part       92.8077095 magnetization       0.1039760

 Broyden mixing:
  rms(total) = 0.38615E+00    rms(broyden)= 0.38612E+00
  rms(prec ) = 0.48215E+00
  weight for this iteration     100.00

 eigenvalues of (default mixing * dielectric matrix)
  average eigenvalue GAMMA=   0.8914
  1.1126  0.6702

 Free energy of the ion-electron system (eV)
  ---------------------------------------------------
  alpha Z        PSCENC =        41.16232785
  Ewald energy   TEWEN  =     16790.01347022
  -Hartree energ DENC   =    -33688.75615905
  -exchange      EXHF   =         0.00000000
  -V(xc)+E(xc)   XCENC  =       616.13370430
  PAW double counting   =     17078.85825094   -18453.12234948
  entropy T*S    EENTRO =         0.00842804
  eigenvalues    EBANDS =     -1095.91023330
  atomic energy  EATOM  =     18662.21924712
  Solvation  Ediel_sol  =         0.00000000
  ---------------------------------------------------
  free energy    TOTEN  =       -49.39331335 eV

  energy without entropy =      -49.40174138  energy(sigma->0) =      -49.39612269


--------------------------------------------------------------------------------------------------------




--------------------------------------- Iteration      1(   8)  ---------------------------------------


    POTLOK:  cpu time    1.1819: real time    1.1826
    SETDIJ:  cpu time    0.0178: real time    0.0182
    EDDIAG:  cpu time    1.0893: real time    1.0900
  RMM-DIIS:  cpu time    7.0908: real time    7.0951
    ORTHCH:  cpu time    0.0597: real time    0.0598
       DOS:  cpu time    0.0004: real time    0.0004
    CHARGE:  cpu time    0.6544: real time    0.6545
    MIXING:  cpu time    0.0253: real time    0.0253
    --------------------------------------------
      LOOP:  cpu time   10.1197: real time   10.1259

 eigenvalue-minimisations  :   422
 total energy-change (2. order) : 0.2882187E+00  (-0.3772791E+00)
 number of electron     153.0000015 magnetization       1.0000000
 augmentation part       92.0654527 magnetization       0.1097000

 Broyden mixing:
  rms(total) = 0.27259E+00    rms(broyden)= 0.27257E+00
  rms(prec ) = 0.30765E+00
  weight for this iteration     100.00

 eigenvalues of (default mixing * dielectric matrix)
  average eigenvalue GAMMA=   0.9549
  1.3868  0.7390  0.7390

 Free energy of the ion-electron system (eV)
  ---------------------------------------------------
  alpha Z        PSCENC =        41.16232785
  Ewald energy   TEWEN  =     16790.01347022
  -Hartree energ DENC   =    -33734.64321873
  -exchange      EXHF   =         0.00000000
  -V(xc)+E(xc)   XCENC  =       616.45006494
  PAW double counting   =     17423.87554979   -18816.99991037
  entropy T*S    EENTRO =         0.00842492
  eigenvalues    EBANDS =     -1031.19105040
  atomic energy  EATOM  =     18662.21924712
  Solvation  Ediel_sol  =         0.00000000
  ---------------------------------------------------
  free energy    TOTEN  =       -49.10509466 eV

  energy without entropy =      -49.11351958  energy(sigma->0) =      -49.10790296


--------------------------------------------------------------------------------------------------------




--------------------------------------- Iteration      1(   9)  ---------------------------------------


    POTLOK:  cpu time    1.1808: real time    1.1832
    SETDIJ:  cpu time    0.0186: real time    0.0186
    EDDIAG:  cpu time    1.0915: real time    1.0922
  RMM-DIIS:  cpu time    6.7867: real time    6.7991
    ORTHCH:  cpu time    0.0602: real time    0.0605
       DOS:  cpu time    0.0004: real time    0.0004
    CHARGE:  cpu time    0.6508: real time    0.6509
    MIXING:  cpu time    0.0265: real time    0.0265
    --------------------------------------------
      LOOP:  cpu time    9.8155: real time    9.8315

 eigenvalue-minimisations  :   416
 total energy-change (2. order) : 0.2932956E-01  (-0.9240232E-01)
 number of electron     153.0000015 magnetization       1.0000000
 augmentation part       92.2549727 magnetization       0.0915406

 Broyden mixing:
  rms(total) = 0.18231E+00    rms(broyden)= 0.18231E+00
  rms(prec ) = 0.21651E+00
  weight for this iteration     100.00

 eigenvalues of (default mixing * dielectric matrix)
  average eigenvalue GAMMA=   1.0298
  2.0554  0.7728  0.7728  0.5182

 Free energy of the ion-electron system (eV)
  ---------------------------------------------------
  alpha Z        PSCENC =        41.16232785
  Ewald energy   TEWEN  =     16790.01347022
  -Hartree energ DENC   =    -33733.54313123
  -exchange      EXHF   =         0.00000000
  -V(xc)+E(xc)   XCENC  =       615.88173884
  PAW double counting   =     17567.18643022   -18963.10230835
  entropy T*S    EENTRO =         0.00866263
  eigenvalues    EBANDS =     -1028.90220239
  atomic energy  EATOM  =     18662.21924712
  Solvation  Ediel_sol  =         0.00000000
  ---------------------------------------------------
  free energy    TOTEN  =       -49.07576509 eV

  energy without entropy =      -49.08442772  energy(sigma->0) =      -49.07865264


--------------------------------------------------------------------------------------------------------




--------------------------------------- Iteration      1(  10)  ---------------------------------------


    POTLOK:  cpu time    1.1825: real time    1.1840
    SETDIJ:  cpu time    0.0186: real time    0.0186
    EDDIAG:  cpu time    1.0896: real time    1.0905
  RMM-DIIS:  cpu time    7.1482: real time    7.1533
    ORTHCH:  cpu time    0.0606: real time    0.0606
       DOS:  cpu time    0.0004: real time    0.0004
    CHARGE:  cpu time    0.6520: real time    0.6523
    MIXING:  cpu time    0.0277: real time    0.0277
    --------------------------------------------
      LOOP:  cpu time   10.1797: real time   10.1876

 eigenvalue-minimisations  :   421
 total energy-change (2. order) : 0.5838205E-01  (-0.2513006E-01)
 number of electron     153.0000015 magnetization       1.0000000
 augmentation part       92.3753445 magnetization       0.0833149

 Broyden mixing:
  rms(total) = 0.51903E-01    rms(broyden)= 0.51896E-01
  rms(prec ) = 0.68403E-01
  weight for this iteration     100.00

 eigenvalues of (default mixing * dielectric matrix)
  average eigenvalue GAMMA=   1.0302
  2.0857  0.9453  0.8272  0.8272  0.4658

 Free energy of the ion-electron system (eV)
  ---------------------------------------------------
  alpha Z        PSCENC =        41.16232785
  Ewald energy   TEWEN  =     16790.01347022
  -Hartree energ DENC   =    -33733.50137158
  -exchange      EXHF   =         0.00000000
  -V(xc)+E(xc)   XCENC  =       615.56539343
  PAW double counting   =     17661.80697202   -19059.64372758
  entropy T*S    EENTRO =         0.00807520
  eigenvalues    EBANDS =     -1026.64776974
  atomic energy  EATOM  =     18662.21924712
  Solvation  Ediel_sol  =         0.00000000
  ---------------------------------------------------
  free energy    TOTEN  =       -49.01738305 eV

  energy without entropy =      -49.02545825  energy(sigma->0) =      -49.02007478


--------------------------------------------------------------------------------------------------------




--------------------------------------- Iteration      1(  11)  ---------------------------------------


    POTLOK:  cpu time    1.1834: real time    1.1874
    SETDIJ:  cpu time    0.0188: real time    0.0188
    EDDIAG:  cpu time    1.0894: real time    1.0901
  RMM-DIIS:  cpu time    7.2584: real time    7.2631
    ORTHCH:  cpu time    0.0607: real time    0.0607
       DOS:  cpu time    0.0004: real time    0.0004
    CHARGE:  cpu time    0.6530: real time    0.6535
    MIXING:  cpu time    0.0290: real time    0.0290
    --------------------------------------------
      LOOP:  cpu time   10.2931: real time   10.3030

 eigenvalue-minimisations  :   445
 total energy-change (2. order) : 0.6995464E-02  (-0.6800947E-02)
 number of electron     153.0000015 magnetization       1.0000000
 augmentation part       92.3205407 magnetization       0.0872159

 Broyden mixing:
  rms(total) = 0.41625E-01    rms(broyden)= 0.41624E-01
  rms(prec ) = 0.53383E-01
  weight for this iteration     100.00

 eigenvalues of (default mixing * dielectric matrix)
  average eigenvalue GAMMA=   1.0441
  2.1509  1.4213  0.8213  0.7072  0.6931  0.4705

 Free energy of the ion-electron system (eV)
  ---------------------------------------------------
  alpha Z        PSCENC =        41.16232785
  Ewald energy   TEWEN  =     16790.01347022
  -Hartree energ DENC   =    -33740.90023700
  -exchange      EXHF   =         0.00000000
  -V(xc)+E(xc)   XCENC  =       615.68479883
  PAW double counting   =     17709.93658829   -19109.91519486
  entropy T*S    EENTRO =         0.00824871
  eigenvalues    EBANDS =     -1017.21963675
  atomic energy  EATOM  =     18662.21924712
  Solvation  Ediel_sol  =         0.00000000
  ---------------------------------------------------
  free energy    TOTEN  =       -49.01038758 eV

  energy without entropy =      -49.01863629  energy(sigma->0) =      -49.01313715


--------------------------------------------------------------------------------------------------------




--------------------------------------- Iteration      1(  12)  ---------------------------------------


    POTLOK:  cpu time    1.1823: real time    1.1829
    SETDIJ:  cpu time    0.0183: real time    0.0183
    EDDIAG:  cpu time    1.0889: real time    1.0895
  RMM-DIIS:  cpu time    6.9450: real time    6.9493
    ORTHCH:  cpu time    0.0602: real time    0.0602
       DOS:  cpu time    0.0004: real time    0.0004
    CHARGE:  cpu time    0.6535: real time    0.6541
    MIXING:  cpu time    0.0286: real time    0.0286
    --------------------------------------------
      LOOP:  cpu time    9.9773: real time    9.9834

 eigenvalue-minimisations  :   421
 total energy-change (2. order) : 0.2786689E-02  (-0.1801961E-02)
 number of electron     153.0000015 magnetization       1.0000000
 augmentation part       92.3325193 magnetization       0.0867798

 Broyden mixing:
  rms(total) = 0.17693E-01    rms(broyden)= 0.17692E-01
  rms(prec ) = 0.29373E-01
  weight for this iteration     100.00

 eigenvalues of (default mixing * dielectric matrix)
  average eigenvalue GAMMA=   1.0667
  2.4033  1.5933  1.0020  0.7314  0.7314  0.5432  0.4624

 Free energy of the ion-electron system (eV)
  ---------------------------------------------------
  alpha Z        PSCENC =        41.16232785
  Ewald energy   TEWEN  =     16790.01347022
  -Hartree energ DENC   =    -33743.39612165
  -exchange      EXHF   =         0.00000000
  -V(xc)+E(xc)   XCENC  =       615.70664241
  PAW double counting   =     17718.21832754   -19118.44029214
  entropy T*S    EENTRO =         0.00807612
  eigenvalues    EBANDS =     -1014.49927836
  atomic energy  EATOM  =     18662.21924712
  Solvation  Ediel_sol  =         0.00000000
  ---------------------------------------------------
  free energy    TOTEN  =       -49.00760090 eV

  energy without entropy =      -49.01567702  energy(sigma->0) =      -49.01029294


--------------------------------------------------------------------------------------------------------




--------------------------------------- Iteration      1(  13)  ---------------------------------------


    POTLOK:  cpu time    1.1832: real time    1.1838
    SETDIJ:  cpu time    0.0184: real time    0.0184
    EDDIAG:  cpu time    1.0884: real time    1.0893
  RMM-DIIS:  cpu time    6.9433: real time    6.9471
    ORTHCH:  cpu time    0.0603: real time    0.0603
       DOS:  cpu time    0.0004: real time    0.0004
    CHARGE:  cpu time    0.6534: real time    0.6538
    MIXING:  cpu time    0.0299: real time    0.0299
    --------------------------------------------
      LOOP:  cpu time    9.9772: real time    9.9830

 eigenvalue-minimisations  :   434
 total energy-change (2. order) : 0.9337010E-03  (-0.5279553E-03)
 number of electron     153.0000015 magnetization       1.0000000
 augmentation part       92.3485277 magnetization       0.0868714

 Broyden mixing:
  rms(total) = 0.96155E-02    rms(broyden)= 0.96152E-02
  rms(prec ) = 0.19681E-01
  weight for this iteration     100.00

 eigenvalues of (default mixing * dielectric matrix)
  average eigenvalue GAMMA=   1.1007
  2.3842  1.8944  1.1845  0.8967  0.7353  0.7353  0.5289  0.4466

 Free energy of the ion-electron system (eV)
  ---------------------------------------------------
  alpha Z        PSCENC =        41.16232785
  Ewald energy   TEWEN  =     16790.01347022
  -Hartree energ DENC   =    -33746.87386658
  -exchange      EXHF   =         0.00000000
  -V(xc)+E(xc)   XCENC  =       615.70782270
  PAW double counting   =     17724.17303242   -19124.43078101
  entropy T*S    EENTRO =         0.00810014
  eigenvalues    EBANDS =     -1010.98602005
  atomic energy  EATOM  =     18662.21924712
  Solvation  Ediel_sol  =         0.00000000
  ---------------------------------------------------
  free energy    TOTEN  =       -49.00666719 eV

  energy without entropy =      -49.01476733  energy(sigma->0) =      -49.00936724


--------------------------------------------------------------------------------------------------------




--------------------------------------- Iteration      1(  14)  ---------------------------------------


    POTLOK:  cpu time    1.1810: real time    1.1856
    SETDIJ:  cpu time    0.0181: real time    0.0181
    EDDIAG:  cpu time    1.0895: real time    1.0903
  RMM-DIIS:  cpu time    7.5108: real time    7.5150
    ORTHCH:  cpu time    0.0604: real time    0.0605
       DOS:  cpu time    0.0004: real time    0.0004
    CHARGE:  cpu time    0.6538: real time    0.6542
    MIXING:  cpu time    0.0303: real time    0.0303
    --------------------------------------------
      LOOP:  cpu time   10.5444: real time   10.5544

 eigenvalue-minimisations  :   465
 total energy-change (2. order) :-0.1058182E-02  (-0.2883781E-03)
 number of electron     153.0000015 magnetization       1.0000000
 augmentation part       92.3497462 magnetization       0.0868805

 Broyden mixing:
  rms(total) = 0.88882E-02    rms(broyden)= 0.88880E-02
  rms(prec ) = 0.14904E-01
  weight for this iteration     100.00

 eigenvalues of (default mixing * dielectric matrix)
  average eigenvalue GAMMA=   1.1606
  2.4350  2.4350  1.1639  1.1639  0.8117  0.7410  0.7410  0.5034  0.4506

 Free energy of the ion-electron system (eV)
  ---------------------------------------------------
  alpha Z        PSCENC =        41.16232785
  Ewald energy   TEWEN  =     16790.01347022
  -Hartree energ DENC   =    -33752.29231036
  -exchange      EXHF   =         0.00000000
  -V(xc)+E(xc)   XCENC  =       615.74813762
  PAW double counting   =     17717.25939155   -19117.26253067
  entropy T*S    EENTRO =         0.00807916
  eigenvalues    EBANDS =     -1005.86353788
  atomic energy  EATOM  =     18662.21924712
  Solvation  Ediel_sol  =         0.00000000
  ---------------------------------------------------
  free energy    TOTEN  =       -49.00772538 eV

  energy without entropy =      -49.01580454  energy(sigma->0) =      -49.01041843


--------------------------------------------------------------------------------------------------------




--------------------------------------- Iteration      1(  15)  ---------------------------------------


    POTLOK:  cpu time    1.1832: real time    1.1841
    SETDIJ:  cpu time    0.0185: real time    0.0185
    EDDIAG:  cpu time    1.0891: real time    1.0898
  RMM-DIIS:  cpu time    6.5667: real time    6.5712
    ORTHCH:  cpu time    0.0607: real time    0.0607
       DOS:  cpu time    0.0004: real time    0.0004
    CHARGE:  cpu time    0.6544: real time    0.6546
    MIXING:  cpu time    0.0311: real time    0.0311
    --------------------------------------------
      LOOP:  cpu time    9.6042: real time    9.6105

 eigenvalue-minimisations  :   402
 total energy-change (2. order) :-0.1289465E-02  (-0.1562255E-03)
 number of electron     153.0000015 magnetization       1.0000000
 augmentation part       92.3416174 magnetization       0.0874518

 Broyden mixing:
  rms(total) = 0.58510E-02    rms(broyden)= 0.58507E-02
  rms(prec ) = 0.98383E-02
  weight for this iteration     100.00

 eigenvalues of (default mixing * dielectric matrix)
  average eigenvalue GAMMA=   1.1627
  2.6327  2.6327  1.2531  1.2531  0.8476  0.7352  0.7352  0.5976  0.4516  0.4885

 Free energy of the ion-electron system (eV)
  ---------------------------------------------------
  alpha Z        PSCENC =        41.16232785
  Ewald energy   TEWEN  =     16790.01347022
  -Hartree energ DENC   =    -33756.08631608
  -exchange      EXHF   =         0.00000000
  -V(xc)+E(xc)   XCENC  =       615.79288357
  PAW double counting   =     17711.65288562   -19111.57911147
  entropy T*S    EENTRO =         0.00808923
  eigenvalues    EBANDS =     -1002.19249090
  atomic energy  EATOM  =     18662.21924712
  Solvation  Ediel_sol  =         0.00000000
  ---------------------------------------------------
  free energy    TOTEN  =       -49.00901484 eV

  energy without entropy =      -49.01710407  energy(sigma->0) =      -49.01171125


--------------------------------------------------------------------------------------------------------




--------------------------------------- Iteration      1(  16)  ---------------------------------------


    POTLOK:  cpu time    1.1800: real time    1.1814
    SETDIJ:  cpu time    0.0190: real time    0.0190
    EDDIAG:  cpu time    1.0900: real time    1.0909
  RMM-DIIS:  cpu time    6.3506: real time    6.3543
    ORTHCH:  cpu time    0.0609: real time    0.0609
       DOS:  cpu time    0.0004: real time    0.0004
    CHARGE:  cpu time    0.6547: real time    0.6551
    MIXING:  cpu time    0.0322: real time    0.0322
    --------------------------------------------
      LOOP:  cpu time    9.3878: real time    9.3942

 eigenvalue-minimisations  :   400
 total energy-change (2. order) :-0.1258947E-02  (-0.6302990E-04)
 number of electron     153.0000015 magnetization       1.0000000
 augmentation part       92.3426836 magnetization       0.0875229

 Broyden mixing:
  rms(total) = 0.44394E-02    rms(broyden)= 0.44393E-02
  rms(prec ) = 0.71967E-02
  weight for this iteration     100.00

 eigenvalues of (default mixing * dielectric matrix)
  average eigenvalue GAMMA=   1.2046
  3.0644  2.6055  1.4239  1.4239  0.8927  0.8927  0.7328  0.7328  0.4490  0.4967
  0.5361

 Free energy of the ion-electron system (eV)
  ---------------------------------------------------
  alpha Z        PSCENC =        41.16232785
  Ewald energy   TEWEN  =     16790.01347022
  -Hartree energ DENC   =    -33758.21559366
  -exchange      EXHF   =         0.00000000
  -V(xc)+E(xc)   XCENC  =       615.80987733
  PAW double counting   =     17708.44530066   -19108.29440377
  entropy T*S    EENTRO =         0.00812014
  eigenvalues    EBANDS =     -1000.15861968
  atomic energy  EATOM  =     18662.21924712
  Solvation  Ediel_sol  =         0.00000000
  ---------------------------------------------------
  free energy    TOTEN  =       -49.01027379 eV

  energy without entropy =      -49.01839393  energy(sigma->0) =      -49.01298050


--------------------------------------------------------------------------------------------------------




--------------------------------------- Iteration      1(  17)  ---------------------------------------


    POTLOK:  cpu time    1.1817: real time    1.1822
    SETDIJ:  cpu time    0.0188: real time    0.0188
    EDDIAG:  cpu time    1.0896: real time    1.0903
  RMM-DIIS:  cpu time    6.6690: real time    6.6732
    ORTHCH:  cpu time    0.0606: real time    0.0606
       DOS:  cpu time    0.0004: real time    0.0004
    CHARGE:  cpu time    0.6534: real time    0.6539
    MIXING:  cpu time    0.0335: real time    0.0335
    --------------------------------------------
      LOOP:  cpu time    9.7069: real time    9.7128

 eigenvalue-minimisations  :   388
 total energy-change (2. order) :-0.1634497E-02  (-0.5019826E-04)
 number of electron     153.0000015 magnetization       1.0000000
 augmentation part       92.3459724 magnetization       0.0875162

 Broyden mixing:
  rms(total) = 0.25082E-02    rms(broyden)= 0.25081E-02
  rms(prec ) = 0.42397E-02
  weight for this iteration     100.00

 eigenvalues of (default mixing * dielectric matrix)
  average eigenvalue GAMMA=   1.3151
  4.2009  2.5498  2.0710  1.4387  0.9513  0.9513  0.7498  0.7498  0.6738  0.4500
  0.5074  0.4874

 Free energy of the ion-electron system (eV)
  ---------------------------------------------------
  alpha Z        PSCENC =        41.16232785
  Ewald energy   TEWEN  =     16790.01347022
  -Hartree energ DENC   =    -33760.30282863
  -exchange      EXHF   =         0.00000000
  -V(xc)+E(xc)   XCENC  =       615.81707499
  PAW double counting   =     17706.39350017   -19106.18304846
  entropy T*S    EENTRO =         0.00811925
  eigenvalues    EBANDS =      -998.13977079
  atomic energy  EATOM  =     18662.21924712
  Solvation  Ediel_sol  =         0.00000000
  ---------------------------------------------------
  free energy    TOTEN  =       -49.01190829 eV

  energy without entropy =      -49.02002753  energy(sigma->0) =      -49.01461470


--------------------------------------------------------------------------------------------------------




--------------------------------------- Iteration      1(  18)  ---------------------------------------


    POTLOK:  cpu time    1.1830: real time    1.1861
    SETDIJ:  cpu time    0.0188: real time    0.0188
    EDDIAG:  cpu time    1.0893: real time    1.0899
  RMM-DIIS:  cpu time    6.7607: real time    6.7646
    ORTHCH:  cpu time    0.0602: real time    0.0602
       DOS:  cpu time    0.0004: real time    0.0004
    CHARGE:  cpu time    0.6527: real time    0.6529
    MIXING:  cpu time    0.0340: real time    0.0340
    --------------------------------------------
      LOOP:  cpu time    9.7991: real time    9.8070

 eigenvalue-minimisations  :   416
 total energy-change (2. order) :-0.9346527E-03  (-0.2262155E-04)
 number of electron     153.0000015 magnetization       1.0000000
 augmentation part       92.3431433 magnetization       0.0876844

 Broyden mixing:
  rms(total) = 0.14420E-02    rms(broyden)= 0.14419E-02
  rms(prec ) = 0.26484E-02
  weight for this iteration     100.00

 eigenvalues of (default mixing * dielectric matrix)
  average eigenvalue GAMMA=   1.3574
  4.9790  2.6398  2.1593  1.2450  1.2450  0.9239  0.9239  0.7359  0.7359  0.6293
  0.4503  0.5018  0.4768

 Free energy of the ion-electron system (eV)
  ---------------------------------------------------
  alpha Z        PSCENC =        41.16232785
  Ewald energy   TEWEN  =     16790.01347022
  -Hartree energ DENC   =    -33761.48402332
  -exchange      EXHF   =         0.00000000
  -V(xc)+E(xc)   XCENC  =       615.82238108
  PAW double counting   =     17706.23342096   -19106.05060028
  entropy T*S    EENTRO =         0.00812238
  eigenvalues    EBANDS =      -996.93718896
  atomic energy  EATOM  =     18662.21924712
  Solvation  Ediel_sol  =         0.00000000
  ---------------------------------------------------
  free energy    TOTEN  =       -49.01284294 eV

  energy without entropy =      -49.02096532  energy(sigma->0) =      -49.01555040


--------------------------------------------------------------------------------------------------------




--------------------------------------- Iteration      1(  19)  ---------------------------------------


    POTLOK:  cpu time    1.1832: real time    1.1840
    SETDIJ:  cpu time    0.0187: real time    0.0187
    EDDIAG:  cpu time    1.0900: real time    1.0908
  RMM-DIIS:  cpu time    6.6615: real time    6.6659
    ORTHCH:  cpu time    0.0605: real time    0.0605
       DOS:  cpu time    0.0004: real time    0.0004
    CHARGE:  cpu time    0.6532: real time    0.6537
    MIXING:  cpu time    0.0348: real time    0.0347
    --------------------------------------------
      LOOP:  cpu time    9.7023: real time    9.7085

 eigenvalue-minimisations  :   409
 total energy-change (2. order) :-0.6807750E-03  (-0.1099448E-04)
 number of electron     153.0000015 magnetization       1.0000000
 augmentation part       92.3414943 magnetization       0.0876393

 Broyden mixing:
  rms(total) = 0.12281E-02    rms(broyden)= 0.12281E-02
  rms(prec ) = 0.20751E-02
  weight for this iteration     100.00

 eigenvalues of (default mixing * dielectric matrix)
  average eigenvalue GAMMA=   1.4216
  5.7870  2.7149  2.2002  1.5392  1.5392  0.9659  0.9659  0.7408  0.7408  0.6740
  0.6044  0.4495  0.5019  0.4785

 Free energy of the ion-electron system (eV)
  ---------------------------------------------------
  alpha Z        PSCENC =        41.16232785
  Ewald energy   TEWEN  =     16790.01347022
  -Hartree energ DENC   =    -33762.06570134
  -exchange      EXHF   =         0.00000000
  -V(xc)+E(xc)   XCENC  =       615.82400465
  PAW double counting   =     17706.26767314   -19106.10455317
  entropy T*S    EENTRO =         0.00812323
  eigenvalues    EBANDS =      -996.33811541
  atomic energy  EATOM  =     18662.21924712
  Solvation  Ediel_sol  =         0.00000000
  ---------------------------------------------------
  free energy    TOTEN  =       -49.01352371 eV

  energy without entropy =      -49.02164694  energy(sigma->0) =      -49.01623145


--------------------------------------------------------------------------------------------------------




--------------------------------------- Iteration      1(  20)  ---------------------------------------


    POTLOK:  cpu time    1.1806: real time    1.1814
    SETDIJ:  cpu time    0.0180: real time    0.0180
    EDDIAG:  cpu time    1.0954: real time    1.0962
  RMM-DIIS:  cpu time    6.6824: real time    6.6863
    ORTHCH:  cpu time    0.0599: real time    0.0599
       DOS:  cpu time    0.0004: real time    0.0004
    CHARGE:  cpu time    0.6539: real time    0.6544
    MIXING:  cpu time    0.0370: real time    0.0370
    --------------------------------------------
      LOOP:  cpu time    9.7276: real time    9.7337

 eigenvalue-minimisations  :   408
 total energy-change (2. order) :-0.5632543E-03  (-0.4338223E-05)
 number of electron     153.0000015 magnetization       1.0000000
 augmentation part       92.3424180 magnetization       0.0876558

 Broyden mixing:
  rms(total) = 0.71657E-03    rms(broyden)= 0.71653E-03
  rms(prec ) = 0.12853E-02
  weight for this iteration     100.00

 eigenvalues of (default mixing * dielectric matrix)
  average eigenvalue GAMMA=   1.4601
  6.4016  2.7900  2.3086  2.0037  1.3703  1.0390  0.9248  0.9248  0.7496  0.7496
  0.6572  0.5469  0.4497  0.5079  0.4780

 Free energy of the ion-electron system (eV)
  ---------------------------------------------------
  alpha Z        PSCENC =        41.16232785
  Ewald energy   TEWEN  =     16790.01347022
  -Hartree energ DENC   =    -33762.18049653
  -exchange      EXHF   =         0.00000000
  -V(xc)+E(xc)   XCENC  =       615.82208435
  PAW double counting   =     17706.44666312   -19106.28394914
  entropy T*S    EENTRO =         0.00812030
  eigenvalues    EBANDS =      -996.22155426
  atomic energy  EATOM  =     18662.21924712
  Solvation  Ediel_sol  =         0.00000000
  ---------------------------------------------------
  free energy    TOTEN  =       -49.01408697 eV

  energy without entropy =      -49.02220727  energy(sigma->0) =      -49.01679373


--------------------------------------------------------------------------------------------------------




--------------------------------------- Iteration      1(  21)  ---------------------------------------


    POTLOK:  cpu time    1.1824: real time    1.1829
    SETDIJ:  cpu time    0.0181: real time    0.0181
    EDDIAG:  cpu time    1.0883: real time    1.0893
  RMM-DIIS:  cpu time    6.7427: real time    6.7466
    ORTHCH:  cpu time    0.0598: real time    0.0599
       DOS:  cpu time    0.0004: real time    0.0004
    CHARGE:  cpu time    0.6519: real time    0.6523
    MIXING:  cpu time    0.0389: real time    0.0389
    --------------------------------------------
      LOOP:  cpu time    9.7825: real time    9.7885

 eigenvalue-minimisations  :   402
 total energy-change (2. order) :-0.4315653E-03  (-0.3323761E-05)
 number of electron     153.0000015 magnetization       1.0000000
 augmentation part       92.3439890 magnetization       0.0876765

 Broyden mixing:
  rms(total) = 0.62871E-03    rms(broyden)= 0.62865E-03
  rms(prec ) = 0.96268E-03
  weight for this iteration     100.00

 eigenvalues of (default mixing * dielectric matrix)
  average eigenvalue GAMMA=   1.5050
  6.6863  3.2027  2.4424  2.0951  1.4094  1.4094  0.9838  0.9838  0.7622  0.7622
  0.7020  0.6713  0.5415  0.4498  0.5018  0.4771

 Free energy of the ion-electron system (eV)
  ---------------------------------------------------
  alpha Z        PSCENC =        41.16232785
  Ewald energy   TEWEN  =     16790.01347022
  -Hartree energ DENC   =    -33762.17302306
  -exchange      EXHF   =         0.00000000
  -V(xc)+E(xc)   XCENC  =       615.81944657
  PAW double counting   =     17706.67182831   -19106.50163254
  entropy T*S    EENTRO =         0.00811824
  eigenvalues    EBANDS =      -996.23430124
  atomic energy  EATOM  =     18662.21924712
  Solvation  Ediel_sol  =         0.00000000
  ---------------------------------------------------
  free energy    TOTEN  =       -49.01451853 eV

  energy without entropy =      -49.02263677  energy(sigma->0) =      -49.01722461


--------------------------------------------------------------------------------------------------------




--------------------------------------- Iteration      1(  22)  ---------------------------------------


    POTLOK:  cpu time    1.1821: real time    1.1862
    SETDIJ:  cpu time    0.0188: real time    0.0188
    EDDIAG:  cpu time    1.0896: real time    1.0904
  RMM-DIIS:  cpu time    6.4354: real time    6.4394
    ORTHCH:  cpu time    0.0599: real time    0.0599
       DOS:  cpu time    0.0004: real time    0.0004
    CHARGE:  cpu time    0.6545: real time    0.6546
    MIXING:  cpu time    0.0402: real time    0.0402
    --------------------------------------------
      LOOP:  cpu time    9.4810: real time    9.4900

 eigenvalue-minimisations  :   398
 total energy-change (2. order) :-0.2982548E-03  (-0.2316217E-05)
 number of electron     153.0000015 magnetization       1.0000000
 augmentation part       92.3438835 magnetization       0.0876739

 Broyden mixing:
  rms(total) = 0.43467E-03    rms(broyden)= 0.43466E-03
  rms(prec ) = 0.62475E-03
  weight for this iteration     100.00

 eigenvalues of (default mixing * dielectric matrix)
  average eigenvalue GAMMA=   1.5451
  7.0774  3.9245  2.4892  2.1345  1.5406  1.5406  0.9766  0.9766  0.7754  0.7754
  0.7935  0.6961  0.5900  0.5498  0.4497  0.4785  0.4990

 Free energy of the ion-electron system (eV)
  ---------------------------------------------------
  alpha Z        PSCENC =        41.16232785
  Ewald energy   TEWEN  =     16790.01347022
  -Hartree energ DENC   =    -33762.25424870
  -exchange      EXHF   =         0.00000000
  -V(xc)+E(xc)   XCENC  =       615.81846660
  PAW double counting   =     17706.88628796   -19106.71815403
  entropy T*S    EENTRO =         0.00812056
  eigenvalues    EBANDS =      -996.15033436
  atomic energy  EATOM  =     18662.21924712
  Solvation  Ediel_sol  =         0.00000000
  ---------------------------------------------------
  free energy    TOTEN  =       -49.01481679 eV

  energy without entropy =      -49.02293735  energy(sigma->0) =      -49.01752364


--------------------------------------------------------------------------------------------------------




--------------------------------------- Iteration      1(  23)  ---------------------------------------


    POTLOK:  cpu time    1.1808: real time    1.1818
    SETDIJ:  cpu time    0.0184: real time    0.0184
    EDDIAG:  cpu time    1.0871: real time    1.0877
  RMM-DIIS:  cpu time    6.4414: real time    6.4459
    ORTHCH:  cpu time    0.0601: real time    0.0601
       DOS:  cpu time    0.0004: real time    0.0004
    CHARGE:  cpu time    0.6559: real time    0.6565
    MIXING:  cpu time    0.0432: real time    0.0432
    --------------------------------------------
      LOOP:  cpu time    9.4874: real time    9.4940

 eigenvalue-minimisations  :   407
 total energy-change (2. order) :-0.1172301E-03  (-0.7819346E-06)
 number of electron     153.0000015 magnetization       1.0000000
 augmentation part       92.3431261 magnetization       0.0876649

 Broyden mixing:
  rms(total) = 0.25285E-03    rms(broyden)= 0.25282E-03
  rms(prec ) = 0.39093E-03
  weight for this iteration     100.00

 eigenvalues of (default mixing * dielectric matrix)
  average eigenvalue GAMMA=   1.5684
  7.4860  4.2210  2.4543  2.2303  1.8161  1.2861  1.2861  0.9846  0.9846  0.7707
  0.7707  0.6933  0.6933  0.5909  0.4497  0.4781  0.5306  0.5045

 Free energy of the ion-electron system (eV)
  ---------------------------------------------------
  alpha Z        PSCENC =        41.16232785
  Ewald energy   TEWEN  =     16790.01347022
  -Hartree energ DENC   =    -33762.32519659
  -exchange      EXHF   =         0.00000000
  -V(xc)+E(xc)   XCENC  =       615.81909386
  PAW double counting   =     17706.93966497   -19106.77765514
  entropy T*S    EENTRO =         0.00812066
  eigenvalues    EBANDS =      -996.07400697
  atomic energy  EATOM  =     18662.21924712
  Solvation  Ediel_sol  =         0.00000000
  ---------------------------------------------------
  free energy    TOTEN  =       -49.01493402 eV

  energy without entropy =      -49.02305467  energy(sigma->0) =      -49.01764090


--------------------------------------------------------------------------------------------------------




--------------------------------------- Iteration      1(  24)  ---------------------------------------


    POTLOK:  cpu time    1.1804: real time    1.1815
    SETDIJ:  cpu time    0.0187: real time    0.0187
    EDDIAG:  cpu time    1.0951: real time    1.0961
  RMM-DIIS:  cpu time    6.2372: real time    6.2713
    ORTHCH:  cpu time    0.0603: real time    0.0603
       DOS:  cpu time    0.0004: real time    0.0004
    CHARGE:  cpu time    0.6611: real time    0.6620
    MIXING:  cpu time    0.0431: real time    0.0431
    --------------------------------------------
      LOOP:  cpu time    9.2963: real time    9.3335

 eigenvalue-minimisations  :   396
 total energy-change (2. order) :-0.9999245E-04  (-0.7203744E-06)
 number of electron     153.0000015 magnetization       1.0000000
 augmentation part       92.3430003 magnetization       0.0876526

 Broyden mixing:
  rms(total) = 0.13932E-03    rms(broyden)= 0.13930E-03
  rms(prec ) = 0.23415E-03
  weight for this iteration     100.00

 eigenvalues of (default mixing * dielectric matrix)
  average eigenvalue GAMMA=   1.5809
  7.7523  4.5107  2.4049  2.4049  1.8659  1.4276  1.4276  0.9847  0.9847  0.8109
  0.8109  0.7382  0.7382  0.4497  0.6151  0.5964  0.4782  0.5015  0.5356

 Free energy of the ion-electron system (eV)
  ---------------------------------------------------
  alpha Z        PSCENC =        41.16232785
  Ewald energy   TEWEN  =     16790.01347022
  -Hartree energ DENC   =    -33762.34179299
  -exchange      EXHF   =         0.00000000
  -V(xc)+E(xc)   XCENC  =       615.81943542
  PAW double counting   =     17706.84568526   -19106.68354664
  entropy T*S    EENTRO =         0.00812116
  eigenvalues    EBANDS =      -996.05798140
  atomic energy  EATOM  =     18662.21924712
  Solvation  Ediel_sol  =         0.00000000
  ---------------------------------------------------
  free energy    TOTEN  =       -49.01503401 eV

  energy without entropy =      -49.02315517  energy(sigma->0) =      -49.01774106


--------------------------------------------------------------------------------------------------------




--------------------------------------- Iteration      1(  25)  ---------------------------------------


    POTLOK:  cpu time    1.1836: real time    1.1845
    SETDIJ:  cpu time    0.0175: real time    0.0176
    EDDIAG:  cpu time    1.0951: real time    1.0957
  RMM-DIIS:  cpu time    6.2838: real time    6.2876
    ORTHCH:  cpu time    0.0600: real time    0.0600
       DOS:  cpu time    0.0004: real time    0.0004
    CHARGE:  cpu time    0.6584: real time    0.6590
    MIXING:  cpu time    0.0453: real time    0.0453
    --------------------------------------------
      LOOP:  cpu time    9.3441: real time    9.3500

 eigenvalue-minimisations  :   390
 total energy-change (2. order) :-0.6786363E-04  (-0.5626156E-06)
 number of electron     153.0000015 magnetization       1.0000000
 augmentation part       92.3430948 magnetization       0.0876584

 Broyden mixing:
  rms(total) = 0.11133E-03    rms(broyden)= 0.11132E-03
  rms(prec ) = 0.16947E-03
  weight for this iteration     100.00

 eigenvalues of (default mixing * dielectric matrix)
  average eigenvalue GAMMA=   1.6313
  8.0096  5.0452  2.5820  2.5820  2.0740  1.6423  1.2630  1.2630  1.0036  1.0036
  0.7724  0.7724  0.7150  0.7150  0.6419  0.4497  0.4779  0.5719  0.5017  0.5398

 Free energy of the ion-electron system (eV)
  ---------------------------------------------------
  alpha Z        PSCENC =        41.16232785
  Ewald energy   TEWEN  =     16790.01347022
  -Hartree energ DENC   =    -33762.33557601
  -exchange      EXHF   =         0.00000000
  -V(xc)+E(xc)   XCENC  =       615.81927344
  PAW double counting   =     17706.76463600   -19106.60004293
  entropy T*S    EENTRO =         0.00812122
  eigenvalues    EBANDS =      -996.06655878
  atomic energy  EATOM  =     18662.21924712
  Solvation  Ediel_sol  =         0.00000000
  ---------------------------------------------------
  free energy    TOTEN  =       -49.01510187 eV

  energy without entropy =      -49.02322309  energy(sigma->0) =      -49.01780895


--------------------------------------------------------------------------------------------------------




--------------------------------------- Iteration      1(  26)  ---------------------------------------


    POTLOK:  cpu time    1.1820: real time    1.1863
    SETDIJ:  cpu time    0.0190: real time    0.0191
    EDDIAG:  cpu time    1.0947: real time    1.0954
  RMM-DIIS:  cpu time    6.1329: real time    6.1366
    ORTHCH:  cpu time    0.0597: real time    0.0597
       DOS:  cpu time    0.0004: real time    0.0004
    CHARGE:  cpu time    0.6570: real time    0.6575
    MIXING:  cpu time    0.0503: real time    0.0503
    --------------------------------------------
      LOOP:  cpu time    9.1961: real time    9.2053

 eigenvalue-minimisations  :   376
 total energy-change (2. order) :-0.3121553E-04  (-0.2986056E-06)
 number of electron     153.0000015 magnetization       1.0000000
 augmentation part       92.3433078 magnetization       0.0876740

 Broyden mixing:
  rms(total) = 0.67642E-04    rms(broyden)= 0.67640E-04
  rms(prec ) = 0.10254E-03
  weight for this iteration     100.00

 eigenvalues of (default mixing * dielectric matrix)
  average eigenvalue GAMMA=   1.6489
  8.1474  5.4483  3.0173  2.5210  1.9244  1.9244  1.3309  1.3309  1.0029  1.0029
  0.8411  0.8411  0.7469  0.7469  0.6287  0.6287  0.4497  0.5845  0.4781  0.5021
  0.5295

 Free energy of the ion-electron system (eV)
  ---------------------------------------------------
  alpha Z        PSCENC =        41.16232785
  Ewald energy   TEWEN  =     16790.01347022
  -Hartree energ DENC   =    -33762.32477511
  -exchange      EXHF   =         0.00000000
  -V(xc)+E(xc)   XCENC  =       615.81892829
  PAW double counting   =     17706.72366125   -19106.55616731
  entropy T*S    EENTRO =         0.00812084
  eigenvalues    EBANDS =      -996.07994624
  atomic energy  EATOM  =     18662.21924712
  Solvation  Ediel_sol  =         0.00000000
  ---------------------------------------------------
  free energy    TOTEN  =       -49.01513309 eV

  energy without entropy =      -49.02325393  energy(sigma->0) =      -49.01784004


--------------------------------------------------------------------------------------------------------




--------------------------------------- Iteration      1(  27)  ---------------------------------------


    POTLOK:  cpu time    1.1809: real time    1.1816
    SETDIJ:  cpu time    0.0191: real time    0.0191
    EDDIAG:  cpu time    1.0926: real time    1.0932
  RMM-DIIS:  cpu time    5.0066: real time    5.0095
    ORTHCH:  cpu time    0.0595: real time    0.0595
       DOS:  cpu time    0.0004: real time    0.0004
    CHARGE:  cpu time    0.6563: real time    0.6568
    MIXING:  cpu time    0.0515: real time    0.0515
    --------------------------------------------
      LOOP:  cpu time    8.0668: real time    8.0717

 eigenvalue-minimisations  :   289
 total energy-change (2. order) :-0.1458079E-04  (-0.1422065E-06)
 number of electron     153.0000015 magnetization       1.0000000
 augmentation part       92.3432760 magnetization       0.0876736

 Broyden mixing:
  rms(total) = 0.52760E-04    rms(broyden)= 0.52755E-04
  rms(prec ) = 0.76073E-04
  weight for this iteration     100.00

 eigenvalues of (default mixing * dielectric matrix)
  average eigenvalue GAMMA=   1.6431
  8.2166  5.6767  3.2091  2.5079  1.9514  1.9514  1.2717  1.2717  1.2247  1.0350
  1.0350  0.7652  0.7652  0.8095  0.6704  0.6704  0.4497  0.5842  0.5842  0.4783
  0.5024  0.5177

 Free energy of the ion-electron system (eV)
  ---------------------------------------------------
  alpha Z        PSCENC =        41.16232785
  Ewald energy   TEWEN  =     16790.01347022
  -Hartree energ DENC   =    -33762.32665660
  -exchange      EXHF   =         0.00000000
  -V(xc)+E(xc)   XCENC  =       615.81894199
  PAW double counting   =     17706.72019437   -19106.55290121
  entropy T*S    EENTRO =         0.00812086
  eigenvalues    EBANDS =      -996.07789227
  atomic energy  EATOM  =     18662.21924712
  Solvation  Ediel_sol  =         0.00000000
  ---------------------------------------------------
  free energy    TOTEN  =       -49.01514767 eV

  energy without entropy =      -49.02326853  energy(sigma->0) =      -49.01785462


--------------------------------------------------------------------------------------------------------




--------------------------------------- Iteration      1(  28)  ---------------------------------------


    POTLOK:  cpu time    1.1806: real time    1.1813
    SETDIJ:  cpu time    0.0190: real time    0.0190
    EDDIAG:  cpu time    1.0930: real time    1.0937
  RMM-DIIS:  cpu time    4.5045: real time    4.5076
    ORTHCH:  cpu time    0.0601: real time    0.0601
       DOS:  cpu time    0.0004: real time    0.0004
    CHARGE:  cpu time    0.6590: real time    0.6595
[...]
     66      -4.9448      1.00000
     67      -4.9152      1.00000
     68      -4.8993      1.00000
     69      -4.8980      1.00000
     70      -4.8361      1.00000
     71      -4.8097      1.00000
     72      -4.7986      1.00000
     73      -4.7447      1.00000
     74      -4.5846      1.00000
     75      -4.2198      1.00000
     76      -4.1259      1.00000
     77      -3.4541      1.00012
     78      -3.0744     -0.00012
     79      -2.9486     -0.00000
     80      -2.5220     -0.00000
     81      -2.3184     -0.00000
     82      -1.9292     -0.00000
     83      -1.8781     -0.00000
     84      -1.7688     -0.00000
     85      -1.3531     -0.00000
     86      -0.9897     -0.00000
     87      -0.9392     -0.00000
     88      -0.6893     -0.00000
     89      -0.3649      0.00000
     90      -0.2904      0.00000
     91      -0.1624      0.00000
     92       0.1239      0.00000

 spin component 2

 k-point     1 :       0.0000    0.0000    0.0000
  band No.  band energies     occupation 
      1     -28.2344      1.00000
      2     -13.7666      1.00000
      3     -11.2017      1.00000
      4     -10.9663      1.00000
      5     -10.8707      1.00000
      6     -10.2193      1.00000
      7      -8.6966      1.00000
      8      -8.2660      1.00000
      9      -7.7707      1.00000
     10      -7.6583      1.00000
     11      -7.4929      1.00000
     12      -7.4086      1.00000
     13      -7.3536      1.00000
     14      -7.2150      1.00000
     15      -7.1367      1.00000
     16      -7.0089      1.00000
     17      -6.9013      1.00000
     18      -6.8460      1.00000
     19      -6.8165      1.00000
     20      -6.7614      1.00000
     21      -6.6731      1.00000
     22      -6.6322      1.00000
     23      -6.6079      1.00000
     24      -6.5095      1.00000
     25      -6.4722      1.00000
     26      -6.4059      1.00000
     27      -6.3940      1.00000
     28      -6.3144      1.00000
     29      -6.2936      1.00000
     30      -6.2337      1.00000
     31      -6.2006      1.00000
     32      -6.1278      1.00000
     33      -6.0810      1.00000
     34      -6.0431      1.00000
     35      -5.9125      1.00000
     36      -5.8801      1.00000
     37      -5.7912      1.00000
     38      -5.7196      1.00000
     39      -5.6869      1.00000
     40      -5.6510      1.00000
     41      -5.6099      1.00000
     42      -5.5675      1.00000
     43      -5.5290      1.00000
     44      -5.4924      1.00000
     45      -5.4517      1.00000
     46      -5.4195      1.00000
     47      -5.3896      1.00000
     48      -5.3665      1.00000
     49      -5.3523      1.00000
     50      -5.3321      1.00000
     51      -5.3176      1.00000
     52      -5.2943      1.00000
     53      -5.2620      1.00000
     54      -5.2559      1.00000
     55      -5.2341      1.00000
     56      -5.1909      1.00000
     57      -5.1742      1.00000
     58      -5.1649      1.00000
     59      -5.1188      1.00000
     60      -5.0802      1.00000
     61      -5.0541      1.00000
     62      -5.0134      1.00000
     63      -4.9995      1.00000
     64      -4.9843      1.00000
     65      -4.9360      1.00000
     66      -4.9193      1.00000
     67      -4.8960      1.00000
     68      -4.8708      1.00000
     69      -4.8484      1.00000
     70      -4.8109      1.00000
     71      -4.7767      1.00000
     72      -4.7717      1.00000
     73      -4.7131      1.00000
     74      -4.5429      1.00000
     75      -4.1679      1.01875
     76      -4.0751      0.98125
     77      -3.2512     -0.00000
     78      -3.0207     -0.00000
     79      -2.8959     -0.00000
     80      -2.4519     -0.00000
     81      -2.2263     -0.00000
     82      -1.8978     -0.00000
     83      -1.7990     -0.00000
     84      -1.6955     -0.00000
     85      -1.2355      0.00000
     86      -0.8943      0.00000
     87      -0.8443      0.00000
     88      -0.5982      0.00000
     89      -0.2762      0.00000
     90      -0.2092      0.00000
     91      -0.1007      0.00000
     92       0.1777      0.00000


--------------------------------------------------------------------------------------------------------


 soft charge-density along one line, spin component           1
         0         1         2         3         4         5         6         7         8         9
 total charge-density along one line
 
 soft charge-density along one line, spin component           2
         0         1         2         3         4         5         6         7         8         9
 total charge-density along one line
 
 pseudopotential strength for first ion, spin component:           1
-10.530   0.004  -0.005   0.003  -0.008   1.030  -0.003   0.006
  0.004 -10.514  -0.006  -0.001   0.000  -0.003   1.018   0.004
 -0.005  -0.006 -10.504   0.003  -0.006   0.006   0.004   1.009
  0.003  -0.001   0.003 -10.514  -0.000  -0.002  -0.001  -0.002
 -0.008   0.000  -0.006  -0.000 -10.519   0.006  -0.000   0.005
  1.030  -0.003   0.006  -0.002   0.006   6.284   0.001  -0.006
 -0.003   1.018   0.004  -0.001  -0.000   0.001   6.289  -0.003
  0.006   0.004   1.009  -0.002   0.005  -0.006  -0.003   6.297
 -0.002  -0.001  -0.002   1.015   0.000   0.001   0.003   0.001
  0.006  -0.000   0.005   0.000   1.021  -0.004   0.000  -0.005
 -0.005  -0.000  -0.004  -0.000  -0.003   0.004  -0.000  -0.001
 -0.009  -0.000  -0.007  -0.001  -0.006   0.008  -0.000  -0.002
 -0.013   0.001   0.004  -0.000   0.007   0.010  -0.001  -0.003
 -0.000  -0.006   0.001  -0.012  -0.000   0.000   0.004  -0.001
 -0.005  -0.000   0.008   0.001  -0.013   0.003   0.000  -0.006
 -0.013   0.001   0.004  -0.000   0.008   0.010  -0.001  -0.003
 -0.000  -0.005   0.001  -0.012  -0.000   0.000   0.004  -0.001
 -0.004  -0.000   0.008   0.001  -0.013   0.001   0.000  -0.007
 pseudopotential strength for first ion, spin component:           2
-10.496   0.004   0.002  -0.005   0.006   1.002  -0.003  -0.001
  0.004 -10.503  -0.006  -0.001  -0.001  -0.003   1.008   0.004
  0.002  -0.006 -10.493   0.001  -0.003  -0.001   0.004   0.999
 -0.005  -0.001   0.001 -10.500  -0.003   0.004   0.000  -0.001
  0.006  -0.001  -0.003  -0.003 -10.504  -0.005   0.000   0.002
  1.002  -0.003  -0.001   0.004  -0.005   6.302   0.002   0.000
 -0.003   1.008   0.004   0.000   0.000   0.002   6.295  -0.003
 -0.001   0.004   0.999  -0.001   0.002   0.000  -0.003   6.302
  0.004   0.000  -0.001   1.005   0.002  -0.003   0.000   0.001
 -0.005   0.000   0.002   0.002   1.009   0.003  -0.000  -0.002
 -0.001   0.001  -0.001  -0.001  -0.002   0.001  -0.000  -0.002
 -0.002   0.002  -0.002  -0.001  -0.003   0.002  -0.000  -0.004
 -0.014   0.001   0.004   0.000   0.007   0.013  -0.002  -0.004
  0.000  -0.007   0.002  -0.013   0.000  -0.000   0.006  -0.002
 -0.008   0.000   0.008   0.002  -0.014   0.006  -0.000  -0.008
 -0.015   0.001   0.005   0.000   0.007   0.014  -0.002  -0.005
  0.000  -0.007   0.002  -0.014   0.001  -0.001   0.006  -0.003
 -0.008   0.000   0.010   0.002  -0.015   0.007  -0.001  -0.009
 total augmentation occupancy for first ion, spin component:           1
  1.937   0.003  -0.007   0.000  -0.003  -0.013  -0.004   0.004  -0.001   0.001  -0.004   0.012   0.037  -0.001   0.032  -0.020
  0.003   1.929  -0.005   0.005  -0.001  -0.004  -0.018   0.005  -0.000   0.002  -0.002   0.000  -0.005   0.038  -0.005   0.001
 -0.007  -0.005   1.946   0.001  -0.005   0.004   0.005  -0.027  -0.003   0.004  -0.010   0.010  -0.012   0.000  -0.020   0.006
  0.000   0.005   0.001   1.936  -0.005  -0.001  -0.000  -0.003  -0.018   0.002  -0.002   0.003   0.005   0.070  -0.005  -0.000
 -0.003  -0.001  -0.005  -0.005   1.939   0.001   0.002   0.004   0.002  -0.014  -0.005   0.007  -0.015   0.008   0.038   0.011
 -0.013  -0.004   0.004  -0.001   0.001   0.014  -0.000   0.001  -0.000   0.001  -0.016  -0.001   0.026  -0.000   0.008  -0.001
 -0.004  -0.018   0.005  -0.000   0.002  -0.000   0.008   0.000   0.001  -0.000   0.001  -0.001  -0.002   0.012   0.001   0.000
  0.004   0.005  -0.027  -0.003   0.004   0.001   0.000   0.007  -0.000   0.001  -0.036   0.005  -0.006  -0.001  -0.009   0.001
 -0.001  -0.000  -0.003  -0.018   0.002  -0.000   0.001  -0.000   0.010  -0.001  -0.012   0.001  -0.001   0.022  -0.004  -0.000
  0.001   0.002   0.004   0.002  -0.014   0.001  -0.000   0.001  -0.001   0.013  -0.012  -0.000  -0.019  -0.003   0.023   0.001
 -0.004  -0.002  -0.010  -0.002  -0.005  -0.016   0.001  -0.036  -0.012  -0.012   1.664  -0.120   0.121  -0.021   0.210  -0.016
  0.012   0.000   0.010   0.003   0.007  -0.001  -0.001   0.005   0.001  -0.000  -0.120   0.014  -0.017   0.002  -0.029   0.002
  0.037  -0.005  -0.012   0.005  -0.015   0.026  -0.002  -0.006  -0.001  -0.019   0.121  -0.017   0.188  -0.001  -0.031  -0.012
 -0.001   0.038   0.000   0.070   0.008  -0.000   0.012  -0.001   0.022  -0.003  -0.021   0.002  -0.001   0.089  -0.011  -0.000
  0.032  -0.005  -0.020  -0.005   0.038   0.008   0.001  -0.009  -0.004   0.023   0.210  -0.029  -0.031  -0.011   0.143   0.001
 -0.020   0.001   0.006  -0.000   0.011  -0.001   0.000   0.001  -0.000   0.001  -0.016   0.002  -0.012  -0.000   0.001   0.001
 -0.000  -0.012   0.001  -0.022   0.000  -0.000  -0.001   0.000  -0.001   0.000   0.002  -0.000  -0.000  -0.006   0.001   0.000
 -0.012  -0.000   0.011   0.001  -0.021  -0.000  -0.000   0.001   0.000  -0.001  -0.028   0.003   0.001   0.001  -0.011   0.000
 total augmentation occupancy for first ion, spin component:           2
  0.014  -0.000   0.002  -0.004   0.007  -0.002  -0.000  -0.002   0.001  -0.002   0.027   0.005  -0.009   0.005  -0.017  -0.001
 -0.000   0.000  -0.000   0.001  -0.000  -0.000   0.001  -0.000   0.001   0.000  -0.000  -0.000   0.001  -0.002   0.001   0.000
  0.002  -0.000   0.001  -0.001   0.001  -0.002  -0.000   0.001   0.000  -0.001   0.005   0.001  -0.001   0.003  -0.001   0.000
 -0.004   0.001  -0.001   0.003  -0.002   0.001   0.001   0.000   0.001   0.000  -0.008  -0.002   0.002  -0.005   0.005   0.000
  0.007  -0.000   0.001  -0.002   0.003  -0.002   0.000  -0.001   0.000   0.001   0.014   0.003  -0.003   0.002  -0.011  -0.000
 -0.002  -0.000  -0.002   0.001  -0.002   0.001   0.000   0.000  -0.000   0.000  -0.007  -0.001   0.001  -0.001   0.004   0.000
 -0.000   0.001  -0.000   0.001   0.000   0.000  -0.000   0.000  -0.000  -0.000  -0.000   0.000   0.000   0.000  -0.000  -0.000
 -0.002  -0.000   0.001   0.000  -0.001   0.000   0.000  -0.000  -0.000   0.000  -0.002  -0.000   0.000  -0.000   0.001   0.000
  0.001   0.001   0.000   0.001   0.000  -0.000  -0.000  -0.000  -0.000  -0.000   0.002   0.000  -0.001   0.000  -0.001  -0.000
 -0.002   0.000  -0.001   0.000   0.001   0.000  -0.000   0.000  -0.000   0.000  -0.003  -0.000   0.001  -0.001   0.002   0.000
  0.027  -0.000   0.005  -0.008   0.014  -0.007  -0.000  -0.002   0.002  -0.003   0.061   0.004  -0.014   0.012  -0.035  -0.000
  0.005  -0.000   0.001  -0.002   0.003  -0.001   0.000  -0.000   0.000  -0.000   0.004   0.000  -0.001   0.001  -0.002  -0.000
 -0.009   0.001  -0.001   0.002  -0.003   0.001   0.000   0.000  -0.001   0.001  -0.014  -0.001   0.003  -0.002   0.006   0.000
  0.005  -0.002   0.003  -0.005   0.002  -0.001   0.000  -0.000   0.000  -0.001   0.012   0.001  -0.002   0.002  -0.005  -0.000
 -0.017   0.001  -0.001   0.005  -0.011   0.004  -0.000   0.001  -0.001   0.002  -0.035  -0.002   0.006  -0.005   0.015   0.000
 -0.001   0.000   0.000   0.000  -0.000   0.000  -0.000   0.000  -0.000   0.000  -0.000  -0.000   0.000  -0.000   0.000   0.000
  0.000  -0.000   0.000  -0.001   0.000   0.000  -0.000  -0.000   0.000  -0.000  -0.000   0.000   0.000   0.000  -0.000  -0.000
 -0.001   0.000   0.000   0.000  -0.001   0.000   0.000   0.000  -0.000   0.000  -0.000  -0.000   0.000  -0.000   0.000   0.000


------------------------ aborting loop because EDIFF is reached ----------------------------------------


    CHARGE:  cpu time    0.6542: real time    0.6548
    FORLOC:  cpu time    0.0667: real time    0.0667
    FORNL :  cpu time    1.5363: real time    1.5369
    STRESS:  cpu time    5.9076: real time    5.9106
    FORCOR:  cpu time    1.1850: real time    1.1855
    FORHAR:  cpu time    0.1945: real time    0.1946
    MIXING:  cpu time    0.1174: real time    0.1174
    OFIELD:  cpu time    0.0000: real time    0.0000

  FORCE on cell =-STRESS in cart. coord.  units (eV):
  Direction    XX          YY          ZZ          XY          YZ          ZX
  --------------------------------------------------------------------------------------
  Alpha Z    41.16233    41.16233    41.16233
  Ewald   10294.63396  7716.22861 -1220.86497 -1012.86167   362.15718   488.72888
  Hartree 15411.98890 13170.08118  5180.26526  -918.61932   317.08526   429.90438
  E(xc)    -876.55520  -878.00495  -879.78320    -0.06313     0.05356     0.22257
  Local  -27105.44474-22319.00965 -5400.26807  1933.71308  -678.07604  -915.99503
  n-local  -325.44937  -317.62268  -324.55240    -1.83478     0.02621    -0.03737
  augment  1223.15771  1226.14036  1233.01659     0.53468    -0.46815    -0.45884
  Kinetic  1336.65804  1363.86270  1371.23059    -1.24359    -0.74377    -3.09065
  Fock        0.00000     0.00000     0.00000     0.00000     0.00000     0.00000
  -------------------------------------------------------------------------------------
  Total       0.15161     2.83790     0.20612    -0.37473     0.03424    -0.72606
  in kB       0.07197     1.34720     0.09785    -0.17789     0.01626    -0.34468
  external pressure =        0.51 kB  Pullay stress =        0.00 kB


 VOLUME and BASIS-vectors are now :
 -----------------------------------------------------------------------------
  energy-cutoff  :      600.00
  volume of cell :     3375.00
      direct lattice vectors                 reciprocal lattice vectors
    15.000000000  0.000000000  0.000000000     0.066666667  0.000000000  0.000000000
     0.000000000 15.000000000  0.000000000     0.000000000  0.066666667  0.000000000
     0.000000000  0.000000000 15.000000000     0.000000000  0.000000000  0.066666667

  length of vectors
    15.000000000 15.000000000 15.000000000     0.066666667  0.066666667  0.066666667


 FORCES acting on ions
    electron-ion (+dipol)            ewald-force                    non-local-force                 convergence-correction
 -----------------------------------------------------------------------------------------------
   0.115E+04 0.676E+03 -.157E+02   -.114E+04 -.673E+03 0.155E+02   -.541E+01 -.307E+01 0.455E+00   0.122E-04 0.222E-04 0.182E-06
   0.436E+03 -.322E+03 0.937E+03   -.435E+03 0.319E+03 -.937E+03   -.602E+00 0.262E+01 -.423E-01   0.328E-05 -.116E-04 0.686E-05
   0.303E+03 0.127E+04 -.173E+03   -.301E+03 -.126E+04 0.171E+03   -.129E+01 -.938E+01 0.215E+01   0.592E-05 0.829E-05 -.838E-05
   -.885E+03 -.193E+03 0.903E+03   0.882E+03 0.192E+03 -.899E+03   0.267E+01 0.512E+00 -.405E+01   -.250E-04 0.112E-05 0.146E-05
   -.848E+03 0.103E+04 0.260E+03   0.844E+03 -.102E+04 -.258E+03   0.437E+01 -.713E+01 -.226E+01   -.108E-04 -.661E-07 -.475E-05
   -.697E+02 0.575E+03 -.949E+03   0.695E+02 -.572E+03 0.948E+03   0.310E+00 -.294E+01 0.309E+00   -.210E-04 0.208E-04 -.263E-05
   0.161E+03 0.650E+03 0.122E+04   -.161E+03 -.646E+03 -.122E+04   -.614E+00 -.388E+01 -.594E+01   -.133E-05 0.171E-04 0.116E-04
   0.128E+04 -.372E+03 0.175E+03   -.127E+04 0.369E+03 -.172E+03   -.918E+01 0.262E+01 -.255E+01   0.490E-05 -.718E-05 -.313E-06
   0.612E+03 -.186E+03 -.125E+04   -.607E+03 0.186E+03 0.124E+04   -.460E+01 -.193E+00 0.635E+01   0.494E-05 -.101E-04 -.128E-04
   0.424E+03 -.130E+04 -.183E+03   -.422E+03 0.129E+04 0.181E+03   -.174E+01 0.729E+01 0.168E+01   0.626E-06 -.892E-05 -.213E-05
   -.470E+03 -.108E+04 0.722E+03   0.467E+03 0.107E+04 -.715E+03   0.333E+01 0.677E+01 -.652E+01   -.151E-04 -.792E-05 0.721E-05
   -.880E+03 0.685E+02 -.550E+03   0.879E+03 -.682E+02 0.546E+03   0.137E+01 -.225E+00 0.430E+01   0.387E-04 0.674E-05 0.142E-04
   -.575E+03 -.799E+03 -.847E+03   0.573E+03 0.795E+03 0.844E+03   0.230E+01 0.458E+01 0.266E+01   -.168E-04 -.117E-04 -.525E-05
   -.140E+03 0.137E+02 -.129E+03   0.121E+03 -.156E+02 0.129E+03   0.199E+02 0.199E+01 0.543E+00   0.936E-05 0.283E-06 0.219E-05
   -.442E+03 -.241E+02 -.119E+03   0.499E+03 0.296E+02 0.123E+03   -.587E+02 -.553E+01 -.417E+01   -.628E-05 -.112E-05 -.194E-05
 -----------------------------------------------------------------------------------------------
   0.478E+02 0.595E+01 0.707E+01   -.455E-12 -.288E-12 -.114E-12   -.478E+02 -.596E+01 -.707E+01   -.165E-04 0.179E-04 0.552E-05
 
 
 POSITION                                       TOTAL-FORCE (eV/Angst)
 -----------------------------------------------------------------------------------
      4.39918      6.34276      8.24583        -0.240560     -0.223183      0.241789
      5.59280      8.19463      7.36757         0.548497      0.196686     -0.319417
      5.87208      4.32456      8.38102         0.157607      0.177491      0.105300
      8.02415      7.66088      7.26966        -0.056278     -0.064561     -0.221929
      8.30398      5.33340      7.87896        -0.008270     -0.465672      0.016324
      6.70258      6.50569      9.19315         0.151168     -0.238713     -0.154768
      6.29590      5.99505      6.75095         0.004489     -0.066257     -0.121558
      3.43732      8.65819      8.11725        -0.371038     -0.123006      0.251124
      5.11029      8.20249      9.83844        -0.343661     -0.187260     -0.061294
      5.27313     10.20100      8.55247         0.171960      0.509045      0.047290
      7.27338      9.95411      7.12345        -0.026634      0.137097      0.187875
      9.19782      7.13446      9.28285        -0.001132      0.042418     -0.001913
      7.33978      8.83444      9.27232        -0.009940      0.300369     -0.130281
     10.94190      7.24789      9.79156         0.939166      0.082896      0.276617
     12.09970      7.35735      9.87151        -0.915374     -0.077349     -0.115159
 -----------------------------------------------------------------------------------
    total drift:                               -0.001658     -0.003791      0.001198


--------------------------------------------------------------------------------------------------------



  FREE ENERGIE OF THE ION-ELECTRON SYSTEM (eV)
  ---------------------------------------------------
  free  energy   TOTEN  =       -49.01516056 eV

  energy  without entropy=      -49.02328170  energy(sigma->0) =      -49.01786760
 


--------------------------------------------------------------------------------------------------------


    POTLOK:  cpu time    1.2035: real time    1.2044


--------------------------------------------------------------------------------------------------------


     LOOP+:  cpu time  352.4577: real time  352.7718
    4ORBIT:  cpu time    0.0000: real time    0.0000

 total amount of memory used by VASP MPI-rank0   158680. kBytes
=======================================================================

   base      :      30000. kBytes
   nonl-proj :      12601. kBytes
   fftplans  :      27994. kBytes
   grid      :      74150. kBytes
   one-center:         93. kBytes
   wavefun   :      13842. kBytes
 
  
  
 General timing and accounting informations for this job:
 ========================================================
  
                  Total CPU time used (sec):      356.521
                            User time (sec):      343.534
                          System time (sec):       12.987
                         Elapsed time (sec):      356.869
  
                   Maximum memory used (kb):      280624.
                   Average memory used (kb):           0.
  
                          Minor page faults:       293018
                          Major page faults:            0
                 Voluntary context switches:          792
