<?xml version="1.0" encoding="ISO-8859-1"?>
<modeling>
 <generator>
  <i name="program" type="string">vasp </i>
  <i name="version" type="string">5.4.4.18Apr17-6-g9f103f2a35  </i>
  <i name="subversion" type="string">(build May 08 2019 13:49:07) complex            parallel </i>
  <i name="platform" type="string">LinuxIFC </i>
  <i name="date" type="string">2019 11 13 </i>
  <i name="time" type="string">15:43:18 </i>
 </generator>
 <incar>
  <i type="string" name="SYSTEM"> CuCO</i>
  <i type="int" name="ISTART">     0</i>
  <i type="string" name="PREC">accurate</i>
  <i type="string" name="ALGO"> Fast</i>
  <i type="int" name="ISPIN">     2</i>
  <i type="int" name="INIWAV">     1</i>
  <i type="int" name="NELM">   300</i>
  <i type="int" name="NELMIN">     3</i>
  <i type="int" name="IBRION">    -1</i>
  <i name="EDIFF">      0.00000010</i>
  <i name="EDIFFG">     -0.00100000</i>
  <i type="int" name="NSW">     0</i>
  <i type="int" name="ISYM">     0</i>
  <i name="ENCUT">    600.00000000</i>
  <i name="NUPDOWN">      1.00000000</i>
  <i type="logical" name="LREAL"> F  </i>
  <i type="int" name="ISMEAR">     1</i>
  <i name="SIGMA">      0.10000000</i>
  <i name="KSPACING">      0.50000000</i>
  <i type="logical" name="KGAMMA"> F  </i>
  <i type="logical" name="LWAVE"> F  </i>
  <i type="logical" name="LCHARG"> F  </i>
  <v type="int" name="KPOINT_BSE">    -1     0     0     0</v>
  <i type="int" name="NELM">   300</i>
  <i type="string" name="GGA"> PE</i>
 </incar>
 <structure name="primitive_cell" >
  <crystal>
   <varray name="basis" >
    <v>      15.00000000       0.00000000       0.00000000 </v>
    <v>       0.00000000      15.00000000       0.00000000 </v>
    <v>       0.00000000       0.00000000      15.00000000 </v>
   </varray>
   <i name="volume">   3375.00000000 </i>
   <varray name="rec_basis" >
    <v>       0.06666667       0.00000000       0.00000000 </v>
    <v>       0.00000000       0.06666667       0.00000000 </v>
    <v>       0.00000000       0.00000000       0.06666667 </v>
   </varray>
  </crystal>
  <varray name="positions" >
   <v>       0.29028400       0.42075000      -0.44475533 </v>
   <v>       0.22771600      -0.43539800      -0.45257867 </v>
   <v>       0.37670867      -0.45400200       0.49383133 </v>
   <v>       0.39413000       0.29217800      -0.43590267 </v>
   <v>       0.44502467       0.43520867      -0.38636067 </v>
   <v>       0.41523133       0.40116733       0.44612800 </v>
   <v>       0.33402867      -0.45315933      -0.34228867 </v>
   <v>       0.48460267      -0.40712200      -0.38456000 </v>
   <v>      -0.46628200      -0.49357467       0.47996400 </v>
   <v>      -0.45178800       0.34583800      -0.46794667 </v>
   <v>       0.35422733      -0.31508000      -0.43198867 </v>
   <v>       0.48423333      -0.33433533       0.47266933 </v>
   <v>      -0.37161800       0.48382667      -0.39277267 </v>
   <v>      -0.25907333       0.49122600      -0.35519000 </v>
   <v>      -0.18213333       0.49697467      -0.34324467 </v>
  </varray>
 </structure>
 <varray name="primitive_index" >
  <v type="int" >        1 </v>
  <v type="int" >        8 </v>
  <v type="int" >        2 </v>
  <v type="int" >        3 </v>
  <v type="int" >        6 </v>
  <v type="int" >        7 </v>
  <v type="int" >        9 </v>
  <v type="int" >       13 </v>
  <v type="int" >        4 </v>
  <v type="int" >        5 </v>
  <v type="int" >       10 </v>
  <v type="int" >       11 </v>
  <v type="int" >       12 </v>
  <v type="int" >       14 </v>
  <v type="int" >       15 </v>
 </varray>
 <kpoints>
  <generation param="Monkhorst-Pack">
   <v type="int" name="divisions">       1        1        1 </v>
   <v name="usershift">      0.00000000       0.00000000       0.00000000 </v>
   <v name="genvec1">      1.00000000       0.00000000       0.00000000 </v>
   <v name="genvec2">      0.00000000       1.00000000       0.00000000 </v>
   <v name="genvec3">      0.00000000       0.00000000       1.00000000 </v>
   <v name="shift">      0.00000000       0.00000000       0.00000000 </v>
  </generation>
  <varray name="kpointlist" >
   <v>       0.00000000       0.00000000       0.00000000 </v>
  </varray>
  <varray name="weights" >
   <v>       1.00000000 </v>
  </varray>
 </kpoints>
 <parameters>
  <separator name="general" >
   <i type="string" name="SYSTEM">CuCO</i>
   <i type="logical" name="LCOMPAT"> F  </i>
  </separator>
  <separator name="electronic" >
   <i type="string" name="PREC">accura</i>
   <i name="ENMAX">    600.00000000</i>
   <i name="ENAUG">    644.87300000</i>
   <i name="EDIFF">      0.00000010</i>
   <i type="int" name="IALGO">    68</i>
   <i type="int" name="IWAVPR">    10</i>
   <i type="int" name="NBANDS">    92</i>
   <i name="NELECT">    153.00000000</i>
   <i type="int" name="TURBO">     0</i>
   <i type="int" name="IRESTART">     0</i>
   <i type="int" name="NREBOOT">     0</i>
   <i type="int" name="NMIN">     0</i>
   <i name="EREF">      0.00000000</i>
   <separator name="electronic smearing" >
    <i type="int" name="ISMEAR">     1</i>
    <i name="SIGMA">      0.10000000</i>
    <i name="KSPACING">      0.50000000</i>
    <i type="logical" name="KGAMMA"> F  </i>
   </separator>
   <separator name="electronic projectors" >
    <i type="logical" name="LREAL"> F  </i>
    <v name="ROPT">      0.00000000      0.00000000      0.00000000</v>
    <i type="int" name="LMAXPAW">  -100</i>
    <i type="int" name="LMAXMIX">     2</i>
    <i type="logical" name="NLSPLINE"> F  </i>
   </separator>
   <separator name="electronic startup" >
    <i type="int" name="ISTART">     0</i>
    <i type="int" name="ICHARG">     2</i>
    <i type="int" name="INIWAV">     1</i>
   </separator>
   <separator name="electronic spin" >
    <i type="int" name="ISPIN">     2</i>
    <i type="logical" name="LNONCOLLINEAR"> F  </i>
    <v name="MAGMOM">      0.06666667      0.06666667      0.06666667      0.06666667      0.06666667      0.06666667      0.06666667      0.06666667      0.06666667      0.06666667      0.06666667      0.06666667      0.06666667      0.06666667      0.06666667</v>
    <i name="NUPDOWN">      1.00000000</i>
    <i type="logical" name="LSORBIT"> F  </i>
    <v name="SAXIS">      0.00000000      0.00000000      1.00000000</v>
    <i type="logical" name="LSPIRAL"> F  </i>
    <v name="QSPIRAL">      0.00000000      0.00000000      0.00000000</v>
    <i type="logical" name="LZEROZ"> F  </i>
   </separator>
   <separator name="electronic exchange-correlation" >
    <i type="logical" name="LASPH"> F  </i>
    <i type="logical" name="LMETAGGA"> F  </i>
   </separator>
   <separator name="electronic convergence" >
    <i type="int" name="NELM">   300</i>
    <i type="int" name="NELMDL">    -5</i>
    <i type="int" name="NELMIN">     3</i>
    <i name="ENINI">    600.00000000</i>
    <separator name="electronic convergence detail" >
     <i type="logical" name="LDIAG"> T  </i>
     <i type="logical" name="LSUBROT"> F  </i>
     <i name="WEIMIN">      0.00000000</i>
     <i name="EBREAK">      0.00000000</i>
     <i name="DEPER">      0.30000000</i>
     <i type="int" name="NRMM">     4</i>
     <i name="TIME">      0.40000000</i>
    </separator>
   </separator>
   <separator name="electronic mixer" >
    <i name="AMIX">      0.40000000</i>
    <i name="BMIX">      1.00000000</i>
    <i name="AMIN">      0.10000000</i>
    <i name="AMIX_MAG">      1.60000000</i>
    <i name="BMIX_MAG">      1.00000000</i>
    <separator name="electronic mixer details" >
     <i type="int" name="IMIX">     4</i>
     <i type="logical" name="MIXFIRST"> F  </i>
     <i type="int" name="MAXMIX">   -45</i>
     <i name="WC">    100.00000000</i>
     <i type="int" name="INIMIX">     1</i>
     <i type="int" name="MIXPRE">     1</i>
     <i type="int" name="MREMOVE">     5</i>
    </separator>
   </separator>
   <separator name="electronic dipolcorrection" >
    <i type="logical" name="LDIPOL"> F  </i>
    <i type="logical" name="LMONO"> F  </i>
    <i type="int" name="IDIPOL">     0</i>
    <i name="EPSILON">      1.00000000</i>
    <v name="DIPOL">   -100.00000000   -100.00000000   -100.00000000</v>
    <i name="EFIELD">      0.00000000</i>
   </separator>
  </separator>
  <separator name="grids" >
   <i type="int" name="NGX">   120</i>
   <i type="int" name="NGY">   120</i>
   <i type="int" name="NGZ">   120</i>
   <i type="int" name="NGXF">   240</i>
   <i type="int" name="NGYF">   240</i>
   <i type="int" name="NGZF">   240</i>
   <i type="logical" name="ADDGRID"> F  </i>
  </separator>
  <separator name="ionic" >
   <i type="int" name="NSW">     0</i>
   <i type="int" name="IBRION">    -1</i>
   <i type="int" name="MDALGO">     0</i>
   <i type="int" name="ISIF">     2</i>
   <i name="PSTRESS">      0.00000000</i>
   <i name="EDIFFG">     -0.00100000</i>
   <i type="int" name="NFREE">     0</i>
   <i name="POTIM">      0.50000000</i>
   <i name="SMASS">     -3.00000000</i>
   <i name="SCALEE">      1.00000000</i>
  </separator>
  <separator name="ionic md" >
   <i name="TEBEG">      0.00010000</i>
   <i name="TEEND">      0.00010000</i>
   <i type="int" name="NBLOCK">     1</i>
   <i type="int" name="KBLOCK">     1</i>
   <i type="int" name="NPACO">   256</i>
   <i name="APACO">     16.00000000</i>
  </separator>
  <separator name="symmetry" >
   <i type="int" name="ISYM">     0</i>
   <i name="SYMPREC">      0.00001000</i>
  </separator>
  <separator name="dos" >
   <i type="int" name="LORBIT">     0</i>
   <v name="RWIGS">     -1.00000000     -1.00000000     -1.00000000</v>
   <i type="int" name="NEDOS">   301</i>
   <i name="EMIN">     10.00000000</i>
   <i name="EMAX">    -10.00000000</i>
   <i name="EFERMI">      0.00000000</i>
  </separator>
  <separator name="writing" >
   <i type="int" name="NWRITE">     2</i>
   <i type="logical" name="LWAVE"> F  </i>
   <i type="logical" name="LDOWNSAMPLE"> F  </i>
   <i type="logical" name="LCHARG"> F  </i>
   <i type="logical" name="LPARD"> F  </i>
   <i type="logical" name="LVTOT"> F  </i>
   <i type="logical" name="LVHAR"> F  </i>
   <i type="logical" name="LELF"> F  </i>
   <i type="logical" name="LOPTICS"> F  </i>
   <v name="STM">      0.00000000      0.00000000      0.00000000      0.00000000      0.00000000      0.00000000      0.00000000</v>
  </separator>
  <separator name="performance" >
   <i type="int" name="NPAR">     4</i>
   <i type="int" name="NSIM">     4</i>
   <i type="int" name="NBLK">    -1</i>
   <i type="logical" name="LPLANE"> T  </i>
   <i type="logical" name="LSCALAPACK"> T  </i>
   <i type="logical" name="LSCAAWARE"> F  </i>
   <i type="logical" name="LSCALU"> F  </i>
   <i type="logical" name="LASYNC"> F  </i>
   <i type="logical" name="LORBITALREAL"> F  </i>
  </separator>
  <separator name="miscellaneous" >
   <i type="int" name="IDIOT">     3</i>
   <i type="int" name="ISPECIAL">     0</i>
   <i type="logical" name="LMUSIC"> F  </i>
   <v name="POMASS">     63.54600000     12.01100000     16.00000000</v>
   <v name="DARWINR">      0.00000000      0.00000000      0.00000000</v>
   <v name="DARWINV">      1.00000000      1.00000000      1.00000000</v>
   <i type="logical" name="LCORR"> T  </i>
  </separator>
  <i type="logical" name="GGA_COMPAT"> T  </i>
  <i type="logical" name="LBERRY"> F  </i>
  <i type="int" name="ICORELEVEL">     0</i>
  <i type="logical" name="LDAU"> F  </i>
  <i type="int" name="I_CONSTRAINED_M">     0</i>
  <separator name="electronic exchange-correlation" >
   <i type="string" name="GGA">PE</i>
   <i type="int" name="VOSKOWN">     0</i>
   <i type="logical" name="LHFCALC"> F  </i>
   <i type="string" name="PRECFOCK"></i>
   <i type="logical" name="LSYMGRAD"> F  </i>
   <i type="logical" name="LHFONE"> F  </i>
   <i type="logical" name="LRHFCALC"> F  </i>
   <i type="logical" name="LTHOMAS"> F  </i>
   <i type="logical" name="LMODELHF"> F  </i>
   <i name="ENCUT4O">     -1.00000000</i>
   <i type="int" name="EXXOEP">     0</i>
   <i type="int" name="FOURORBIT">     0</i>
   <i name="AEXX">      0.00000000</i>
   <i name="HFALPHA">      0.00000000</i>
   <i name="MCALPHA">      0.00000000</i>
   <i name="ALDAX">      1.00000000</i>
   <i name="AGGAX">      1.00000000</i>
   <i name="ALDAC">      1.00000000</i>
   <i name="AGGAC">      1.00000000</i>
   <i type="int" name="NKREDX">     1</i>
   <i type="int" name="NKREDY">     1</i>
   <i type="int" name="NKREDZ">     1</i>
   <i type="logical" name="SHIFTRED"> F  </i>
   <i type="logical" name="ODDONLY"> F  </i>
   <i type="logical" name="EVENONLY"> F  </i>
   <i type="int" name="LMAXFOCK">     0</i>
   <i type="int" name="NMAXFOCKAE">     0</i>
   <i type="logical" name="LFOCKAEDFT"> F  </i>
   <i name="HFSCREEN">      0.00000000</i>
   <i name="HFSCREENC">      0.00000000</i>
   <i type="int" name="NBANDSGWLOW">     0</i>
  </separator>
  <separator name="vdW DFT" >
   <i type="logical" name="LUSE_VDW"> F  </i>
   <i name="Zab_VDW">     -0.84910000</i>
   <i name="PARAM1">      0.12340000</i>
   <i name="PARAM2">      1.00000000</i>
   <i name="PARAM3">      0.00000000</i>
  </separator>
  <separator name="model GW" >
   <i type="int" name="MODEL_GW">     0</i>
   <i name="MODEL_EPS0">    135.00000000</i>
   <i name="MODEL_ALPHA">      1.00000000</i>
  </separator>
  <separator name="linear response parameters" >
   <i type="logical" name="LEPSILON"> F  </i>
   <i type="logical" name="LRPA"> F  </i>
   <i type="logical" name="LNABLA"> F  </i>
   <i type="logical" name="LVEL"> F  </i>
   <i type="int" name="KINTER">     0</i>
   <i name="CSHIFT">      0.10000000</i>
   <i name="OMEGAMAX">     -1.00000000</i>
   <i name="DEG_THRESHOLD">      0.00200000</i>
   <i name="RTIME">     -0.10000000</i>
   <i name="WPLASMAI">      0.00000000</i>
   <v name="DFIELD">      0.00000000      0.00000000      0.00000000</v>
   <v name="WPLASMA">      0.00000000      0.00000000      0.00000000      0.00000000      0.00000000      0.00000000      0.00000000      0.00000000      0.00000000</v>
  </separator>
  <separator name="orbital magnetization" >
   <i type="logical" name="NUCIND"> F  </i>
   <v name="MAGPOS">      0.00000000      0.00000000      0.00000000</v>
   <i type="logical" name="LNICSALL"> T  </i>
   <i type="logical" name="ORBITALMAG"> F  </i>
   <i type="logical" name="LMAGBLOCH"> F  </i>
   <i type="logical" name="LCHIMAG"> F  </i>
   <i type="logical" name="LGAUGE"> T  </i>
   <i type="int" name="MAGATOM">     0</i>
   <v name="MAGDIPOL">      0.00000000      0.00000000      0.00000000</v>
   <v name="AVECCONST">      0.00000000      0.00000000      0.00000000</v>
  </separator>
  <separator name="response functions" >
   <i type="logical" name="LADDER"> F  </i>
   <i type="logical" name="LRPAFORCE"> F  </i>
   <i type="logical" name="LFXC"> F  </i>
   <i type="logical" name="LHARTREE"> T  </i>
   <i type="int" name="IBSE">     0</i>
   <v type="int" name="KPOINT">    -1     0     0     0</v>
   <i type="logical" name="LTCTE"> F  </i>
   <i type="logical" name="LTETE"> F  </i>
   <i type="logical" name="LTRIPLET"> F  </i>
   <i type="logical" name="LFXCEPS"> F  </i>
   <i type="logical" name="LFXHEG"> F  </i>
   <i type="int" name="NATURALO">     2</i>
   <i type="logical" name="L2ORDER"> F  </i>
   <i type="logical" name="LMP2LT"> F  </i>
   <i type="logical" name="LUSEW"> F  </i>
   <i name="ENCUTGW">     -2.00000000</i>
   <i name="ENCUTGWSOFT">     -2.00000000</i>
   <i name="ENCUTLF">     -1.00000000</i>
   <i type="int" name="LMAXMP2">    -1</i>
   <i name="SCISSOR">      0.00000000</i>
   <i type="int" name="NOMEGA">     0</i>
   <i type="int" name="NOMEGAR">     0</i>
   <i type="int" name="NBANDSGW">    -1</i>
   <i type="int" name="NBANDSO">    -1</i>
   <i type="int" name="NBANDSV">    -1</i>
   <i type="int" name="NELM">   300</i>
   <i type="int" name="NELMHF">     1</i>
   <i type="int" name="DIM">     3</i>
   <i type="int" name="ANTIRES">     0</i>
   <i name="OMEGAMAX">    -30.00000000</i>
   <i name="OMEGAMIN">    -30.00000000</i>
   <i name="OMEGATL">   -200.00000000</i>
   <i type="int" name="OMEGAGRID">   140</i>
   <i name="CSHIFT">     -0.10000000</i>
   <i type="logical" name="SELFENERGY"> F  </i>
   <i type="logical" name="LSPECTRAL"> F  </i>
   <i type="logical" name="LSPECTRALGW"> F  </i>
   <i type="logical" name="LSINGLES"> F  </i>
   <i type="logical" name="LFERMIGW"> F  </i>
   <i type="logical" name="ODDONLYGW"> F  </i>
   <i type="logical" name="EVENONLYGW"> F  </i>
   <i type="int" name="NKREDLFX">     1</i>
   <i type="int" name="NKREDLFY">     1</i>
   <i type="int" name="NKREDLFZ">     1</i>
   <i type="int" name="MAXMEM">  2800</i>
   <i type="int" name="TELESCOPE">     0</i>
   <i type="int" name="TAUPAR">     1</i>
   <i type="int" name="OMEGAPAR">    -1</i>
   <i name="LAMBDA">      1.00000000</i>
  </separator>
  <separator name="External order field" >
   <i name="OFIELD_KAPPA">      0.00000000</i>
   <v name="OFIELD_K">      0.00000000      0.00000000      0.00000000</v>
   <i name="OFIELD_Q6_NEAR">      0.00000000</i>
   <i name="OFIELD_Q6_FAR">      0.00000000</i>
   <i name="OFIELD_A">      0.00000000</i>
  </separator>
 </parameters>
 <atominfo>
  <atoms>      15 </atoms>
  <types>       3 </types>
  <array name="atoms" >
   <dimension dim="1">ion</dimension>
   <field type="string">element</field>
   <field type="int">atomtype</field>
   <set>
    <rc><c>Cu</c><c>   1</c></rc>
    <rc><c>Cu</c><c>   1</c></rc>
    <rc><c>Cu</c><c>   1</c></rc>
    <rc><c>Cu</c><c>   1</c></rc>
    <rc><c>Cu</c><c>   1</c></rc>
    <rc><c>Cu</c><c>   1</c></rc>
    <rc><c>Cu</c><c>   1</c></rc>
    <rc><c>Cu</c><c>   1</c></rc>
    <rc><c>Cu</c><c>   1</c></rc>
    <rc><c>Cu</c><c>   1</c></rc>
    <rc><c>Cu</c><c>   1</c></rc>
    <rc><c>Cu</c><c>   1</c></rc>
    <rc><c>Cu</c><c>   1</c></rc>
    <rc><c>C </c><c>   2</c></rc>
    <rc><c>O </c><c>   3</c></rc>
   </set>
  </array>
  <array name="atomtypes" >
   <dimension dim="1">type</dimension>
   <field type="int">atomspertype</field>
   <field type="string">element</field>
   <field>mass</field>
   <field>valence</field>
   <field type="string">pseudopotential</field>
   <set>
    <rc><c>  13</c><c>Cu</c><c>     63.54600000</c><c>     11.00000000</c><c>  PAW_PBE Cu 22Jun2005                  </c></rc>
    <rc><c>   1</c><c>C </c><c>     12.01100000</c><c>      4.00000000</c><c>  PAW_PBE C 08Apr2002                   </c></rc>
    <rc><c>   1</c><c>O </c><c>     16.00000000</c><c>      6.00000000</c><c>  PAW_PBE O 08Apr2002                   </c></rc>
   </set>
  </array>
 </atominfo>
 <structure name="initialpos" >
  <crystal>
   <varray name="basis" >
    <v>      15.00000000       0.00000000       0.00000000 </v>
    <v>       0.00000000      15.00000000       0.00000000 </v>
    <v>       0.00000000       0.00000000      15.00000000 </v>
   </varray>
   <i name="volume">   3375.00000000 </i>
   <varray name="rec_basis" >
    <v>       0.06666667       0.00000000       0.00000000 </v>
    <v>       0.00000000       0.06666667       0.00000000 </v>
    <v>       0.00000000       0.00000000       0.06666667 </v>
   </varray>
  </crystal>
  <varray name="positions" >
   <v>       0.29028400       0.42075000       0.55524467 </v>
   <v>       0.37670867       0.54599800       0.49383133 </v>
   <v>       0.39413000       0.29217800       0.56409733 </v>
   <v>       0.53371800       0.50642533       0.47996400 </v>
   <v>       0.54821200       0.34583800       0.53205333 </v>
   <v>       0.44502467       0.43520867       0.61363933 </v>
   <v>       0.41523133       0.40116733       0.44612800 </v>
   <v>       0.22771600       0.56460200       0.54742133 </v>
   <v>       0.33402867       0.54684067       0.65771133 </v>
   <v>       0.35422733       0.68492000       0.56801133 </v>
   <v>       0.48423333       0.66566467       0.47266933 </v>
   <v>       0.62838200       0.48382667       0.60722733 </v>
   <v>       0.48460267       0.59287800       0.61544000 </v>
   <v>       0.74092667       0.49122600       0.64481000 </v>
   <v>       0.81786667       0.49697467       0.65675533 </v>
  </varray>
 </structure>
 <calculation>
  <scstep>
   <time name="dav">    7.51    7.51</time>
   <time name="total">    8.71    8.71</time>
   <energy>
    <i name="alphaZ">     41.16232785 </i>
    <i name="ewald">  16368.48692953 </i>
    <i name="hartreedc"> -33390.85333289 </i>
    <i name="XCdc">    623.48610782 </i>
    <i name="pawpsdc">  16421.75059358 </i>
    <i name="pawaedc"> -17800.06104309 </i>
    <i name="eentropy">      0.00017152 </i>
    <i name="bandstr">    192.53810155 </i>
    <i name="atom">  18662.21924712 </i>
    <i name="e_fr_energy">   1118.72910298 </i>
    <i name="e_wo_entrp">   1118.72893146 </i>
    <i name="e_0_energy">   1118.72904581 </i>
   </energy>
  </scstep>
  <scstep>
   <time name="dav">    7.39    7.39</time>
   <time name="total">    7.39    7.39</time>
   <energy>
    <i name="e_fr_energy">     89.08999484 </i>
    <i name="e_wo_entrp">     89.07578985 </i>
    <i name="e_0_energy">     89.08525984 </i>
   </energy>
  </scstep>
  <scstep>
   <time name="dav">   11.82   11.84</time>
   <time name="total">   11.82   11.84</time>
   <energy>
    <i name="e_fr_energy">    -32.99802479 </i>
    <i name="e_wo_entrp">    -33.00916949 </i>
    <i name="e_0_energy">    -33.00173969 </i>
   </energy>
  </scstep>
  <scstep>
   <time name="dav">   10.18   10.19</time>
   <time name="total">   10.19   10.19</time>
   <energy>
    <i name="e_fr_energy">    -55.94099015 </i>
    <i name="e_wo_entrp">    -55.95019733 </i>
    <i name="e_0_energy">    -55.94405921 </i>
   </energy>
  </scstep>
  <scstep>
   <time name="dav">   11.85   11.85</time>
   <time name="total">   12.55   12.55</time>
   <energy>
    <i name="e_fr_energy">    -57.61455235 </i>
    <i name="e_wo_entrp">    -57.62340846 </i>
    <i name="e_0_energy">    -57.61750439 </i>
   </energy>
  </scstep>
  <scstep>
   <time name="diag">    1.10    1.10</time>
   <time name="diis">    6.95    6.95</time>
   <time name="orth">    0.06    0.06</time>
   <time name="total">    9.96    9.96</time>
   <energy>
    <i name="e_fr_energy">    -57.36118708 </i>
    <i name="e_wo_entrp">    -57.36955621 </i>
    <i name="e_0_energy">    -57.36397679 </i>
   </energy>
  </scstep>
  <scstep>
   <time name="diag">    1.09    1.09</time>
   <time name="diis">    7.33    7.33</time>
   <time name="orth">    0.06    0.06</time>
   <time name="total">   10.35   10.35</time>
   <energy>
    <i name="e_fr_energy">    -49.32139541 </i>
    <i name="e_wo_entrp">    -49.33022142 </i>
    <i name="e_0_energy">    -49.32433741 </i>
   </energy>
  </scstep>
  <scstep>
   <time name="diag">    1.10    1.10</time>
   <time name="diis">    7.48    7.48</time>
   <time name="orth">    0.06    0.06</time>
   <time name="total">   10.49   10.50</time>
   <energy>
    <i name="e_fr_energy">    -49.05308492 </i>
    <i name="e_wo_entrp">    -49.06243499 </i>
    <i name="e_0_energy">    -49.05620161 </i>
   </energy>
  </scstep>
  <scstep>
   <time name="diag">    1.10    1.10</time>
   <time name="diis">    7.56    7.57</time>
   <time name="orth">    0.06    0.06</time>
   <time name="total">   10.58   10.59</time>
   <energy>
    <i name="e_fr_energy">    -48.99589610 </i>
    <i name="e_wo_entrp">    -49.00524190 </i>
    <i name="e_0_energy">    -48.99901137 </i>
   </energy>
  </scstep>
  <scstep>
   <time name="diag">    1.10    1.10</time>
   <time name="diis">    7.14    7.15</time>
   <time name="orth">    0.06    0.06</time>
   <time name="total">   10.16   10.16</time>
   <energy>
    <i name="e_fr_energy">    -48.92652563 </i>
    <i name="e_wo_entrp">    -48.93586867 </i>
    <i name="e_0_energy">    -48.92963998 </i>
   </energy>
  </scstep>
  <scstep>
   <time name="diag">    1.09    1.09</time>
   <time name="diis">    7.36    7.36</time>
   <time name="orth">    0.05    0.05</time>
   <time name="total">   10.36   10.37</time>
   <energy>
    <i name="e_fr_energy">    -48.91514968 </i>
    <i name="e_wo_entrp">    -48.92446585 </i>
    <i name="e_0_energy">    -48.91825507 </i>
   </energy>
  </scstep>
  <scstep>
   <time name="diag">    1.09    1.09</time>
   <time name="diis">    6.92    6.92</time>
   <time name="orth">    0.05    0.05</time>
   <time name="total">    9.93    9.93</time>
   <energy>
    <i name="e_fr_energy">    -48.91281666 </i>
    <i name="e_wo_entrp">    -48.92213600 </i>
    <i name="e_0_energy">    -48.91592311 </i>
   </energy>
  </scstep>
  <scstep>
   <time name="diag">    1.09    1.09</time>
   <time name="diis">    7.19    7.19</time>
   <time name="orth">    0.05    0.05</time>
   <time name="total">   10.20   10.20</time>
   <energy>
    <i name="e_fr_energy">    -48.91145410 </i>
    <i name="e_wo_entrp">    -48.92076631 </i>
    <i name="e_0_energy">    -48.91455817 </i>
   </energy>
  </scstep>
  <scstep>
   <time name="diag">    1.09    1.09</time>
   <time name="diis">    6.99    7.00</time>
   <time name="orth">    0.05    0.05</time>
   <time name="total">   10.00   10.01</time>
   <energy>
    <i name="e_fr_energy">    -48.91246789 </i>
    <i name="e_wo_entrp">    -48.92177561 </i>
    <i name="e_0_energy">    -48.91557046 </i>
   </energy>
  </scstep>
  <scstep>
   <time name="diag">    1.09    1.09</time>
   <time name="diis">    6.73    6.73</time>
   <time name="orth">    0.05    0.05</time>
   <time name="total">    9.74    9.74</time>
   <energy>
    <i name="e_fr_energy">    -48.91360680 </i>
    <i name="e_wo_entrp">    -48.92291104 </i>
    <i name="e_0_energy">    -48.91670821 </i>
   </energy>
  </scstep>
  <scstep>
   <time name="diag">    1.09    1.09</time>
   <time name="diis">    6.77    6.77</time>
   <time name="orth">    0.05    0.05</time>
   <time name="total">    9.78    9.79</time>
   <energy>
    <i name="e_fr_energy">    -48.91497553 </i>
    <i name="e_wo_entrp">    -48.92427750 </i>
    <i name="e_0_energy">    -48.91807618 </i>
   </energy>
  </scstep>
  <scstep>
   <time name="diag">    1.09    1.09</time>
   <time name="diis">    6.66    6.66</time>
   <time name="orth">    0.05    0.05</time>
   <time name="total">    9.67    9.68</time>
   <energy>
    <i name="e_fr_energy">    -48.91670880 </i>
    <i name="e_wo_entrp">    -48.92601267 </i>
    <i name="e_0_energy">    -48.91981009 </i>
   </energy>
  </scstep>
  <scstep>
   <time name="diag">    1.09    1.09</time>
   <time name="diis">    6.78    6.78</time>
   <time name="orth">    0.05    0.05</time>
   <time name="total">    9.79    9.79</time>
   <energy>
    <i name="e_fr_energy">    -48.91755226 </i>
    <i name="e_wo_entrp">    -48.92685532 </i>
    <i name="e_0_energy">    -48.92065328 </i>
   </energy>
  </scstep>
  <scstep>
   <time name="diag">    1.09    1.09</time>
   <time name="diis">    7.40    7.41</time>
   <time name="orth">    0.05    0.05</time>
   <time name="total">   10.42   10.43</time>
   <energy>
    <i name="e_fr_energy">    -48.91834879 </i>
    <i name="e_wo_entrp">    -48.92765087 </i>
    <i name="e_0_energy">    -48.92144948 </i>
   </energy>
  </scstep>
  <scstep>
   <time name="diag">    1.09    1.09</time>
   <time name="diis">    6.79    6.79</time>
   <time name="orth">    0.05    0.05</time>
   <time name="total">    9.80    9.81</time>
   <energy>
    <i name="e_fr_energy">    -48.91889258 </i>
    <i name="e_wo_entrp">    -48.92819519 </i>
    <i name="e_0_energy">    -48.92199345 </i>
   </energy>
  </scstep>
  <scstep>
   <time name="diag">    1.09    1.09</time>
   <time name="diis">    6.70    6.70</time>
   <time name="orth">    0.05    0.05</time>
   <time name="total">    9.71    9.71</time>
   <energy>
    <i name="e_fr_energy">    -48.91929554 </i>
    <i name="e_wo_entrp">    -48.92859879 </i>
    <i name="e_0_energy">    -48.92239662 </i>
   </energy>
  </scstep>
  <scstep>
   <time name="diag">    1.09    1.09</time>
   <time name="diis">    6.72    6.72</time>
   <time name="orth">    0.05    0.05</time>
   <time name="total">    9.74    9.74</time>
   <energy>
    <i name="e_fr_energy">    -48.91958602 </i>
    <i name="e_wo_entrp">    -48.92888948 </i>
    <i name="e_0_energy">    -48.92268717 </i>
   </energy>
  </scstep>
  <scstep>
   <time name="diag">    1.09    1.09</time>
   <time name="diis">    6.90    6.90</time>
   <time name="orth">    0.05    0.05</time>
   <time name="total">    9.92    9.93</time>
   <energy>
    <i name="e_fr_energy">    -48.91973406 </i>
    <i name="e_wo_entrp">    -48.92903719 </i>
    <i name="e_0_energy">    -48.92283510 </i>
   </energy>
  </scstep>
  <scstep>
   <time name="diag">    1.09    1.09</time>
   <time name="diis">    6.48    6.48</time>
   <time name="orth">    0.05    0.05</time>
   <time name="total">    9.50    9.51</time>
   <energy>
    <i name="e_fr_energy">    -48.91983022 </i>
    <i name="e_wo_entrp">    -48.92913329 </i>
    <i name="e_0_energy">    -48.92293124 </i>
   </energy>
  </scstep>
  <scstep>
   <time name="diag">    1.09    1.09</time>
   <time name="diis">    6.43    6.43</time>
   <time name="orth">    0.05    0.05</time>
   <time name="total">    9.45    9.46</time>
   <energy>
    <i name="e_fr_energy">    -48.91990146 </i>
    <i name="e_wo_entrp">    -48.92920461 </i>
    <i name="e_0_energy">    -48.92300251 </i>
   </energy>
  </scstep>
  <scstep>
   <time name="diag">    1.09    1.09</time>
   <time name="diis">    6.17    6.18</time>
   <time name="orth">    0.05    0.05</time>
   <time name="total">    9.19    9.21</time>
   <energy>
    <i name="e_fr_energy">    -48.91993547 </i>
    <i name="e_wo_entrp">    -48.92923863 </i>
    <i name="e_0_energy">    -48.92303653 </i>
   </energy>
  </scstep>
  <scstep>
   <time name="diag">    1.09    1.09</time>
   <time name="diis">    5.03    5.03</time>
   <time name="orth">    0.05    0.05</time>
   <time name="total">    8.06    8.06</time>
   <energy>
    <i name="e_fr_energy">    -48.91994761 </i>
    <i name="e_wo_entrp">    -48.92925075 </i>
    <i name="e_0_energy">    -48.92304866 </i>
   </energy>
  </scstep>
  <scstep>
   <time name="diag">    1.09    1.09</time>
   <time name="diis">    4.48    4.48</time>
   <time name="orth">    0.05    0.05</time>
   <time name="total">    7.52    7.52</time>
   <energy>
    <i name="e_fr_energy">    -48.91995259 </i>
    <i name="e_wo_entrp">    -48.92925577 </i>
    <i name="e_0_energy">    -48.92305365 </i>
   </energy>
  </scstep>
  <scstep>
   <time name="diag">    1.09    1.09</time>
   <time name="diis">    4.40    4.41</time>
   <time name="orth">    0.06    0.06</time>
   <time name="total">    7.45    7.45</time>
   <energy>
    <i name="e_fr_energy">    -48.91995634 </i>
    <i name="e_wo_entrp">    -48.92925953 </i>
    <i name="e_0_energy">    -48.92305741 </i>
   </energy>
  </scstep>
  <scstep>
   <time name="diag">    1.09    1.10</time>
   <time name="diis">    4.60    4.60</time>
   <time name="orth">    0.05    0.05</time>
   <time name="total">    7.65    7.65</time>
   <energy>
    <i name="e_fr_energy">    -48.91995786 </i>
    <i name="e_wo_entrp">    -48.92926107 </i>
    <i name="e_0_energy">    -48.92305893 </i>
   </energy>
  </scstep>
  <scstep>
   <time name="diag">    1.09    1.09</time>
   <time name="diis">    4.51    4.51</time>
   <time name="orth">    0.06    0.06</time>
   <time name="total">    7.56    7.57</time>
   <energy>
    <i name="e_fr_energy">    -48.91995874 </i>
    <i name="e_wo_entrp">    -48.92926195 </i>
    <i name="e_0_energy">    -48.92305981 </i>
   </energy>
  </scstep>
  <scstep>
   <time name="diag">    1.09    1.09</time>
   <time name="diis">    4.23    4.23</time>
   <time name="orth">    0.06    0.06</time>
   <time name="total">    7.28    7.29</time>
   <energy>
    <i name="e_fr_energy">    -48.91995946 </i>
    <i name="e_wo_entrp">    -48.92926267 </i>
    <i name="e_0_energy">    -48.92306053 </i>
   </energy>
  </scstep>
  <scstep>
   <time name="diag">    1.09    1.09</time>
   <time name="diis">    4.44    4.45</time>
   <time name="orth">    0.06    0.06</time>
   <time name="total">    7.50    7.50</time>
   <energy>
    <i name="e_fr_energy">    -48.91995993 </i>
    <i name="e_wo_entrp">    -48.92926314 </i>
    <i name="e_0_energy">    -48.92306100 </i>
   </energy>
  </scstep>
  <scstep>
   <time name="diag">    1.09    1.09</time>
   <time name="diis">    4.24    4.25</time>
   <time name="orth">    0.05    0.06</time>
   <time name="total">    7.31    7.31</time>
   <energy>
    <i name="e_fr_energy">    -48.91996035 </i>
    <i name="e_wo_entrp">    -48.92926356 </i>
    <i name="e_0_energy">    -48.92306142 </i>
   </energy>
  </scstep>
  <scstep>
   <time name="diag">    1.09    1.09</time>
   <time name="diis">    3.80    3.81</time>
   <time name="orth">    0.05    0.05</time>
   <time name="total">    6.87    6.88</time>
   <energy>
    <i name="e_fr_energy">    -48.91996056 </i>
    <i name="e_wo_entrp">    -48.92926376 </i>
    <i name="e_0_energy">    -48.92306163 </i>
   </energy>
  </scstep>
  <scstep>
   <time name="diag">    1.09    1.09</time>
   <time name="diis">    3.39    3.40</time>
   <time name="orth">    0.05    0.05</time>
   <time name="total">    6.48    6.48</time>
   <energy>
    <i name="e_fr_energy">    -48.91996076 </i>
    <i name="e_wo_entrp">    -48.92926397 </i>
    <i name="e_0_energy">    -48.92306183 </i>
   </energy>
  </scstep>
  <scstep>
   <time name="diag">    1.09    1.09</time>
   <time name="diis">    3.42    3.42</time>
   <time name="orth">    0.05    0.06</time>
   <time name="total">    6.51    6.51</time>
   <energy>
    <i name="e_fr_energy">    -48.91996087 </i>
    <i name="e_wo_entrp">    -48.92926408 </i>
    <i name="e_0_energy">    -48.92306194 </i>
   </energy>
  </scstep>
  <scstep>
   <time name="diag">    1.09    1.09</time>
   <time name="diis">    3.34    3.34</time>
   <time name="orth">    0.05    0.05</time>
   <time name="total">    5.67    5.67</time>
   <energy>
    <i name="alphaZ">     41.16232785 </i>
    <i name="ewald">  16368.48692953 </i>
    <i name="hartreedc"> -33346.19211216 </i>
    <i name="XCdc">    615.43864312 </i>
    <i name="pawpsdc">  17644.67800508 </i>
    <i name="pawaedc"> -19043.43569102 </i>
    <i name="eentropy">      0.00930321 </i>
    <i name="bandstr">   -991.28661363 </i>
    <i name="atom">  18662.21924712 </i>
    <i name="e_fr_energy">    -48.91996091 </i>
    <i name="e_wo_entrp">    -48.92926412 </i>
    <i name="e_0_energy">    -48.92306198 </i>
   </energy>
  </scstep>
  <structure>
   <crystal>
    <varray name="basis" >
     <v>      15.00000000       0.00000000       0.00000000 </v>
     <v>       0.00000000      15.00000000       0.00000000 </v>
     <v>       0.00000000       0.00000000      15.00000000 </v>
    </varray>
    <i name="volume">   3375.00000000 </i>
    <varray name="rec_basis" >
     <v>       0.06666667       0.00000000       0.00000000 </v>
     <v>       0.00000000       0.06666667       0.00000000 </v>
     <v>       0.00000000       0.00000000       0.06666667 </v>
    </varray>
   </crystal>
   <varray name="positions" >
    <v>       0.29028400       0.42075000       0.55524467 </v>
    <v>       0.37670867       0.54599800       0.49383133 </v>
    <v>       0.39413000       0.29217800       0.56409733 </v>
    <v>       0.53371800       0.50642533       0.47996400 </v>
    <v>       0.54821200       0.34583800       0.53205333 </v>
    <v>       0.44502467       0.43520867       0.61363933 </v>
    <v>       0.41523133       0.40116733       0.44612800 </v>
    <v>       0.22771600       0.56460200       0.54742133 </v>
    <v>       0.33402867       0.54684067       0.65771133 </v>
    <v>       0.35422733       0.68492000       0.56801133 </v>
    <v>       0.48423333       0.66566467       0.47266933 </v>
    <v>       0.62838200       0.48382667       0.60722733 </v>
    <v>       0.48460267       0.59287800       0.61544000 </v>
    <v>       0.74092667       0.49122600       0.64481000 </v>
    <v>       0.81786667       0.49697467       0.65675533 </v>
   </varray>
  </structure>
  <varray name="forces" >
   <v>       0.19240328      -0.37919484       0.07458794 </v>
   <v>      -0.10260511       0.30002749      -0.07169314 </v>
   <v>      -0.01709648      -0.04828079      -0.03246104 </v>
   <v>       0.05483309      -0.06273780       0.25682333 </v>
   <v>       0.02537997       0.33904550      -0.10164412 </v>
   <v>       0.38459592       0.12608295      -0.17420515 </v>
   <v>       0.12387707      -0.37863498       0.28951404 </v>
   <v>      -0.44622188       0.53059853      -0.16680330 </v>
   <v>       0.30768730      -0.01468538      -0.00519565 </v>
   <v>      -0.19878176      -0.05703267       0.09220157 </v>
   <v>       0.09383746      -0.05224523       0.09997001 </v>
   <v>      -1.04250702      -0.19837192      -0.38146577 </v>
   <v>       0.23363147      -0.15424693      -0.14911513 </v>
   <v>       1.78247594       0.15249287       0.54924063 </v>
   <v>      -1.39150926      -0.10281682      -0.27975421 </v>
  </varray>
  <varray name="stress" >
   <v>      -0.81407114      -0.46443018       0.09492019 </v>
   <v>      -0.46443017       0.16825207       0.05957233 </v>
   <v>       0.09492019       0.05957232      -0.54047043 </v>
  </varray>
  <energy>
   <i name="e_fr_energy">    -48.91996091 </i>
   <i name="e_wo_entrp">    -48.92306198 </i>
   <i name="e_0_energy">      0.00930321 </i>
  </energy>
  <time name="totalsc">  356.54  356.76</time>
  <eigenvalues>
   <array>
    <dimension dim="1">band</dimension>
    <dimension dim="2">kpoint</dimension>
    <dimension dim="3">spin</dimension>
    <field>eigene</field>
    <field>occ</field>
    <set>
     <set comment="spin 1">
      <set comment="kpoint 1">
       <r>  -28.2045    1.0000 </r>
       <r>  -13.8992    1.0000 </r>
       <r>  -11.2828    1.0000 </r>
       <r>  -10.9901    1.0000 </r>
       <r>  -10.9602    1.0000 </r>
       <r>  -10.2004    1.0000 </r>
       <r>   -8.6023    1.0000 </r>
       <r>   -8.2413    1.0000 </r>
       <r>   -7.7288    1.0000 </r>
       <r>   -7.5512    1.0000 </r>
       <r>   -7.4648    1.0000 </r>
       <r>   -7.3650    1.0000 </r>
       <r>   -7.3253    1.0000 </r>
       <r>   -7.1472    1.0000 </r>
       <r>   -7.1071    1.0000 </r>
       <r>   -6.9629    1.0000 </r>
       <r>   -6.8257    1.0000 </r>
       <r>   -6.7909    1.0000 </r>
       <r>   -6.7298    1.0000 </r>
       <r>   -6.6385    1.0000 </r>
       <r>   -6.6319    1.0000 </r>
       <r>   -6.6155    1.0000 </r>
       <r>   -6.5295    1.0000 </r>
       <r>   -6.5060    1.0000 </r>
       <r>   -6.4571    1.0000 </r>
       <r>   -6.4258    1.0000 </r>
       <r>   -6.3845    1.0000 </r>
       <r>   -6.2991    1.0000 </r>
       <r>   -6.2772    1.0000 </r>
       <r>   -6.2686    1.0000 </r>
       <r>   -6.1986    1.0000 </r>
       <r>   -6.1731    1.0000 </r>
       <r>   -6.1106    1.0000 </r>
       <r>   -6.0712    1.0000 </r>
       <r>   -5.9453    1.0000 </r>
       <r>   -5.8761    1.0000 </r>
       <r>   -5.8602    1.0000 </r>
       <r>   -5.7141    1.0000 </r>
       <r>   -5.7021    1.0000 </r>
       <r>   -5.6505    1.0000 </r>
       <r>   -5.6196    1.0000 </r>
       <r>   -5.5647    1.0000 </r>
       <r>   -5.5517    1.0000 </r>
       <r>   -5.4981    1.0000 </r>
       <r>   -5.4564    1.0000 </r>
       <r>   -5.4253    1.0000 </r>
       <r>   -5.3865    1.0000 </r>
       <r>   -5.3810    1.0000 </r>
       <r>   -5.3525    1.0000 </r>
       <r>   -5.3353    1.0000 </r>
       <r>   -5.3319    1.0000 </r>
       <r>   -5.2636    1.0000 </r>
       <r>   -5.2548    1.0000 </r>
       <r>   -5.2529    1.0000 </r>
       <r>   -5.2069    1.0000 </r>
       <r>   -5.1885    1.0000 </r>
       <r>   -5.1670    1.0000 </r>
       <r>   -5.1418    1.0000 </r>
       <r>   -5.1282    1.0000 </r>
       <r>   -5.0891    1.0000 </r>
       <r>   -5.0737    1.0000 </r>
       <r>   -5.0302    1.0000 </r>
       <r>   -5.0167    1.0000 </r>
       <r>   -4.9925    1.0000 </r>
       <r>   -4.9449    1.0000 </r>
       <r>   -4.9215    1.0000 </r>
       <r>   -4.9060    1.0000 </r>
       <r>   -4.8911    1.0000 </r>
       <r>   -4.8736    1.0000 </r>
       <r>   -4.8290    1.0000 </r>
       <r>   -4.8135    1.0000 </r>
       <r>   -4.7757    1.0000 </r>
       <r>   -4.7335    1.0000 </r>
       <r>   -4.5440    1.0000 </r>
       <r>   -4.1836    1.0000 </r>
       <r>   -4.1238    1.0000 </r>
       <r>   -3.5391    1.0000 </r>
       <r>   -3.0315   -0.0000 </r>
       <r>   -2.9219   -0.0000 </r>
       <r>   -2.5517   -0.0000 </r>
       <r>   -2.4058   -0.0000 </r>
       <r>   -1.9726   -0.0000 </r>
       <r>   -1.8957   -0.0000 </r>
       <r>   -1.7406   -0.0000 </r>
       <r>   -1.3871   -0.0000 </r>
       <r>   -1.0891   -0.0000 </r>
       <r>   -0.9444   -0.0000 </r>
       <r>   -0.6782    0.0000 </r>
       <r>   -0.3983    0.0000 </r>
       <r>   -0.2946    0.0000 </r>
       <r>    0.0376    0.0000 </r>
       <r>    0.1898    0.0000 </r>
      </set>
     </set>
     <set comment="spin 2">
      <set comment="kpoint 1">
       <r>  -28.1836    1.0000 </r>
       <r>  -13.8579    1.0000 </r>
       <r>  -11.2552    1.0000 </r>
       <r>  -10.9601    1.0000 </r>
       <r>  -10.9092    1.0000 </r>
       <r>  -10.1581    1.0000 </r>
       <r>   -8.5810    1.0000 </r>
       <r>   -8.1926    1.0000 </r>
       <r>   -7.6842    1.0000 </r>
       <r>   -7.5274    1.0000 </r>
       <r>   -7.4307    1.0000 </r>
       <r>   -7.3244    1.0000 </r>
       <r>   -7.2890    1.0000 </r>
       <r>   -7.1222    1.0000 </r>
       <r>   -7.0777    1.0000 </r>
       <r>   -6.9318    1.0000 </r>
       <r>   -6.7976    1.0000 </r>
       <r>   -6.7608    1.0000 </r>
       <r>   -6.6903    1.0000 </r>
       <r>   -6.6209    1.0000 </r>
       <r>   -6.6122    1.0000 </r>
       <r>   -6.5938    1.0000 </r>
       <r>   -6.4999    1.0000 </r>
       <r>   -6.4835    1.0000 </r>
       <r>   -6.4307    1.0000 </r>
       <r>   -6.3922    1.0000 </r>
       <r>   -6.3577    1.0000 </r>
       <r>   -6.2784    1.0000 </r>
       <r>   -6.2553    1.0000 </r>
       <r>   -6.2429    1.0000 </r>
       <r>   -6.1775    1.0000 </r>
       <r>   -6.1427    1.0000 </r>
       <r>   -6.0870    1.0000 </r>
       <r>   -6.0488    1.0000 </r>
       <r>   -5.9229    1.0000 </r>
       <r>   -5.8468    1.0000 </r>
       <r>   -5.8313    1.0000 </r>
       <r>   -5.6933    1.0000 </r>
       <r>   -5.6828    1.0000 </r>
       <r>   -5.6223    1.0000 </r>
       <r>   -5.5959    1.0000 </r>
       <r>   -5.5359    1.0000 </r>
       <r>   -5.5233    1.0000 </r>
       <r>   -5.4753    1.0000 </r>
       <r>   -5.4318    1.0000 </r>
       <r>   -5.3902    1.0000 </r>
       <r>   -5.3616    1.0000 </r>
       <r>   -5.3550    1.0000 </r>
       <r>   -5.3273    1.0000 </r>
       <r>   -5.3058    1.0000 </r>
       <r>   -5.3043    1.0000 </r>
       <r>   -5.2397    1.0000 </r>
       <r>   -5.2340    1.0000 </r>
       <r>   -5.2266    1.0000 </r>
       <r>   -5.1785    1.0000 </r>
       <r>   -5.1640    1.0000 </r>
       <r>   -5.1444    1.0000 </r>
       <r>   -5.1246    1.0000 </r>
       <r>   -5.1051    1.0000 </r>
       <r>   -5.0578    1.0000 </r>
       <r>   -5.0470    1.0000 </r>
       <r>   -5.0095    1.0000 </r>
       <r>   -5.0003    1.0000 </r>
       <r>   -4.9595    1.0000 </r>
       <r>   -4.9155    1.0000 </r>
       <r>   -4.8975    1.0000 </r>
       <r>   -4.8830    1.0000 </r>
       <r>   -4.8565    1.0000 </r>
       <r>   -4.8388    1.0000 </r>
       <r>   -4.7988    1.0000 </r>
       <r>   -4.7774    1.0000 </r>
       <r>   -4.7507    1.0000 </r>
       <r>   -4.7028    1.0000 </r>
       <r>   -4.5006    1.0000 </r>
       <r>   -4.1249    1.0344 </r>
       <r>   -4.0819    0.9656 </r>
       <r>   -3.3296   -0.0000 </r>
       <r>   -2.9787   -0.0000 </r>
       <r>   -2.8695   -0.0000 </r>
       <r>   -2.4856   -0.0000 </r>
       <r>   -2.3145   -0.0000 </r>
       <r>   -1.9469   -0.0000 </r>
       <r>   -1.8152   -0.0000 </r>
       <r>   -1.6750   -0.0000 </r>
       <r>   -1.2781    0.0000 </r>
       <r>   -0.9550    0.0000 </r>
       <r>   -0.8674    0.0000 </r>
       <r>   -0.6049    0.0000 </r>
       <r>   -0.2981    0.0000 </r>
       <r>   -0.2381    0.0000 </r>
       <r>   -0.0632    0.0000 </r>
       <r>    0.1404    0.0000 </r>
      </set>
     </set>
    </set>
   </array>
  </eigenvalues>
  <separator name="orbital magnetization" >
   <v name="MAGDIPOLOUT">      0.00000000      0.00000000      0.00000000</v>
  </separator>
  <dos>
   <i name="efermi">     -4.01019584 </i>
   <total>
    <array>
     <dimension dim="1">gridpoints</dimension>
     <dimension dim="2">spin</dimension>
     <field>energy</field>
     <field>total</field>
     <field>integrated</field>
     <set>
      <set comment="spin 1">
       <r>   -29.6242     0.0000     0.0000 </r>
       <r>   -29.5201     0.0000     0.0000 </r>
       <r>   -29.4160     0.0000     0.0000 </r>
       <r>   -29.3119     0.0000     0.0000 </r>
       <r>   -29.2078     0.0000     0.0000 </r>
       <r>   -29.1037    -0.0000    -0.0000 </r>
       <r>   -28.9995    -0.0000    -0.0000 </r>
       <r>   -28.8954    -0.0000    -0.0000 </r>
       <r>   -28.7913    -0.0000    -0.0000 </r>
       <r>   -28.6872    -0.0000    -0.0000 </r>
       <r>   -28.5831    -0.0000    -0.0000 </r>
       <r>   -28.4790    -0.0069    -0.0007 </r>
       <r>   -28.3749    -0.3463    -0.0368 </r>
       <r>   -28.2708     1.3885     0.1078 </r>
       <r>   -28.1666    14.2627     1.5927 </r>
       <r>   -28.0625     4.5081     2.0621 </r>
       <r>   -27.9584    -0.5696     2.0028 </r>
       <r>   -27.8543    -0.0264     2.0000 </r>
       <r>   -27.7502    -0.0001     2.0000 </r>
       <r>   -27.6461    -0.0000     2.0000 </r>
       <r>   -27.5420    -0.0000     2.0000 </r>
       <r>   -27.4378     0.0000     2.0000 </r>
       <r>   -27.3337     0.0000     2.0000 </r>
       <r>   -27.2296     0.0000     2.0000 </r>
       <r>   -27.1255     0.0000     2.0000 </r>
       <r>   -27.0214     0.0000     2.0000 </r>
       <r>   -26.9173     0.0000     2.0000 </r>
       <r>   -26.8132     0.0000     2.0000 </r>
       <r>   -26.7091     0.0000     2.0000 </r>
       <r>   -26.6049     0.0000     2.0000 </r>
       <r>   -26.5008     0.0000     2.0000 </r>
       <r>   -26.3967     0.0000     2.0000 </r>
       <r>   -26.2926     0.0000     2.0000 </r>
       <r>   -26.1885     0.0000     2.0000 </r>
       <r>   -26.0844     0.0000     2.0000 </r>
       <r>   -25.9803     0.0000     2.0000 </r>
       <r>   -25.8762     0.0000     2.0000 </r>
       <r>   -25.7720     0.0000     2.0000 </r>
       <r>   -25.6679     0.0000     2.0000 </r>
       <r>   -25.5638     0.0000     2.0000 </r>
       <r>   -25.4597     0.0000     2.0000 </r>
       <r>   -25.3556     0.0000     2.0000 </r>
       <r>   -25.2515     0.0000     2.0000 </r>
       <r>   -25.1474     0.0000     2.0000 </r>
       <r>   -25.0433     0.0000     2.0000 </r>
       <r>   -24.9391     0.0000     2.0000 </r>
       <r>   -24.8350     0.0000     2.0000 </r>
       <r>   -24.7309     0.0000     2.0000 </r>
       <r>   -24.6268     0.0000     2.0000 </r>
       <r>   -24.5227     0.0000     2.0000 </r>
       <r>   -24.4186     0.0000     2.0000 </r>
       <r>   -24.3145     0.0000     2.0000 </r>
       <r>   -24.2104     0.0000     2.0000 </r>
       <r>   -24.1062     0.0000     2.0000 </r>
       <r>   -24.0021     0.0000     2.0000 </r>
       <r>   -23.8980     0.0000     2.0000 </r>
       <r>   -23.7939     0.0000     2.0000 </r>
       <r>   -23.6898     0.0000     2.0000 </r>
       <r>   -23.5857     0.0000     2.0000 </r>
       <r>   -23.4816     0.0000     2.0000 </r>
       <r>   -23.3775     0.0000     2.0000 </r>
       <r>   -23.2733     0.0000     2.0000 </r>
       <r>   -23.1692     0.0000     2.0000 </r>
       <r>   -23.0651     0.0000     2.0000 </r>
       <r>   -22.9610     0.0000     2.0000 </r>
       <r>   -22.8569     0.0000     2.0000 </r>
       <r>   -22.7528     0.0000     2.0000 </r>
       <r>   -22.6487     0.0000     2.0000 </r>
       <r>   -22.5446     0.0000     2.0000 </r>
       <r>   -22.4404     0.0000     2.0000 </r>
       <r>   -22.3363     0.0000     2.0000 </r>
       <r>   -22.2322     0.0000     2.0000 </r>
       <r>   -22.1281     0.0000     2.0000 </r>
       <r>   -22.0240     0.0000     2.0000 </r>
       <r>   -21.9199     0.0000     2.0000 </r>
       <r>   -21.8158     0.0000     2.0000 </r>
       <r>   -21.7117     0.0000     2.0000 </r>
       <r>   -21.6075     0.0000     2.0000 </r>
       <r>   -21.5034     0.0000     2.0000 </r>
       <r>   -21.3993     0.0000     2.0000 </r>
       <r>   -21.2952     0.0000     2.0000 </r>
       <r>   -21.1911     0.0000     2.0000 </r>
       <r>   -21.0870     0.0000     2.0000 </r>
       <r>   -20.9829     0.0000     2.0000 </r>
       <r>   -20.8788     0.0000     2.0000 </r>
       <r>   -20.7746     0.0000     2.0000 </r>
       <r>   -20.6705     0.0000     2.0000 </r>
       <r>   -20.5664     0.0000     2.0000 </r>
       <r>   -20.4623     0.0000     2.0000 </r>
       <r>   -20.3582     0.0000     2.0000 </r>
       <r>   -20.2541     0.0000     2.0000 </r>
       <r>   -20.1500     0.0000     2.0000 </r>
       <r>   -20.0459     0.0000     2.0000 </r>
       <r>   -19.9417     0.0000     2.0000 </r>
       <r>   -19.8376     0.0000     2.0000 </r>
       <r>   -19.7335     0.0000     2.0000 </r>
       <r>   -19.6294     0.0000     2.0000 </r>
       <r>   -19.5253     0.0000     2.0000 </r>
       <r>   -19.4212     0.0000     2.0000 </r>
       <r>   -19.3171     0.0000     2.0000 </r>
       <r>   -19.2130     0.0000     2.0000 </r>
       <r>   -19.1088     0.0000     2.0000 </r>
       <r>   -19.0047     0.0000     2.0000 </r>
       <r>   -18.9006     0.0000     2.0000 </r>
       <r>   -18.7965     0.0000     2.0000 </r>
       <r>   -18.6924     0.0000     2.0000 </r>
       <r>   -18.5883     0.0000     2.0000 </r>
       <r>   -18.4842     0.0000     2.0000 </r>
       <r>   -18.3801     0.0000     2.0000 </r>
       <r>   -18.2759     0.0000     2.0000 </r>
       <r>   -18.1718     0.0000     2.0000 </r>
       <r>   -18.0677     0.0000     2.0000 </r>
       <r>   -17.9636     0.0000     2.0000 </r>
       <r>   -17.8595     0.0000     2.0000 </r>
       <r>   -17.7554     0.0000     2.0000 </r>
       <r>   -17.6513     0.0000     2.0000 </r>
       <r>   -17.5472     0.0000     2.0000 </r>
       <r>   -17.4430     0.0000     2.0000 </r>
       <r>   -17.3389     0.0000     2.0000 </r>
       <r>   -17.2348     0.0000     2.0000 </r>
       <r>   -17.1307     0.0000     2.0000 </r>
       <r>   -17.0266     0.0000     2.0000 </r>
       <r>   -16.9225     0.0000     2.0000 </r>
       <r>   -16.8184     0.0000     2.0000 </r>
       <r>   -16.7143     0.0000     2.0000 </r>
       <r>   -16.6101     0.0000     2.0000 </r>
       <r>   -16.5060     0.0000     2.0000 </r>
       <r>   -16.4019     0.0000     2.0000 </r>
       <r>   -16.2978     0.0000     2.0000 </r>
       <r>   -16.1937     0.0000     2.0000 </r>
       <r>   -16.0896     0.0000     2.0000 </r>
       <r>   -15.9855     0.0000     2.0000 </r>
       <r>   -15.8814     0.0000     2.0000 </r>
       <r>   -15.7772     0.0000     2.0000 </r>
       <r>   -15.6731     0.0000     2.0000 </r>
       <r>   -15.5690     0.0000     2.0000 </r>
       <r>   -15.4649     0.0000     2.0000 </r>
       <r>   -15.3608     0.0000     2.0000 </r>
       <r>   -15.2567     0.0000     2.0000 </r>
       <r>   -15.1526     0.0000     2.0000 </r>
       <r>   -15.0485     0.0000     2.0000 </r>
       <r>   -14.9443     0.0000     2.0000 </r>
       <r>   -14.8402     0.0000     2.0000 </r>
       <r>   -14.7361    -0.0000     2.0000 </r>
       <r>   -14.6320    -0.0000     2.0000 </r>
       <r>   -14.5279    -0.0000     2.0000 </r>
       <r>   -14.4238    -0.0000     2.0000 </r>
       <r>   -14.3197    -0.0000     2.0000 </r>
       <r>   -14.2156    -0.0007     1.9999 </r>
       <r>   -14.1114    -0.1009     1.9894 </r>
       <r>   -14.0073    -0.5056     1.9368 </r>
       <r>   -13.9032     9.5680     2.9329 </r>
       <r>   -13.7991    10.7347     4.0506 </r>
       <r>   -13.6950    -0.3521     4.0139 </r>
       <r>   -13.5909    -0.1324     4.0001 </r>
       <r>   -13.4868    -0.0011     4.0000 </r>
       <r>   -13.3827    -0.0000     4.0000 </r>
       <r>   -13.2785    -0.0000     4.0000 </r>
       <r>   -13.1744     0.0000     4.0000 </r>
       <r>   -13.0703     0.0000     4.0000 </r>
       <r>   -12.9662     0.0000     4.0000 </r>
       <r>   -12.8621     0.0000     4.0000 </r>
       <r>   -12.7580     0.0000     4.0000 </r>
       <r>   -12.6539     0.0000     4.0000 </r>
       <r>   -12.5498     0.0000     4.0000 </r>
       <r>   -12.4456     0.0000     4.0000 </r>
       <r>   -12.3415     0.0000     4.0000 </r>
       <r>   -12.2374     0.0000     4.0000 </r>
       <r>   -12.1333    -0.0000     4.0000 </r>
       <r>   -12.0292    -0.0000     4.0000 </r>
       <r>   -11.9251    -0.0000     4.0000 </r>
       <r>   -11.8210    -0.0000     4.0000 </r>
       <r>   -11.7168    -0.0000     4.0000 </r>
       <r>   -11.6127    -0.0003     4.0000 </r>
       <r>   -11.5086    -0.0609     3.9936 </r>
       <r>   -11.4045    -0.6198     3.9291 </r>
       <r>   -11.3004     7.4761     4.7075 </r>
       <r>   -11.1963    12.3440     5.9926 </r>
       <r>   -11.0922    -0.9038     5.8985 </r>
       <r>   -10.9881    16.1799     7.5831 </r>
       <r>   -10.8839    23.4126    10.0206 </r>
       <r>   -10.7798     0.1850    10.0399 </r>
       <r>   -10.6757    -0.3781    10.0005 </r>
       <r>   -10.5716    -0.0050    10.0000 </r>
       <r>   -10.4675    -0.0100     9.9990 </r>
       <r>   -10.3634    -0.4064     9.9566 </r>
       <r>   -10.2593     2.0487    10.1699 </r>
       <r>   -10.1552    14.5553    11.6853 </r>
       <r>   -10.0510     3.5594    12.0559 </r>
       <r>    -9.9469    -0.5179    12.0020 </r>
       <r>    -9.8428    -0.0190    12.0000 </r>
       <r>    -9.7387    -0.0001    12.0000 </r>
       <r>    -9.6346    -0.0000    12.0000 </r>
       <r>    -9.5305    -0.0000    12.0000 </r>
       <r>    -9.4264    -0.0000    12.0000 </r>
       <r>    -9.3223    -0.0000    12.0000 </r>
       <r>    -9.2181    -0.0000    12.0000 </r>
       <r>    -9.1140    -0.0000    12.0000 </r>
       <r>    -9.0099    -0.0000    12.0000 </r>
       <r>    -8.9058    -0.0015    11.9998 </r>
       <r>    -8.8017    -0.1553    11.9837 </r>
       <r>    -8.6976    -0.2171    11.9611 </r>
       <r>    -8.5935    11.4143    13.1494 </r>
       <r>    -8.4894     8.7962    14.0652 </r>
       <r>    -8.3852    -1.1229    13.9483 </r>
       <r>    -8.2811     4.1660    14.3821 </r>
       <r>    -8.1770    14.3583    15.8769 </r>
       <r>    -8.0729     1.5514    16.0385 </r>
       <r>    -7.9688    -0.3960    15.9972 </r>
       <r>    -7.8647    -0.6110    15.9336 </r>
       <r>    -7.7606     5.2345    16.4786 </r>
       <r>    -7.6565    13.2177    17.8547 </r>
       <r>    -7.5523    10.7083    18.9696 </r>
       <r>    -7.4482    22.0592    21.2662 </r>
       <r>    -7.3441    27.1625    24.0942 </r>
       <r>    -7.2400    18.1279    25.9815 </r>
       <r>    -7.1359    16.6793    27.7181 </r>
       <r>    -7.0318    22.8322    30.0952 </r>
       <r>    -6.9277    13.0762    31.4566 </r>
       <r>    -6.8236    19.4849    33.4852 </r>
       <r>    -6.7194    34.5009    37.0772 </r>
       <r>    -6.6153    43.6753    41.6243 </r>
       <r>    -6.5112    47.2603    46.5447 </r>
       <r>    -6.4071    48.6282    51.6075 </r>
       <r>    -6.3030    41.6791    55.9468 </r>
       <r>    -6.1989    52.9370    61.4582 </r>
       <r>    -6.0948    42.7832    65.9125 </r>
       <r>    -5.9907    22.6252    68.2681 </r>
       <r>    -5.8865    28.0613    71.1896 </r>
       <r>    -5.7824    27.2878    74.0306 </r>
       <r>    -5.6783    33.7465    77.5440 </r>
       <r>    -5.5742    53.4382    83.1076 </r>
       <r>    -5.4701    50.9292    88.4100 </r>
       <r>    -5.3660    72.9430    96.0043 </r>
       <r>    -5.2619    85.2042   104.8751 </r>
       <r>    -5.1578    85.4898   113.7757 </r>
       <r>    -5.0536    79.0002   122.0006 </r>
       <r>    -4.9495    72.8053   129.5806 </r>
       <r>    -4.8454    84.3218   138.3595 </r>
       <r>    -4.7413    59.5175   144.5560 </r>
       <r>    -4.6372    15.1489   146.1332 </r>
       <r>    -4.5331    10.2783   147.2033 </r>
       <r>    -4.4290     8.2879   148.0662 </r>
       <r>    -4.3249    -1.3063   147.9302 </r>
       <r>    -4.2207     4.2512   148.3728 </r>
       <r>    -4.1166    25.4030   151.0176 </r>
       <r>    -4.0125    10.4216   152.1026 </r>
       <r>    -3.9084    -0.8881   152.0101 </r>
       <r>    -3.8043    -0.1078   151.9989 </r>
       <r>    -3.7002    -0.4229   151.9549 </r>
       <r>    -3.5961     2.2380   152.1879 </r>
       <r>    -3.4920    14.5983   153.7078 </r>
       <r>    -3.3878     3.3274   154.0542 </r>
       <r>    -3.2837    -0.5232   153.9997 </r>
       <r>    -3.1796    -0.5597   153.9415 </r>
       <r>    -3.0755     3.2192   154.2766 </r>
       <r>    -2.9714    17.5686   156.1057 </r>
       <r>    -2.8673    16.5692   157.8308 </r>
       <r>    -2.7632     1.9849   158.0374 </r>
       <r>    -2.6591    -0.9649   157.9370 </r>
       <r>    -2.5549     9.1512   158.8897 </r>
       <r>    -2.4508    14.2064   160.3688 </r>
       <r>    -2.3467    14.1806   161.8452 </r>
       <r>    -2.2426     1.8942   162.0424 </r>
       <r>    -2.1385    -0.8190   161.9571 </r>
       <r>    -2.0344     1.1743   162.0794 </r>
       <r>    -1.9303    19.2207   164.0805 </r>
       <r>    -1.8262    18.1414   165.9693 </r>
       <r>    -1.7220    13.2021   167.3438 </r>
       <r>    -1.6179     6.9400   168.0663 </r>
       <r>    -1.5138    -1.2540   167.9357 </r>
       <r>    -1.4097     6.6530   168.6284 </r>
       <r>    -1.3056    12.9694   169.9787 </r>
       <r>    -1.2015    -0.2206   169.9557 </r>
       <r>    -1.0974     8.1897   170.8084 </r>
       <r>    -0.9933    14.4561   172.3134 </r>
       <r>    -0.8891    14.2840   173.8006 </r>
       <r>    -0.7850     1.7722   173.9851 </r>
       <r>    -0.6809     9.3063   174.9540 </r>
       <r>    -0.5768    10.2621   176.0224 </r>
       <r>    -0.4727     0.1170   176.0346 </r>
       <r>    -0.3686    14.4023   177.5340 </r>
       <r>    -0.2645    19.3943   179.5532 </r>
       <r>    -0.1604     4.8104   180.0541 </r>
       <r>    -0.0562    -0.8437   179.9662 </r>
       <r>     0.0479    11.0010   181.1116 </r>
       <r>     0.1520    13.1053   182.4760 </r>
       <r>     0.2561    13.6835   183.9006 </r>
       <r>     0.3602     1.3084   184.0368 </r>
       <r>     0.4643    -0.3468   184.0007 </r>
       <r>     0.5684    -0.0069   184.0000 </r>
       <r>     0.6725    -0.0000   184.0000 </r>
       <r>     0.7767    -0.0000   184.0000 </r>
       <r>     0.8808    -0.0000   184.0000 </r>
       <r>     0.9849     0.0000   184.0000 </r>
       <r>     1.0890     0.0000   184.0000 </r>
       <r>     1.1931     0.0000   184.0000 </r>
       <r>     1.2972     0.0000   184.0000 </r>
       <r>     1.4013     0.0000   184.0000 </r>
       <r>     1.5054     0.0000   184.0000 </r>
       <r>     1.6096     0.0000   184.0000 </r>
      </set>
      <set comment="spin 2">
       <r>   -29.6242     0.0000     0.0000 </r>
       <r>   -29.5201     0.0000     0.0000 </r>
       <r>   -29.4160     0.0000     0.0000 </r>
       <r>   -29.3119     0.0000     0.0000 </r>
       <r>   -29.2078     0.0000     0.0000 </r>
       <r>   -29.1037     0.0000     0.0000 </r>
       <r>   -28.9995    -0.0000    -0.0000 </r>
       <r>   -28.8954    -0.0000    -0.0000 </r>
       <r>   -28.7913    -0.0000    -0.0000 </r>
       <r>   -28.6872    -0.0000    -0.0000 </r>
       <r>   -28.5831    -0.0000    -0.0000 </r>
       <r>   -28.4790    -0.0023    -0.0002 </r>
       <r>   -28.3749    -0.1990    -0.0210 </r>
       <r>   -28.2708     0.0814    -0.0125 </r>
       <r>   -28.1666    12.4315     1.2818 </r>
       <r>   -28.0625     7.5788     2.0708 </r>
       <r>   -27.9584    -0.6177     2.0065 </r>
       <r>   -27.8543    -0.0625     2.0000 </r>
       <r>   -27.7502    -0.0003     2.0000 </r>
       <r>   -27.6461    -0.0000     2.0000 </r>
       <r>   -27.5420    -0.0000     2.0000 </r>
       <r>   -27.4378     0.0000     2.0000 </r>
       <r>   -27.3337     0.0000     2.0000 </r>
       <r>   -27.2296     0.0000     2.0000 </r>
       <r>   -27.1255     0.0000     2.0000 </r>
       <r>   -27.0214     0.0000     2.0000 </r>
       <r>   -26.9173     0.0000     2.0000 </r>
       <r>   -26.8132     0.0000     2.0000 </r>
       <r>   -26.7091     0.0000     2.0000 </r>
       <r>   -26.6049     0.0000     2.0000 </r>
       <r>   -26.5008     0.0000     2.0000 </r>
       <r>   -26.3967     0.0000     2.0000 </r>
       <r>   -26.2926     0.0000     2.0000 </r>
       <r>   -26.1885     0.0000     2.0000 </r>
       <r>   -26.0844     0.0000     2.0000 </r>
       <r>   -25.9803     0.0000     2.0000 </r>
       <r>   -25.8762     0.0000     2.0000 </r>
       <r>   -25.7720     0.0000     2.0000 </r>
       <r>   -25.6679     0.0000     2.0000 </r>
       <r>   -25.5638     0.0000     2.0000 </r>
       <r>   -25.4597     0.0000     2.0000 </r>
       <r>   -25.3556     0.0000     2.0000 </r>
       <r>   -25.2515     0.0000     2.0000 </r>
       <r>   -25.1474     0.0000     2.0000 </r>
       <r>   -25.0433     0.0000     2.0000 </r>
       <r>   -24.9391     0.0000     2.0000 </r>
       <r>   -24.8350     0.0000     2.0000 </r>
       <r>   -24.7309     0.0000     2.0000 </r>
       <r>   -24.6268     0.0000     2.0000 </r>
       <r>   -24.5227     0.0000     2.0000 </r>
       <r>   -24.4186     0.0000     2.0000 </r>
       <r>   -24.3145     0.0000     2.0000 </r>
       <r>   -24.2104     0.0000     2.0000 </r>
       <r>   -24.1062     0.0000     2.0000 </r>
       <r>   -24.0021     0.0000     2.0000 </r>
       <r>   -23.8980     0.0000     2.0000 </r>
       <r>   -23.7939     0.0000     2.0000 </r>
       <r>   -23.6898     0.0000     2.0000 </r>
       <r>   -23.5857     0.0000     2.0000 </r>
       <r>   -23.4816     0.0000     2.0000 </r>
       <r>   -23.3775     0.0000     2.0000 </r>
       <r>   -23.2733     0.0000     2.0000 </r>
       <r>   -23.1692     0.0000     2.0000 </r>
       <r>   -23.0651     0.0000     2.0000 </r>
       <r>   -22.9610     0.0000     2.0000 </r>
       <r>   -22.8569     0.0000     2.0000 </r>
       <r>   -22.7528     0.0000     2.0000 </r>
       <r>   -22.6487     0.0000     2.0000 </r>
       <r>   -22.5446     0.0000     2.0000 </r>
       <r>   -22.4404     0.0000     2.0000 </r>
       <r>   -22.3363     0.0000     2.0000 </r>
       <r>   -22.2322     0.0000     2.0000 </r>
       <r>   -22.1281     0.0000     2.0000 </r>
       <r>   -22.0240     0.0000     2.0000 </r>
       <r>   -21.9199     0.0000     2.0000 </r>
       <r>   -21.8158     0.0000     2.0000 </r>
       <r>   -21.7117     0.0000     2.0000 </r>
       <r>   -21.6075     0.0000     2.0000 </r>
       <r>   -21.5034     0.0000     2.0000 </r>
       <r>   -21.3993     0.0000     2.0000 </r>
       <r>   -21.2952     0.0000     2.0000 </r>
       <r>   -21.1911     0.0000     2.0000 </r>
       <r>   -21.0870     0.0000     2.0000 </r>
       <r>   -20.9829     0.0000     2.0000 </r>
       <r>   -20.8788     0.0000     2.0000 </r>
       <r>   -20.7746     0.0000     2.0000 </r>
       <r>   -20.6705     0.0000     2.0000 </r>
       <r>   -20.5664     0.0000     2.0000 </r>
       <r>   -20.4623     0.0000     2.0000 </r>
       <r>   -20.3582     0.0000     2.0000 </r>
       <r>   -20.2541     0.0000     2.0000 </r>
       <r>   -20.1500     0.0000     2.0000 </r>
       <r>   -20.0459     0.0000     2.0000 </r>
       <r>   -19.9417     0.0000     2.0000 </r>
       <r>   -19.8376     0.0000     2.0000 </r>
       <r>   -19.7335     0.0000     2.0000 </r>
       <r>   -19.6294     0.0000     2.0000 </r>
       <r>   -19.5253     0.0000     2.0000 </r>
       <r>   -19.4212     0.0000     2.0000 </r>
       <r>   -19.3171     0.0000     2.0000 </r>
       <r>   -19.2130     0.0000     2.0000 </r>
       <r>   -19.1088     0.0000     2.0000 </r>
       <r>   -19.0047     0.0000     2.0000 </r>
       <r>   -18.9006     0.0000     2.0000 </r>
       <r>   -18.7965     0.0000     2.0000 </r>
       <r>   -18.6924     0.0000     2.0000 </r>
       <r>   -18.5883     0.0000     2.0000 </r>
       <r>   -18.4842     0.0000     2.0000 </r>
       <r>   -18.3801     0.0000     2.0000 </r>
       <r>   -18.2759     0.0000     2.0000 </r>
       <r>   -18.1718     0.0000     2.0000 </r>
       <r>   -18.0677     0.0000     2.0000 </r>
       <r>   -17.9636     0.0000     2.0000 </r>
       <r>   -17.8595     0.0000     2.0000 </r>
       <r>   -17.7554     0.0000     2.0000 </r>
       <r>   -17.6513     0.0000     2.0000 </r>
       <r>   -17.5472     0.0000     2.0000 </r>
       <r>   -17.4430     0.0000     2.0000 </r>
       <r>   -17.3389     0.0000     2.0000 </r>
       <r>   -17.2348     0.0000     2.0000 </r>
       <r>   -17.1307     0.0000     2.0000 </r>
       <r>   -17.0266     0.0000     2.0000 </r>
       <r>   -16.9225     0.0000     2.0000 </r>
       <r>   -16.8184     0.0000     2.0000 </r>
       <r>   -16.7143     0.0000     2.0000 </r>
       <r>   -16.6101     0.0000     2.0000 </r>
       <r>   -16.5060     0.0000     2.0000 </r>
       <r>   -16.4019     0.0000     2.0000 </r>
       <r>   -16.2978     0.0000     2.0000 </r>
       <r>   -16.1937     0.0000     2.0000 </r>
       <r>   -16.0896     0.0000     2.0000 </r>
       <r>   -15.9855     0.0000     2.0000 </r>
       <r>   -15.8814     0.0000     2.0000 </r>
       <r>   -15.7772     0.0000     2.0000 </r>
       <r>   -15.6731     0.0000     2.0000 </r>
       <r>   -15.5690     0.0000     2.0000 </r>
       <r>   -15.4649     0.0000     2.0000 </r>
       <r>   -15.3608     0.0000     2.0000 </r>
       <r>   -15.2567     0.0000     2.0000 </r>
       <r>   -15.1526     0.0000     2.0000 </r>
       <r>   -15.0485     0.0000     2.0000 </r>
       <r>   -14.9443     0.0000     2.0000 </r>
       <r>   -14.8402     0.0000     2.0000 </r>
       <r>   -14.7361    -0.0000     2.0000 </r>
       <r>   -14.6320    -0.0000     2.0000 </r>
       <r>   -14.5279    -0.0000     2.0000 </r>
       <r>   -14.4238    -0.0000     2.0000 </r>
       <r>   -14.3197    -0.0000     2.0000 </r>
       <r>   -14.2156    -0.0000     2.0000 </r>
       <r>   -14.1114    -0.0189     1.9980 </r>
       <r>   -14.0073    -0.5168     1.9442 </r>
       <r>   -13.9032     3.5420     2.3130 </r>
       <r>   -13.7991    14.5590     3.8288 </r>
       <r>   -13.6950     2.0624     4.0435 </r>
       <r>   -13.5909    -0.4076     4.0010 </r>
       <r>   -13.4868    -0.0101     4.0000 </r>
       <r>   -13.3827    -0.0000     4.0000 </r>
       <r>   -13.2785    -0.0000     4.0000 </r>
       <r>   -13.1744    -0.0000     4.0000 </r>
       <r>   -13.0703     0.0000     4.0000 </r>
       <r>   -12.9662     0.0000     4.0000 </r>
       <r>   -12.8621     0.0000     4.0000 </r>
       <r>   -12.7580     0.0000     4.0000 </r>
       <r>   -12.6539     0.0000     4.0000 </r>
       <r>   -12.5498     0.0000     4.0000 </r>
       <r>   -12.4456     0.0000     4.0000 </r>
       <r>   -12.3415     0.0000     4.0000 </r>
       <r>   -12.2374     0.0000     4.0000 </r>
       <r>   -12.1333    -0.0000     4.0000 </r>
       <r>   -12.0292    -0.0000     4.0000 </r>
       <r>   -11.9251    -0.0000     4.0000 </r>
       <r>   -11.8210    -0.0000     4.0000 </r>
       <r>   -11.7168    -0.0000     4.0000 </r>
       <r>   -11.6127    -0.0001     4.0000 </r>
       <r>   -11.5086    -0.0190     3.9980 </r>
       <r>   -11.4045    -0.5179     3.9441 </r>
       <r>   -11.3004     3.5587     4.3146 </r>
       <r>   -11.1963    14.5116     5.8255 </r>
       <r>   -11.0922     1.1802     5.9483 </r>
       <r>   -10.9881     6.0038     6.5734 </r>
       <r>   -10.8839    26.8724     9.3711 </r>
       <r>   -10.7798     6.9839    10.0983 </r>
       <r>   -10.6757    -0.8944    10.0051 </r>
       <r>   -10.5716    -0.0491    10.0000 </r>
       <r>   -10.4675    -0.0012     9.9999 </r>
       <r>   -10.3634    -0.1281     9.9866 </r>
       <r>   -10.2593    -0.3753     9.9475 </r>
       <r>   -10.1552    10.5944    11.0505 </r>
       <r>   -10.0510     9.7158    12.0620 </r>
       <r>    -9.9469    -0.4906    12.0109 </r>
       <r>    -9.8428    -0.1044    12.0001 </r>
       <r>    -9.7387    -0.0007    12.0000 </r>
       <r>    -9.6346    -0.0000    12.0000 </r>
       <r>    -9.5305    -0.0000    12.0000 </r>
       <r>    -9.4264    -0.0000    12.0000 </r>
       <r>    -9.3223    -0.0000    12.0000 </r>
       <r>    -9.2181    -0.0000    12.0000 </r>
       <r>    -9.1140    -0.0000    12.0000 </r>
       <r>    -9.0099    -0.0000    12.0000 </r>
       <r>    -8.9058    -0.0004    12.0000 </r>
       <r>    -8.8017    -0.0739    11.9923 </r>
       <r>    -8.6976    -0.5957    11.9302 </r>
       <r>    -8.5935     8.2627    12.7905 </r>
       <r>    -8.4894    11.8863    14.0280 </r>
       <r>    -8.3852    -0.2863    13.9982 </r>
       <r>    -8.2811    -0.1511    13.9825 </r>
       <r>    -8.1770    12.2653    15.2594 </r>
       <r>    -8.0729     7.7917    16.0707 </r>
       <r>    -7.9688    -0.6166    16.0065 </r>
       <r>    -7.8647    -0.3359    15.9715 </r>
       <r>    -7.7606     0.6110    16.0351 </r>
       <r>    -7.6565    12.8659    17.3746 </r>
       <r>    -7.5523    11.6029    18.5826 </r>
       <r>    -7.4482    19.0884    20.5700 </r>
       <r>    -7.3441    22.4444    22.9067 </r>
       <r>    -7.2400    26.2257    25.6371 </r>
       <r>    -7.1359    13.1777    27.0091 </r>
       <r>    -7.0318    25.5020    29.6642 </r>
       <r>    -6.9277    13.1309    31.0313 </r>
       <r>    -6.8236    15.8318    32.6796 </r>
       <r>    -6.7194    31.4551    35.9544 </r>
       <r>    -6.6153    44.1698    40.5531 </r>
       <r>    -6.5112    46.4499    45.3891 </r>
       <r>    -6.4071    46.8913    50.2711 </r>
       <r>    -6.3030    43.8867    54.8402 </r>
       <r>    -6.1989    51.9396    60.2478 </r>
       <r>    -6.0948    45.4182    64.9764 </r>
       <r>    -5.9907    28.4121    67.9344 </r>
       <r>    -5.8865    21.6326    70.1867 </r>
       <r>    -5.7824    32.0718    73.5257 </r>
       <r>    -5.6783    28.5262    76.4957 </r>
       <r>    -5.5742    50.0427    81.7058 </r>
       <r>    -5.4701    51.0802    87.0239 </r>
       <r>    -5.3660    63.4517    93.6300 </r>
       <r>    -5.2619    87.8781   102.7792 </r>
       <r>    -5.1578    85.9959   111.7324 </r>
       <r>    -5.0536    81.6224   120.2304 </r>
       <r>    -4.9495    70.5769   127.5783 </r>
       <r>    -4.8454    79.2414   135.8283 </r>
       <r>    -4.7413    70.8942   143.2093 </r>
       <r>    -4.6372    27.0529   146.0259 </r>
       <r>    -4.5331     4.8621   146.5321 </r>
       <r>    -4.4290    13.4450   147.9319 </r>
       <r>    -4.3249     0.7798   148.0130 </r>
       <r>    -4.2207    -1.1275   147.8957 </r>
       <r>    -4.1166    16.2594   149.5885 </r>
       <r>    -4.0125    22.9945   151.9825 </r>
       <r>    -3.9084     0.5830   152.0432 </r>
       <r>    -3.8043    -0.4083   152.0007 </r>
       <r>    -3.7002    -0.0065   152.0000 </r>
       <r>    -3.5961    -0.0103   151.9989 </r>
       <r>    -3.4920    -0.4123   151.9560 </r>
       <r>    -3.3878     2.1180   152.1765 </r>
       <r>    -3.2837    14.5715   153.6936 </r>
       <r>    -3.1796     3.3237   154.0396 </r>
       <r>    -3.0755    -0.8999   153.9459 </r>
       <r>    -2.9714    10.7966   155.0700 </r>
       <r>    -2.8673    19.5370   157.1040 </r>
       <r>    -2.7632     9.2757   158.0698 </r>
       <r>    -2.6591    -0.8893   157.9772 </r>
       <r>    -2.5549     1.0004   158.0813 </r>
       <r>    -2.4508    13.4786   159.4846 </r>
       <r>    -2.3467    10.2236   160.5490 </r>
       <r>    -2.2426    13.3169   161.9355 </r>
       <r>    -2.1385     0.7277   162.0112 </r>
       <r>    -2.0344    -0.3130   161.9786 </r>
       <r>    -1.9303    11.7873   163.2059 </r>
       <r>    -1.8262    15.6222   164.8323 </r>
       <r>    -1.7220    14.4113   166.3327 </r>
       <r>    -1.6179    14.3843   167.8303 </r>
       <r>    -1.5138     2.0230   168.0409 </r>
       <r>    -1.4097    -1.0417   167.9325 </r>
       <r>    -1.3056     5.9700   168.5540 </r>
       <r>    -1.2015    13.4967   169.9592 </r>
       <r>    -1.0974     0.0181   169.9611 </r>
       <r>    -0.9933     3.5680   170.3326 </r>
       <r>    -0.8891    21.1086   172.5302 </r>
       <r>    -0.7850    14.1165   173.9999 </r>
       <r>    -0.6809     0.6403   174.0666 </r>
       <r>    -0.5768    13.3364   175.4551 </r>
       <r>    -0.4727     5.5284   176.0307 </r>
       <r>    -0.3686    -0.1793   176.0120 </r>
       <r>    -0.2645    19.9685   178.0910 </r>
       <r>    -0.1604    18.2328   179.9892 </r>
       <r>    -0.0562    10.9561   181.1299 </r>
       <r>     0.0479     8.7003   182.0357 </r>
       <r>     0.1520    11.2300   183.2049 </r>
       <r>     0.2561     8.3039   184.0694 </r>
       <r>     0.3602    -0.5903   184.0080 </r>
       <r>     0.4643    -0.0763   184.0000 </r>
       <r>     0.5684    -0.0004   184.0000 </r>
       <r>     0.6725    -0.0000   184.0000 </r>
       <r>     0.7767    -0.0000   184.0000 </r>
       <r>     0.8808     0.0000   184.0000 </r>
       <r>     0.9849     0.0000   184.0000 </r>
       <r>     1.0890     0.0000   184.0000 </r>
       <r>     1.1931     0.0000   184.0000 </r>
       <r>     1.2972     0.0000   184.0000 </r>
       <r>     1.4013     0.0000   184.0000 </r>
       <r>     1.5054     0.0000   184.0000 </r>
       <r>     1.6096     0.0000   184.0000 </r>
      </set>
     </set>
    </array>
   </total>
  </dos>
 </calculation>
 <structure name="finalpos" >
  <crystal>
   <varray name="basis" >
    <v>      15.00000000       0.00000000       0.00000000 </v>
    <v>       0.00000000      15.00000000       0.00000000 </v>
    <v>       0.00000000       0.00000000      15.00000000 </v>
   </varray>
   <i name="volume">   3375.00000000 </i>
   <varray name="rec_basis" >
    <v>       0.06666667       0.00000000       0.00000000 </v>
    <v>       0.00000000       0.06666667       0.00000000 </v>
    <v>       0.00000000       0.00000000       0.06666667 </v>
   </varray>
  </crystal>
  <varray name="positions" >
   <v>       0.29028400       0.42075000       0.55524467 </v>
   <v>       0.37670867       0.54599800       0.49383133 </v>
   <v>       0.39413000       0.29217800       0.56409733 </v>
   <v>       0.53371800       0.50642533       0.47996400 </v>
   <v>       0.54821200       0.34583800       0.53205333 </v>
   <v>       0.44502467       0.43520867       0.61363933 </v>
   <v>       0.41523133       0.40116733       0.44612800 </v>
   <v>       0.22771600       0.56460200       0.54742133 </v>
   <v>       0.33402867       0.54684067       0.65771133 </v>
   <v>       0.35422733       0.68492000       0.56801133 </v>
   <v>       0.48423333       0.66566467       0.47266933 </v>
   <v>       0.62838200       0.48382667       0.60722733 </v>
   <v>       0.48460267       0.59287800       0.61544000 </v>
   <v>       0.74092667       0.49122600       0.64481000 </v>
   <v>       0.81786667       0.49697467       0.65675533 </v>
  </varray>
 </structure>
</modeling>
