<?xml version="1.0" encoding="ISO-8859-1"?>
<modeling>
 <generator>
  <i name="program" type="string">vasp </i>
  <i name="version" type="string">5.4.4.18Apr17-6-g9f103f2a35  </i>
  <i name="subversion" type="string">(build May 08 2019 13:49:07) complex            parallel </i>
  <i name="platform" type="string">LinuxIFC </i>
  <i name="date" type="string">2019 11 13 </i>
  <i name="time" type="string">13:33:39 </i>
 </generator>
 <incar>
  <i type="string" name="SYSTEM"> CuCO</i>
  <i type="int" name="ISTART">     0</i>
  <i type="string" name="PREC">accurate</i>
  <i type="string" name="ALGO"> Fast</i>
  <i type="int" name="ISPIN">     2</i>
  <i type="int" name="INIWAV">     1</i>
  <i type="int" name="NELM">   300</i>
  <i type="int" name="NELMIN">     3</i>
  <i type="int" name="IBRION">    -1</i>
  <i name="EDIFF">      0.00000010</i>
  <i name="EDIFFG">     -0.00100000</i>
  <i type="int" name="NSW">     0</i>
  <i type="int" name="ISYM">     0</i>
  <i name="ENCUT">    600.00000000</i>
  <i name="NUPDOWN">      1.00000000</i>
  <i type="logical" name="LREAL"> F  </i>
  <i type="int" name="ISMEAR">     1</i>
  <i name="SIGMA">      0.10000000</i>
  <i name="KSPACING">      0.50000000</i>
  <i type="logical" name="KGAMMA"> F  </i>
  <i type="logical" name="LWAVE"> F  </i>
  <i type="logical" name="LCHARG"> F  </i>
  <v type="int" name="KPOINT_BSE">    -1     0     0     0</v>
  <i type="int" name="NELM">   300</i>
  <i type="string" name="GGA"> PE</i>
 </incar>
 <structure name="primitive_cell" >
  <crystal>
   <varray name="basis" >
    <v>      15.00000000       0.00000000       0.00000000 </v>
    <v>       0.00000000      15.00000000       0.00000000 </v>
    <v>       0.00000000       0.00000000      15.00000000 </v>
   </varray>
   <i name="volume">   3375.00000000 </i>
   <varray name="rec_basis" >
    <v>       0.06666667       0.00000000       0.00000000 </v>
    <v>       0.00000000       0.06666667       0.00000000 </v>
    <v>       0.00000000       0.00000000       0.06666667 </v>
   </varray>
  </crystal>
  <varray name="positions" >
   <v>       0.29311467       0.41332867      -0.44396333 </v>
   <v>       0.38969600       0.29339600      -0.43798267 </v>
   <v>       0.37224467      -0.45418600       0.49465733 </v>
   <v>       0.44695667       0.43853667      -0.38338333 </v>
   <v>       0.22269600      -0.43443667      -0.44343000 </v>
   <v>       0.41902533       0.40043600       0.44453600 </v>
   <v>       0.33652267      -0.45624000      -0.34191867 </v>
   <v>      -0.45273133       0.34538667      -0.47191667 </v>
   <v>      -0.46443733      -0.49296867       0.48332000 </v>
   <v>       0.48753800      -0.40331600      -0.38775267 </v>
   <v>       0.35022267      -0.31818667      -0.43107133 </v>
   <v>       0.48549200      -0.34010267       0.47365733 </v>
   <v>      -0.36966733       0.49165400      -0.40625733 </v>
   <v>      -0.25636000       0.49808400      -0.35071200 </v>
   <v>      -0.18485333      -0.49628733      -0.32697333 </v>
  </varray>
 </structure>
 <varray name="primitive_index" >
  <v type="int" >        1 </v>
  <v type="int" >        3 </v>
  <v type="int" >        2 </v>
  <v type="int" >        6 </v>
  <v type="int" >        8 </v>
  <v type="int" >        7 </v>
  <v type="int" >        9 </v>
  <v type="int" >        5 </v>
  <v type="int" >        4 </v>
  <v type="int" >       13 </v>
  <v type="int" >       10 </v>
  <v type="int" >       11 </v>
  <v type="int" >       12 </v>
  <v type="int" >       14 </v>
  <v type="int" >       15 </v>
 </varray>
 <kpoints>
  <generation param="Monkhorst-Pack">
   <v type="int" name="divisions">       1        1        1 </v>
   <v name="usershift">      0.00000000       0.00000000       0.00000000 </v>
   <v name="genvec1">      1.00000000       0.00000000       0.00000000 </v>
   <v name="genvec2">      0.00000000       1.00000000       0.00000000 </v>
   <v name="genvec3">      0.00000000       0.00000000       1.00000000 </v>
   <v name="shift">      0.00000000       0.00000000       0.00000000 </v>
  </generation>
  <varray name="kpointlist" >
   <v>       0.00000000       0.00000000       0.00000000 </v>
  </varray>
  <varray name="weights" >
   <v>       1.00000000 </v>
  </varray>
 </kpoints>
 <parameters>
  <separator name="general" >
   <i type="string" name="SYSTEM">CuCO</i>
   <i type="logical" name="LCOMPAT"> F  </i>
  </separator>
  <separator name="electronic" >
   <i type="string" name="PREC">accura</i>
   <i name="ENMAX">    600.00000000</i>
   <i name="ENAUG">    644.87300000</i>
   <i name="EDIFF">      0.00000010</i>
   <i type="int" name="IALGO">    68</i>
   <i type="int" name="IWAVPR">    10</i>
   <i type="int" name="NBANDS">    92</i>
   <i name="NELECT">    153.00000000</i>
   <i type="int" name="TURBO">     0</i>
   <i type="int" name="IRESTART">     0</i>
   <i type="int" name="NREBOOT">     0</i>
   <i type="int" name="NMIN">     0</i>
   <i name="EREF">      0.00000000</i>
   <separator name="electronic smearing" >
    <i type="int" name="ISMEAR">     1</i>
    <i name="SIGMA">      0.10000000</i>
    <i name="KSPACING">      0.50000000</i>
    <i type="logical" name="KGAMMA"> F  </i>
   </separator>
   <separator name="electronic projectors" >
    <i type="logical" name="LREAL"> F  </i>
    <v name="ROPT">      0.00000000      0.00000000      0.00000000</v>
    <i type="int" name="LMAXPAW">  -100</i>
    <i type="int" name="LMAXMIX">     2</i>
    <i type="logical" name="NLSPLINE"> F  </i>
   </separator>
   <separator name="electronic startup" >
    <i type="int" name="ISTART">     0</i>
    <i type="int" name="ICHARG">     2</i>
    <i type="int" name="INIWAV">     1</i>
   </separator>
   <separator name="electronic spin" >
    <i type="int" name="ISPIN">     2</i>
    <i type="logical" name="LNONCOLLINEAR"> F  </i>
    <v name="MAGMOM">      0.06666667      0.06666667      0.06666667      0.06666667      0.06666667      0.06666667      0.06666667      0.06666667      0.06666667      0.06666667      0.06666667      0.06666667      0.06666667      0.06666667      0.06666667</v>
    <i name="NUPDOWN">      1.00000000</i>
    <i type="logical" name="LSORBIT"> F  </i>
    <v name="SAXIS">      0.00000000      0.00000000      1.00000000</v>
    <i type="logical" name="LSPIRAL"> F  </i>
    <v name="QSPIRAL">      0.00000000      0.00000000      0.00000000</v>
    <i type="logical" name="LZEROZ"> F  </i>
   </separator>
   <separator name="electronic exchange-correlation" >
    <i type="logical" name="LASPH"> F  </i>
    <i type="logical" name="LMETAGGA"> F  </i>
   </separator>
   <separator name="electronic convergence" >
    <i type="int" name="NELM">   300</i>
    <i type="int" name="NELMDL">    -5</i>
    <i type="int" name="NELMIN">     3</i>
    <i name="ENINI">    600.00000000</i>
    <separator name="electronic convergence detail" >
     <i type="logical" name="LDIAG"> T  </i>
     <i type="logical" name="LSUBROT"> F  </i>
     <i name="WEIMIN">      0.00000000</i>
     <i name="EBREAK">      0.00000000</i>
     <i name="DEPER">      0.30000000</i>
     <i type="int" name="NRMM">     4</i>
     <i name="TIME">      0.40000000</i>
    </separator>
   </separator>
   <separator name="electronic mixer" >
    <i name="AMIX">      0.40000000</i>
    <i name="BMIX">      1.00000000</i>
    <i name="AMIN">      0.10000000</i>
    <i name="AMIX_MAG">      1.60000000</i>
    <i name="BMIX_MAG">      1.00000000</i>
    <separator name="electronic mixer details" >
     <i type="int" name="IMIX">     4</i>
     <i type="logical" name="MIXFIRST"> F  </i>
     <i type="int" name="MAXMIX">   -45</i>
     <i name="WC">    100.00000000</i>
     <i type="int" name="INIMIX">     1</i>
     <i type="int" name="MIXPRE">     1</i>
     <i type="int" name="MREMOVE">     5</i>
    </separator>
   </separator>
   <separator name="electronic dipolcorrection" >
    <i type="logical" name="LDIPOL"> F  </i>
    <i type="logical" name="LMONO"> F  </i>
    <i type="int" name="IDIPOL">     0</i>
    <i name="EPSILON">      1.00000000</i>
    <v name="DIPOL">   -100.00000000   -100.00000000   -100.00000000</v>
    <i name="EFIELD">      0.00000000</i>
   </separator>
  </separator>
  <separator name="grids" >
   <i type="int" name="NGX">   120</i>
   <i type="int" name="NGY">   120</i>
   <i type="int" name="NGZ">   120</i>
   <i type="int" name="NGXF">   240</i>
   <i type="int" name="NGYF">   240</i>
   <i type="int" name="NGZF">   240</i>
   <i type="logical" name="ADDGRID"> F  </i>
  </separator>
  <separator name="ionic" >
   <i type="int" name="NSW">     0</i>
   <i type="int" name="IBRION">    -1</i>
   <i type="int" name="MDALGO">     0</i>
   <i type="int" name="ISIF">     2</i>
   <i name="PSTRESS">      0.00000000</i>
   <i name="EDIFFG">     -0.00100000</i>
   <i type="int" name="NFREE">     0</i>
   <i name="POTIM">      0.50000000</i>
   <i name="SMASS">     -3.00000000</i>
   <i name="SCALEE">      1.00000000</i>
  </separator>
  <separator name="ionic md" >
   <i name="TEBEG">      0.00010000</i>
   <i name="TEEND">      0.00010000</i>
   <i type="int" name="NBLOCK">     1</i>
   <i type="int" name="KBLOCK">     1</i>
   <i type="int" name="NPACO">   256</i>
   <i name="APACO">     16.00000000</i>
  </separator>
  <separator name="symmetry" >
   <i type="int" name="ISYM">     0</i>
   <i name="SYMPREC">      0.00001000</i>
  </separator>
  <separator name="dos" >
   <i type="int" name="LORBIT">     0</i>
   <v name="RWIGS">     -1.00000000     -1.00000000     -1.00000000</v>
   <i type="int" name="NEDOS">   301</i>
   <i name="EMIN">     10.00000000</i>
   <i name="EMAX">    -10.00000000</i>
   <i name="EFERMI">      0.00000000</i>
  </separator>
  <separator name="writing" >
   <i type="int" name="NWRITE">     2</i>
   <i type="logical" name="LWAVE"> F  </i>
   <i type="logical" name="LDOWNSAMPLE"> F  </i>
   <i type="logical" name="LCHARG"> F  </i>
   <i type="logical" name="LPARD"> F  </i>
   <i type="logical" name="LVTOT"> F  </i>
   <i type="logical" name="LVHAR"> F  </i>
   <i type="logical" name="LELF"> F  </i>
   <i type="logical" name="LOPTICS"> F  </i>
   <v name="STM">      0.00000000      0.00000000      0.00000000      0.00000000      0.00000000      0.00000000      0.00000000</v>
  </separator>
  <separator name="performance" >
   <i type="int" name="NPAR">     4</i>
   <i type="int" name="NSIM">     4</i>
   <i type="int" name="NBLK">    -1</i>
   <i type="logical" name="LPLANE"> T  </i>
   <i type="logical" name="LSCALAPACK"> T  </i>
   <i type="logical" name="LSCAAWARE"> F  </i>
   <i type="logical" name="LSCALU"> F  </i>
   <i type="logical" name="LASYNC"> F  </i>
   <i type="logical" name="LORBITALREAL"> F  </i>
  </separator>
  <separator name="miscellaneous" >
   <i type="int" name="IDIOT">     3</i>
   <i type="int" name="ISPECIAL">     0</i>
   <i type="logical" name="LMUSIC"> F  </i>
   <v name="POMASS">     63.54600000     12.01100000     16.00000000</v>
   <v name="DARWINR">      0.00000000      0.00000000      0.00000000</v>
   <v name="DARWINV">      1.00000000      1.00000000      1.00000000</v>
   <i type="logical" name="LCORR"> T  </i>
  </separator>
  <i type="logical" name="GGA_COMPAT"> T  </i>
  <i type="logical" name="LBERRY"> F  </i>
  <i type="int" name="ICORELEVEL">     0</i>
  <i type="logical" name="LDAU"> F  </i>
  <i type="int" name="I_CONSTRAINED_M">     0</i>
  <separator name="electronic exchange-correlation" >
   <i type="string" name="GGA">PE</i>
   <i type="int" name="VOSKOWN">     0</i>
   <i type="logical" name="LHFCALC"> F  </i>
   <i type="string" name="PRECFOCK"></i>
   <i type="logical" name="LSYMGRAD"> F  </i>
   <i type="logical" name="LHFONE"> F  </i>
   <i type="logical" name="LRHFCALC"> F  </i>
   <i type="logical" name="LTHOMAS"> F  </i>
   <i type="logical" name="LMODELHF"> F  </i>
   <i name="ENCUT4O">     -1.00000000</i>
   <i type="int" name="EXXOEP">     0</i>
   <i type="int" name="FOURORBIT">     0</i>
   <i name="AEXX">      0.00000000</i>
   <i name="HFALPHA">      0.00000000</i>
   <i name="MCALPHA">      0.00000000</i>
   <i name="ALDAX">      1.00000000</i>
   <i name="AGGAX">      1.00000000</i>
   <i name="ALDAC">      1.00000000</i>
   <i name="AGGAC">      1.00000000</i>
   <i type="int" name="NKREDX">     1</i>
   <i type="int" name="NKREDY">     1</i>
   <i type="int" name="NKREDZ">     1</i>
   <i type="logical" name="SHIFTRED"> F  </i>
   <i type="logical" name="ODDONLY"> F  </i>
   <i type="logical" name="EVENONLY"> F  </i>
   <i type="int" name="LMAXFOCK">     0</i>
   <i type="int" name="NMAXFOCKAE">     0</i>
   <i type="logical" name="LFOCKAEDFT"> F  </i>
   <i name="HFSCREEN">      0.00000000</i>
   <i name="HFSCREENC">      0.00000000</i>
   <i type="int" name="NBANDSGWLOW">     0</i>
  </separator>
  <separator name="vdW DFT" >
   <i type="logical" name="LUSE_VDW"> F  </i>
   <i name="Zab_VDW">     -0.84910000</i>
   <i name="PARAM1">      0.12340000</i>
   <i name="PARAM2">      1.00000000</i>
   <i name="PARAM3">      0.00000000</i>
  </separator>
  <separator name="model GW" >
   <i type="int" name="MODEL_GW">     0</i>
   <i name="MODEL_EPS0">    135.00000000</i>
   <i name="MODEL_ALPHA">      1.00000000</i>
  </separator>
  <separator name="linear response parameters" >
   <i type="logical" name="LEPSILON"> F  </i>
   <i type="logical" name="LRPA"> F  </i>
   <i type="logical" name="LNABLA"> F  </i>
   <i type="logical" name="LVEL"> F  </i>
   <i type="int" name="KINTER">     0</i>
   <i name="CSHIFT">      0.10000000</i>
   <i name="OMEGAMAX">     -1.00000000</i>
   <i name="DEG_THRESHOLD">      0.00200000</i>
   <i name="RTIME">     -0.10000000</i>
   <i name="WPLASMAI">      0.00000000</i>
   <v name="DFIELD">      0.00000000      0.00000000      0.00000000</v>
   <v name="WPLASMA">      0.00000000      0.00000000      0.00000000      0.00000000      0.00000000      0.00000000      0.00000000      0.00000000      0.00000000</v>
  </separator>
  <separator name="orbital magnetization" >
   <i type="logical" name="NUCIND"> F  </i>
   <v name="MAGPOS">      0.00000000      0.00000000      0.00000000</v>
   <i type="logical" name="LNICSALL"> T  </i>
   <i type="logical" name="ORBITALMAG"> F  </i>
   <i type="logical" name="LMAGBLOCH"> F  </i>
   <i type="logical" name="LCHIMAG"> F  </i>
   <i type="logical" name="LGAUGE"> T  </i>
   <i type="int" name="MAGATOM">     0</i>
   <v name="MAGDIPOL">      0.00000000      0.00000000      0.00000000</v>
   <v name="AVECCONST">      0.00000000      0.00000000      0.00000000</v>
  </separator>
  <separator name="response functions" >
   <i type="logical" name="LADDER"> F  </i>
   <i type="logical" name="LRPAFORCE"> F  </i>
   <i type="logical" name="LFXC"> F  </i>
   <i type="logical" name="LHARTREE"> T  </i>
   <i type="int" name="IBSE">     0</i>
   <v type="int" name="KPOINT">    -1     0     0     0</v>
   <i type="logical" name="LTCTE"> F  </i>
   <i type="logical" name="LTETE"> F  </i>
   <i type="logical" name="LTRIPLET"> F  </i>
   <i type="logical" name="LFXCEPS"> F  </i>
   <i type="logical" name="LFXHEG"> F  </i>
   <i type="int" name="NATURALO">     2</i>
   <i type="logical" name="L2ORDER"> F  </i>
   <i type="logical" name="LMP2LT"> F  </i>
   <i type="logical" name="LUSEW"> F  </i>
   <i name="ENCUTGW">     -2.00000000</i>
   <i name="ENCUTGWSOFT">     -2.00000000</i>
   <i name="ENCUTLF">     -1.00000000</i>
   <i type="int" name="LMAXMP2">    -1</i>
   <i name="SCISSOR">      0.00000000</i>
   <i type="int" name="NOMEGA">     0</i>
   <i type="int" name="NOMEGAR">     0</i>
   <i type="int" name="NBANDSGW">    -1</i>
   <i type="int" name="NBANDSO">    -1</i>
   <i type="int" name="NBANDSV">    -1</i>
   <i type="int" name="NELM">   300</i>
   <i type="int" name="NELMHF">     1</i>
   <i type="int" name="DIM">     3</i>
   <i type="int" name="ANTIRES">     0</i>
   <i name="OMEGAMAX">    -30.00000000</i>
   <i name="OMEGAMIN">    -30.00000000</i>
   <i name="OMEGATL">   -200.00000000</i>
   <i type="int" name="OMEGAGRID">   140</i>
   <i name="CSHIFT">     -0.10000000</i>
   <i type="logical" name="SELFENERGY"> F  </i>
   <i type="logical" name="LSPECTRAL"> F  </i>
   <i type="logical" name="LSPECTRALGW"> F  </i>
   <i type="logical" name="LSINGLES"> F  </i>
   <i type="logical" name="LFERMIGW"> F  </i>
   <i type="logical" name="ODDONLYGW"> F  </i>
   <i type="logical" name="EVENONLYGW"> F  </i>
   <i type="int" name="NKREDLFX">     1</i>
   <i type="int" name="NKREDLFY">     1</i>
   <i type="int" name="NKREDLFZ">     1</i>
   <i type="int" name="MAXMEM">  2800</i>
   <i type="int" name="TELESCOPE">     0</i>
   <i type="int" name="TAUPAR">     1</i>
   <i type="int" name="OMEGAPAR">    -1</i>
   <i name="LAMBDA">      1.00000000</i>
  </separator>
  <separator name="External order field" >
   <i name="OFIELD_KAPPA">      0.00000000</i>
   <v name="OFIELD_K">      0.00000000      0.00000000      0.00000000</v>
   <i name="OFIELD_Q6_NEAR">      0.00000000</i>
   <i name="OFIELD_Q6_FAR">      0.00000000</i>
   <i name="OFIELD_A">      0.00000000</i>
  </separator>
 </parameters>
 <atominfo>
  <atoms>      15 </atoms>
  <types>       3 </types>
  <array name="atoms" >
   <dimension dim="1">ion</dimension>
   <field type="string">element</field>
   <field type="int">atomtype</field>
   <set>
    <rc><c>Cu</c><c>   1</c></rc>
    <rc><c>Cu</c><c>   1</c></rc>
    <rc><c>Cu</c><c>   1</c></rc>
    <rc><c>Cu</c><c>   1</c></rc>
    <rc><c>Cu</c><c>   1</c></rc>
    <rc><c>Cu</c><c>   1</c></rc>
    <rc><c>Cu</c><c>   1</c></rc>
    <rc><c>Cu</c><c>   1</c></rc>
    <rc><c>Cu</c><c>   1</c></rc>
    <rc><c>Cu</c><c>   1</c></rc>
    <rc><c>Cu</c><c>   1</c></rc>
    <rc><c>Cu</c><c>   1</c></rc>
    <rc><c>Cu</c><c>   1</c></rc>
    <rc><c>C </c><c>   2</c></rc>
    <rc><c>O </c><c>   3</c></rc>
   </set>
  </array>
  <array name="atomtypes" >
   <dimension dim="1">type</dimension>
   <field type="int">atomspertype</field>
   <field type="string">element</field>
   <field>mass</field>
   <field>valence</field>
   <field type="string">pseudopotential</field>
   <set>
    <rc><c>  13</c><c>Cu</c><c>     63.54600000</c><c>     11.00000000</c><c>  PAW_PBE Cu 22Jun2005                  </c></rc>
    <rc><c>   1</c><c>C </c><c>     12.01100000</c><c>      4.00000000</c><c>  PAW_PBE C 08Apr2002                   </c></rc>
    <rc><c>   1</c><c>O </c><c>     16.00000000</c><c>      6.00000000</c><c>  PAW_PBE O 08Apr2002                   </c></rc>
   </set>
  </array>
 </atominfo>
 <structure name="initialpos" >
  <crystal>
   <varray name="basis" >
    <v>      15.00000000       0.00000000       0.00000000 </v>
    <v>       0.00000000      15.00000000       0.00000000 </v>
    <v>       0.00000000       0.00000000      15.00000000 </v>
   </varray>
   <i name="volume">   3375.00000000 </i>
   <varray name="rec_basis" >
    <v>       0.06666667       0.00000000       0.00000000 </v>
    <v>       0.00000000       0.06666667       0.00000000 </v>
    <v>       0.00000000       0.00000000       0.06666667 </v>
   </varray>
  </crystal>
  <varray name="positions" >
   <v>       0.29311467       0.41332867       0.55603667 </v>
   <v>       0.37224467       0.54581400       0.49465733 </v>
   <v>       0.38969600       0.29339600       0.56201733 </v>
   <v>       0.53556267       0.50703133       0.48332000 </v>
   <v>       0.54726867       0.34538667       0.52808333 </v>
   <v>       0.44695667       0.43853667       0.61661667 </v>
   <v>       0.41902533       0.40043600       0.44453600 </v>
   <v>       0.22269600       0.56556333       0.55657000 </v>
   <v>       0.33652267       0.54376000       0.65808133 </v>
   <v>       0.35022267       0.68181333       0.56892867 </v>
   <v>       0.48549200       0.65989733       0.47365733 </v>
   <v>       0.63033267       0.49165400       0.59374267 </v>
   <v>       0.48753800       0.59668400       0.61224733 </v>
   <v>       0.74364000       0.49808400       0.64928800 </v>
   <v>       0.81514667       0.50371267       0.67302667 </v>
  </varray>
 </structure>
 <calculation>
  <scstep>
   <time name="dav">    7.50    7.50</time>
   <time name="total">    8.69    8.70</time>
   <energy>
    <i name="alphaZ">     41.16232785 </i>
    <i name="ewald">  16345.66377702 </i>
    <i name="hartreedc"> -33364.75653130 </i>
    <i name="XCdc">    623.55927348 </i>
    <i name="pawpsdc">  16421.75059358 </i>
    <i name="pawaedc"> -17800.06104309 </i>
    <i name="eentropy">      0.00641908 </i>
    <i name="bandstr">    190.38329540 </i>
    <i name="atom">  18662.21924712 </i>
    <i name="e_fr_energy">   1119.92735913 </i>
    <i name="e_wo_entrp">   1119.92094005 </i>
    <i name="e_0_energy">   1119.92521943 </i>
   </energy>
  </scstep>
  <scstep>
   <time name="dav">    7.41    7.41</time>
   <time name="total">    7.41    7.41</time>
   <energy>
    <i name="e_fr_energy">     88.90158380 </i>
    <i name="e_wo_entrp">     88.89519901 </i>
    <i name="e_0_energy">     88.89945554 </i>
   </energy>
  </scstep>
  <scstep>
   <time name="dav">   11.75   11.76</time>
   <time name="total">   11.75   11.76</time>
   <energy>
    <i name="e_fr_energy">    -34.14707732 </i>
    <i name="e_wo_entrp">    -34.15640757 </i>
    <i name="e_0_energy">    -34.15018741 </i>
   </energy>
  </scstep>
  <scstep>
   <time name="dav">   10.14   10.15</time>
   <time name="total">   10.14   10.15</time>
   <energy>
    <i name="e_fr_energy">    -55.57674690 </i>
    <i name="e_wo_entrp">    -55.58612612 </i>
    <i name="e_0_energy">    -55.57987331 </i>
   </energy>
  </scstep>
  <scstep>
   <time name="dav">   12.07   12.08</time>
   <time name="total">   12.78   12.79</time>
   <energy>
    <i name="e_fr_energy">    -56.94254654 </i>
    <i name="e_wo_entrp">    -56.95256053 </i>
    <i name="e_0_energy">    -56.94588454 </i>
   </energy>
  </scstep>
  <scstep>
   <time name="diag">    1.10    1.10</time>
   <time name="diis">    7.10    7.10</time>
   <time name="orth">    0.06    0.06</time>
   <time name="total">   10.12   10.12</time>
   <energy>
    <i name="e_fr_energy">    -55.38714766 </i>
    <i name="e_wo_entrp">    -55.39357403 </i>
    <i name="e_0_energy">    -55.38928978 </i>
   </energy>
  </scstep>
  <scstep>
   <time name="diag">    1.10    1.10</time>
   <time name="diis">    6.49    6.50</time>
   <time name="orth">    0.06    0.06</time>
   <time name="total">    9.49    9.50</time>
   <energy>
    <i name="e_fr_energy">    -49.02656966 </i>
    <i name="e_wo_entrp">    -49.03490043 </i>
    <i name="e_0_energy">    -49.02934659 </i>
   </energy>
  </scstep>
  <scstep>
   <time name="diag">    1.09    1.10</time>
   <time name="diis">    7.36    7.36</time>
   <time name="orth">    0.06    0.06</time>
   <time name="total">   10.40   10.41</time>
   <energy>
    <i name="e_fr_energy">    -48.82713672 </i>
    <i name="e_wo_entrp">    -48.83626773 </i>
    <i name="e_0_energy">    -48.83018039 </i>
   </energy>
  </scstep>
  <scstep>
   <time name="diag">    1.09    1.09</time>
   <time name="diis">    6.92    6.93</time>
   <time name="orth">    0.06    0.06</time>
   <time name="total">    9.93    9.94</time>
   <energy>
    <i name="e_fr_energy">    -48.77837418 </i>
    <i name="e_wo_entrp">    -48.78728436 </i>
    <i name="e_0_energy">    -48.78134424 </i>
   </energy>
  </scstep>
  <scstep>
   <time name="diag">    1.09    1.09</time>
   <time name="diis">    7.20    7.20</time>
   <time name="orth">    0.06    0.06</time>
   <time name="total">   10.20   10.21</time>
   <energy>
    <i name="e_fr_energy">    -48.72454277 </i>
    <i name="e_wo_entrp">    -48.73341901 </i>
    <i name="e_0_energy">    -48.72750152 </i>
   </energy>
  </scstep>
  <scstep>
   <time name="diag">    1.09    1.09</time>
   <time name="diis">    7.14    7.15</time>
   <time name="orth">    0.06    0.06</time>
   <time name="total">   10.14   10.15</time>
   <energy>
    <i name="e_fr_energy">    -48.71276645 </i>
    <i name="e_wo_entrp">    -48.72167678 </i>
    <i name="e_0_energy">    -48.71573656 </i>
   </energy>
  </scstep>
  <scstep>
   <time name="diag">    1.09    1.09</time>
   <time name="diis">    7.07    7.08</time>
   <time name="orth">    0.06    0.06</time>
   <time name="total">   10.07   10.08</time>
   <energy>
    <i name="e_fr_energy">    -48.71120883 </i>
    <i name="e_wo_entrp">    -48.72004912 </i>
    <i name="e_0_energy">    -48.71415559 </i>
   </energy>
  </scstep>
  <scstep>
   <time name="diag">    1.09    1.09</time>
   <time name="diis">    7.84    7.84</time>
   <time name="orth">    0.06    0.06</time>
   <time name="total">   10.84   10.84</time>
   <energy>
    <i name="e_fr_energy">    -48.71034535 </i>
    <i name="e_wo_entrp">    -48.71916326 </i>
    <i name="e_0_energy">    -48.71328465 </i>
   </energy>
  </scstep>
  <scstep>
   <time name="diag">    1.08    1.08</time>
   <time name="diis">    6.47    6.48</time>
   <time name="orth">    0.06    0.06</time>
   <time name="total">    9.47    9.47</time>
   <energy>
    <i name="e_fr_energy">    -48.71183158 </i>
    <i name="e_wo_entrp">    -48.72064670 </i>
    <i name="e_0_energy">    -48.71476996 </i>
   </energy>
  </scstep>
  <scstep>
   <time name="diag">    1.08    1.08</time>
   <time name="diis">    6.84    6.84</time>
   <time name="orth">    0.06    0.06</time>
   <time name="total">    9.83    9.84</time>
   <energy>
    <i name="e_fr_energy">    -48.71300257 </i>
    <i name="e_wo_entrp">    -48.72180699 </i>
    <i name="e_0_energy">    -48.71593738 </i>
   </energy>
  </scstep>
  <scstep>
   <time name="diag">    1.08    1.08</time>
   <time name="diis">    6.99    7.00</time>
   <time name="orth">    0.06    0.06</time>
   <time name="total">    9.99    9.99</time>
   <energy>
    <i name="e_fr_energy">    -48.71494878 </i>
    <i name="e_wo_entrp">    -48.72376744 </i>
    <i name="e_0_energy">    -48.71788833 </i>
   </energy>
  </scstep>
  <scstep>
   <time name="diag">    1.09    1.09</time>
   <time name="diis">    6.90    6.91</time>
   <time name="orth">    0.06    0.06</time>
   <time name="total">    9.91    9.91</time>
   <energy>
    <i name="e_fr_energy">    -48.71647815 </i>
    <i name="e_wo_entrp">    -48.72530699 </i>
    <i name="e_0_energy">    -48.71942110 </i>
   </energy>
  </scstep>
  <scstep>
   <time name="diag">    1.09    1.09</time>
   <time name="diis">    6.89    6.90</time>
   <time name="orth">    0.06    0.06</time>
   <time name="total">    9.90    9.90</time>
   <energy>
    <i name="e_fr_energy">    -48.71732842 </i>
    <i name="e_wo_entrp">    -48.72614965 </i>
    <i name="e_0_energy">    -48.72026883 </i>
   </energy>
  </scstep>
  <scstep>
   <time name="diag">    1.09    1.09</time>
   <time name="diis">    6.75    6.75</time>
   <time name="orth">    0.06    0.06</time>
   <time name="total">    9.76    9.76</time>
   <energy>
    <i name="e_fr_energy">    -48.71819885 </i>
    <i name="e_wo_entrp">    -48.72702047 </i>
    <i name="e_0_energy">    -48.72113939 </i>
   </energy>
  </scstep>
  <scstep>
   <time name="diag">    1.09    1.09</time>
   <time name="diis">    6.73    6.73</time>
   <time name="orth">    0.06    0.06</time>
   <time name="total">    9.74    9.75</time>
   <energy>
    <i name="e_fr_energy">    -48.71860140 </i>
    <i name="e_wo_entrp">    -48.72741943 </i>
    <i name="e_0_energy">    -48.72154075 </i>
   </energy>
  </scstep>
  <scstep>
   <time name="diag">    1.09    1.09</time>
   <time name="diis">    6.65    6.65</time>
   <time name="orth">    0.06    0.06</time>
   <time name="total">    9.66    9.66</time>
   <energy>
    <i name="e_fr_energy">    -48.71899939 </i>
    <i name="e_wo_entrp">    -48.72781657 </i>
    <i name="e_0_energy">    -48.72193845 </i>
   </energy>
  </scstep>
  <scstep>
   <time name="diag">    1.09    1.09</time>
   <time name="diis">    6.73    6.73</time>
   <time name="orth">    0.06    0.06</time>
   <time name="total">    9.74    9.74</time>
   <energy>
    <i name="e_fr_energy">    -48.71921913 </i>
    <i name="e_wo_entrp">    -48.72803804 </i>
    <i name="e_0_energy">    -48.72215876 </i>
   </energy>
  </scstep>
  <scstep>
   <time name="diag">    1.09    1.09</time>
   <time name="diis">    6.66    6.66</time>
   <time name="orth">    0.06    0.06</time>
   <time name="total">    9.68    9.68</time>
   <energy>
    <i name="e_fr_energy">    -48.71935657 </i>
    <i name="e_wo_entrp">    -48.72817605 </i>
    <i name="e_0_energy">    -48.72229640 </i>
   </energy>
  </scstep>
  <scstep>
   <time name="diag">    1.09    1.09</time>
   <time name="diis">    6.40    6.40</time>
   <time name="orth">    0.06    0.06</time>
   <time name="total">    9.41    9.42</time>
   <energy>
    <i name="e_fr_energy">    -48.71945907 </i>
    <i name="e_wo_entrp">    -48.72827820 </i>
    <i name="e_0_energy">    -48.72239878 </i>
   </energy>
  </scstep>
  <scstep>
   <time name="diag">    1.09    1.09</time>
   <time name="diis">    6.52    6.54</time>
   <time name="orth">    0.06    0.06</time>
   <time name="total">    9.54    9.56</time>
   <energy>
    <i name="e_fr_energy">    -48.71952694 </i>
    <i name="e_wo_entrp">    -48.72834649 </i>
    <i name="e_0_energy">    -48.72246679 </i>
   </energy>
  </scstep>
  <scstep>
   <time name="diag">    1.09    1.09</time>
   <time name="diis">    5.74    5.74</time>
   <time name="orth">    0.06    0.06</time>
   <time name="total">    8.76    8.76</time>
   <energy>
    <i name="e_fr_energy">    -48.71955523 </i>
    <i name="e_wo_entrp">    -48.72837491 </i>
    <i name="e_0_energy">    -48.72249512 </i>
   </energy>
  </scstep>
  <scstep>
   <time name="diag">    1.09    1.09</time>
   <time name="diis">    4.91    4.91</time>
   <time name="orth">    0.06    0.06</time>
   <time name="total">    7.93    7.93</time>
   <energy>
    <i name="e_fr_energy">    -48.71956371 </i>
    <i name="e_wo_entrp">    -48.72838310 </i>
    <i name="e_0_energy">    -48.72250351 </i>
   </energy>
  </scstep>
  <scstep>
   <time name="diag">    1.08    1.09</time>
   <time name="diis">    4.46    4.46</time>
   <time name="orth">    0.06    0.06</time>
   <time name="total">    7.48    7.49</time>
   <energy>
    <i name="e_fr_energy">    -48.71956854 </i>
    <i name="e_wo_entrp">    -48.72838796 </i>
    <i name="e_0_energy">    -48.72250835 </i>
   </energy>
  </scstep>
  <scstep>
   <time name="diag">    1.09    1.09</time>
   <time name="diis">    4.42    4.42</time>
   <time name="orth">    0.06    0.06</time>
   <time name="total">    7.46    7.46</time>
   <energy>
    <i name="e_fr_energy">    -48.71957205 </i>
    <i name="e_wo_entrp">    -48.72839139 </i>
    <i name="e_0_energy">    -48.72251183 </i>
   </energy>
  </scstep>
  <scstep>
   <time name="diag">    1.09    1.09</time>
   <time name="diis">    4.47    4.48</time>
   <time name="orth">    0.06    0.06</time>
   <time name="total">    7.52    7.53</time>
   <energy>
    <i name="e_fr_energy">    -48.71957351 </i>
    <i name="e_wo_entrp">    -48.72839286 </i>
    <i name="e_0_energy">    -48.72251330 </i>
   </energy>
  </scstep>
  <scstep>
   <time name="diag">    1.09    1.09</time>
   <time name="diis">    4.41    4.41</time>
   <time name="orth">    0.06    0.06</time>
   <time name="total">    7.46    7.46</time>
   <energy>
    <i name="e_fr_energy">    -48.71957421 </i>
    <i name="e_wo_entrp">    -48.72839361 </i>
    <i name="e_0_energy">    -48.72251401 </i>
   </energy>
  </scstep>
  <scstep>
   <time name="diag">    1.09    1.10</time>
   <time name="diis">    4.24    4.24</time>
   <time name="orth">    0.06    0.06</time>
   <time name="total">    7.31    7.31</time>
   <energy>
    <i name="e_fr_energy">    -48.71957484 </i>
    <i name="e_wo_entrp">    -48.72839420 </i>
    <i name="e_0_energy">    -48.72251462 </i>
   </energy>
  </scstep>
  <scstep>
   <time name="diag">    1.09    1.09</time>
   <time name="diis">    4.26    4.26</time>
   <time name="orth">    0.06    0.06</time>
   <time name="total">    7.33    7.33</time>
   <energy>
    <i name="e_fr_energy">    -48.71957543 </i>
    <i name="e_wo_entrp">    -48.72839479 </i>
    <i name="e_0_energy">    -48.72251522 </i>
   </energy>
  </scstep>
  <scstep>
   <time name="diag">    1.09    1.09</time>
   <time name="diis">    3.84    3.84</time>
   <time name="orth">    0.06    0.06</time>
   <time name="total">    6.92    6.92</time>
   <energy>
    <i name="e_fr_energy">    -48.71957580 </i>
    <i name="e_wo_entrp">    -48.72839517 </i>
    <i name="e_0_energy">    -48.72251559 </i>
   </energy>
  </scstep>
  <scstep>
   <time name="diag">    1.10    1.10</time>
   <time name="diis">    3.82    3.82</time>
   <time name="orth">    0.06    0.06</time>
   <time name="total">    6.91    6.91</time>
   <energy>
    <i name="e_fr_energy">    -48.71957603 </i>
    <i name="e_wo_entrp">    -48.72839540 </i>
    <i name="e_0_energy">    -48.72251582 </i>
   </energy>
  </scstep>
  <scstep>
   <time name="diag">    1.09    1.09</time>
   <time name="diis">    3.63    3.63</time>
   <time name="orth">    0.06    0.06</time>
   <time name="total">    6.72    6.73</time>
   <energy>
    <i name="e_fr_energy">    -48.71957620 </i>
    <i name="e_wo_entrp">    -48.72839557 </i>
    <i name="e_0_energy">    -48.72251599 </i>
   </energy>
  </scstep>
  <scstep>
   <time name="diag">    1.10    1.10</time>
   <time name="diis">    3.51    3.51</time>
   <time name="orth">    0.06    0.06</time>
   <time name="total">    5.85    5.85</time>
   <energy>
    <i name="alphaZ">     41.16232785 </i>
    <i name="ewald">  16345.66377702 </i>
    <i name="hartreedc"> -33326.73635850 </i>
    <i name="XCdc">    615.63113074 </i>
    <i name="pawpsdc">  17687.05246561 </i>
    <i name="pawaedc"> -19085.88708875 </i>
    <i name="eentropy">      0.00881937 </i>
    <i name="bandstr">   -987.83389674 </i>
    <i name="atom">  18662.21924712 </i>
    <i name="e_fr_energy">    -48.71957629 </i>
    <i name="e_wo_entrp">    -48.72839566 </i>
    <i name="e_0_energy">    -48.72251608 </i>
   </energy>
  </scstep>
  <structure>
   <crystal>
    <varray name="basis" >
     <v>      15.00000000       0.00000000       0.00000000 </v>
     <v>       0.00000000      15.00000000       0.00000000 </v>
     <v>       0.00000000       0.00000000      15.00000000 </v>
    </varray>
    <i name="volume">   3375.00000000 </i>
    <varray name="rec_basis" >
     <v>       0.06666667       0.00000000       0.00000000 </v>
     <v>       0.00000000       0.06666667       0.00000000 </v>
     <v>       0.00000000       0.00000000       0.06666667 </v>
    </varray>
   </crystal>
   <varray name="positions" >
    <v>       0.29311467       0.41332867       0.55603667 </v>
    <v>       0.37224467       0.54581400       0.49465733 </v>
    <v>       0.38969600       0.29339600       0.56201733 </v>
    <v>       0.53556267       0.50703133       0.48332000 </v>
    <v>       0.54726867       0.34538667       0.52808333 </v>
    <v>       0.44695667       0.43853667       0.61661667 </v>
    <v>       0.41902533       0.40043600       0.44453600 </v>
    <v>       0.22269600       0.56556333       0.55657000 </v>
    <v>       0.33652267       0.54376000       0.65808133 </v>
    <v>       0.35022267       0.68181333       0.56892867 </v>
    <v>       0.48549200       0.65989733       0.47365733 </v>
    <v>       0.63033267       0.49165400       0.59374267 </v>
    <v>       0.48753800       0.59668400       0.61224733 </v>
    <v>       0.74364000       0.49808400       0.64928800 </v>
    <v>       0.81514667       0.50371267       0.67302667 </v>
   </varray>
  </structure>
  <varray name="forces" >
   <v>      -0.22581959       0.67915885       0.03459911 </v>
   <v>      -0.03291685      -0.14499676      -0.08580514 </v>
   <v>       0.52491356      -0.31507455       0.05032743 </v>
   <v>      -0.82774056      -0.15604986      -0.80673412 </v>
   <v>      -0.01159703       0.37378355       0.07258227 </v>
   <v>       0.47699836      -0.33142369      -0.49046186 </v>
   <v>      -0.04914119      -0.07886804       0.37101959 </v>
   <v>      -0.06254644       0.08153853      -0.22670324 </v>
   <v>       0.20117919       0.09042981       0.02641589 </v>
   <v>      -0.08126502       0.09495503       0.09145119 </v>
   <v>      -0.08700324       0.39835635      -0.33458695 </v>
   <v>       0.86695143      -0.29817542       1.11998252 </v>
   <v>      -0.01587731      -0.35928252       0.42271465 </v>
   <v>      -2.82480717      -0.21507572      -0.90350046 </v>
   <v>       2.14867186       0.18072445       0.65869912 </v>
  </varray>
  <varray name="stress" >
   <v>       0.25094969      -0.98550530       1.04175566 </v>
   <v>      -0.98550531       0.13393764      -0.39765301 </v>
   <v>       1.04175566      -0.39765302       0.52439833 </v>
  </varray>
  <energy>
   <i name="e_fr_energy">    -48.71957629 </i>
   <i name="e_wo_entrp">    -48.72251608 </i>
   <i name="e_0_energy">      0.00881937 </i>
  </energy>
  <time name="totalsc">  347.17  347.39</time>
  <eigenvalues>
   <array>
    <dimension dim="1">band</dimension>
    <dimension dim="2">kpoint</dimension>
    <dimension dim="3">spin</dimension>
    <field>eigene</field>
    <field>occ</field>
    <set>
     <set comment="spin 1">
      <set comment="kpoint 1">
       <r>  -29.0670    1.0000 </r>
       <r>  -13.9245    1.0000 </r>
       <r>  -11.5813    1.0000 </r>
       <r>  -11.5455    1.0000 </r>
       <r>  -11.1620    1.0000 </r>
       <r>  -10.1206    1.0000 </r>
       <r>   -8.5346    1.0000 </r>
       <r>   -8.2397    1.0000 </r>
       <r>   -7.6670    1.0000 </r>
       <r>   -7.4755    1.0000 </r>
       <r>   -7.3862    1.0000 </r>
       <r>   -7.2985    1.0000 </r>
       <r>   -7.2750    1.0000 </r>
       <r>   -7.1135    1.0000 </r>
       <r>   -7.0314    1.0000 </r>
       <r>   -6.9554    1.0000 </r>
       <r>   -6.7809    1.0000 </r>
       <r>   -6.7136    1.0000 </r>
       <r>   -6.6179    1.0000 </r>
       <r>   -6.5716    1.0000 </r>
       <r>   -6.5393    1.0000 </r>
       <r>   -6.5020    1.0000 </r>
       <r>   -6.4653    1.0000 </r>
       <r>   -6.4249    1.0000 </r>
       <r>   -6.3563    1.0000 </r>
       <r>   -6.3320    1.0000 </r>
       <r>   -6.3167    1.0000 </r>
       <r>   -6.2523    1.0000 </r>
       <r>   -6.2198    1.0000 </r>
       <r>   -6.1884    1.0000 </r>
       <r>   -6.1358    1.0000 </r>
       <r>   -6.1035    1.0000 </r>
       <r>   -6.0510    1.0000 </r>
       <r>   -5.9922    1.0000 </r>
       <r>   -5.9674    1.0000 </r>
       <r>   -5.8120    1.0000 </r>
       <r>   -5.7793    1.0000 </r>
       <r>   -5.6812    1.0000 </r>
       <r>   -5.6609    1.0000 </r>
       <r>   -5.5899    1.0000 </r>
       <r>   -5.5453    1.0000 </r>
       <r>   -5.5156    1.0000 </r>
       <r>   -5.4701    1.0000 </r>
       <r>   -5.4446    1.0000 </r>
       <r>   -5.4211    1.0000 </r>
       <r>   -5.4047    1.0000 </r>
       <r>   -5.3708    1.0000 </r>
       <r>   -5.3315    1.0000 </r>
       <r>   -5.3263    1.0000 </r>
       <r>   -5.3215    1.0000 </r>
       <r>   -5.3017    1.0000 </r>
       <r>   -5.2322    1.0000 </r>
       <r>   -5.2100    1.0000 </r>
       <r>   -5.1935    1.0000 </r>
       <r>   -5.1816    1.0000 </r>
       <r>   -5.1476    1.0000 </r>
       <r>   -5.1181    1.0000 </r>
       <r>   -5.1103    1.0000 </r>
       <r>   -5.0844    1.0000 </r>
       <r>   -5.0392    1.0000 </r>
       <r>   -5.0235    1.0000 </r>
       <r>   -4.9920    1.0000 </r>
       <r>   -4.9822    1.0000 </r>
       <r>   -4.9603    1.0000 </r>
       <r>   -4.9030    1.0000 </r>
       <r>   -4.8786    1.0000 </r>
       <r>   -4.8609    1.0000 </r>
       <r>   -4.8415    1.0000 </r>
       <r>   -4.8313    1.0000 </r>
       <r>   -4.7984    1.0000 </r>
       <r>   -4.7921    1.0000 </r>
       <r>   -4.7566    1.0000 </r>
       <r>   -4.6917    1.0000 </r>
       <r>   -4.4725    1.0000 </r>
       <r>   -4.1687    1.0000 </r>
       <r>   -4.0752    1.0000 </r>
       <r>   -3.5927    1.0000 </r>
       <r>   -2.9412   -0.0000 </r>
       <r>   -2.8524   -0.0000 </r>
       <r>   -2.4696   -0.0000 </r>
       <r>   -2.3192   -0.0000 </r>
       <r>   -1.9511   -0.0000 </r>
       <r>   -1.8403   -0.0000 </r>
       <r>   -1.6760   -0.0000 </r>
       <r>   -1.4641   -0.0000 </r>
       <r>   -1.1252   -0.0000 </r>
       <r>   -0.8754   -0.0000 </r>
       <r>   -0.6196    0.0000 </r>
       <r>   -0.3753    0.0000 </r>
       <r>   -0.1823    0.0000 </r>
       <r>    0.1336    0.0000 </r>
       <r>    0.1617    0.0000 </r>
      </set>
     </set>
     <set comment="spin 2">
      <set comment="kpoint 1">
       <r>  -29.0500    1.0000 </r>
       <r>  -13.8929    1.0000 </r>
       <r>  -11.5468    1.0000 </r>
       <r>  -11.5254    1.0000 </r>
       <r>  -11.1161    1.0000 </r>
       <r>  -10.0754    1.0000 </r>
       <r>   -8.5141    1.0000 </r>
       <r>   -8.1917    1.0000 </r>
       <r>   -7.6217    1.0000 </r>
       <r>   -7.4514    1.0000 </r>
       <r>   -7.3576    1.0000 </r>
       <r>   -7.2585    1.0000 </r>
       <r>   -7.2267    1.0000 </r>
       <r>   -7.0853    1.0000 </r>
       <r>   -7.0001    1.0000 </r>
       <r>   -6.9187    1.0000 </r>
       <r>   -6.7574    1.0000 </r>
       <r>   -6.6849    1.0000 </r>
       <r>   -6.5908    1.0000 </r>
       <r>   -6.5455    1.0000 </r>
       <r>   -6.5131    1.0000 </r>
       <r>   -6.4785    1.0000 </r>
       <r>   -6.4397    1.0000 </r>
       <r>   -6.3968    1.0000 </r>
       <r>   -6.3326    1.0000 </r>
       <r>   -6.3076    1.0000 </r>
       <r>   -6.2893    1.0000 </r>
       <r>   -6.2215    1.0000 </r>
       <r>   -6.1987    1.0000 </r>
       <r>   -6.1610    1.0000 </r>
       <r>   -6.1136    1.0000 </r>
       <r>   -6.0741    1.0000 </r>
       <r>   -6.0263    1.0000 </r>
       <r>   -5.9678    1.0000 </r>
       <r>   -5.9440    1.0000 </r>
       <r>   -5.7859    1.0000 </r>
       <r>   -5.7443    1.0000 </r>
       <r>   -5.6577    1.0000 </r>
       <r>   -5.6358    1.0000 </r>
       <r>   -5.5645    1.0000 </r>
       <r>   -5.5196    1.0000 </r>
       <r>   -5.4871    1.0000 </r>
       <r>   -5.4430    1.0000 </r>
       <r>   -5.4171    1.0000 </r>
       <r>   -5.3992    1.0000 </r>
       <r>   -5.3728    1.0000 </r>
       <r>   -5.3387    1.0000 </r>
       <r>   -5.3108    1.0000 </r>
       <r>   -5.3016    1.0000 </r>
       <r>   -5.2922    1.0000 </r>
       <r>   -5.2649    1.0000 </r>
       <r>   -5.2093    1.0000 </r>
       <r>   -5.1849    1.0000 </r>
       <r>   -5.1667    1.0000 </r>
       <r>   -5.1579    1.0000 </r>
       <r>   -5.1227    1.0000 </r>
       <r>   -5.0953    1.0000 </r>
       <r>   -5.0883    1.0000 </r>
       <r>   -5.0571    1.0000 </r>
       <r>   -5.0084    1.0000 </r>
       <r>   -5.0001    1.0000 </r>
       <r>   -4.9676    1.0000 </r>
       <r>   -4.9509    1.0000 </r>
       <r>   -4.9407    1.0000 </r>
       <r>   -4.8740    1.0000 </r>
       <r>   -4.8444    1.0000 </r>
       <r>   -4.8320    1.0000 </r>
       <r>   -4.8166    1.0000 </r>
       <r>   -4.7993    1.0000 </r>
       <r>   -4.7627    1.0000 </r>
       <r>   -4.7567    1.0000 </r>
       <r>   -4.7299    1.0000 </r>
       <r>   -4.6621    1.0000 </r>
       <r>   -4.4313    1.0000 </r>
       <r>   -4.1078    1.0276 </r>
       <r>   -4.0314    0.9724 </r>
       <r>   -3.3869   -0.0000 </r>
       <r>   -2.8969   -0.0000 </r>
       <r>   -2.8020   -0.0000 </r>
       <r>   -2.4083   -0.0000 </r>
       <r>   -2.2268   -0.0000 </r>
       <r>   -1.9089   -0.0000 </r>
       <r>   -1.7649   -0.0000 </r>
       <r>   -1.6192   -0.0000 </r>
       <r>   -1.3656   -0.0000 </r>
       <r>   -0.9605    0.0000 </r>
       <r>   -0.8316    0.0000 </r>
       <r>   -0.5535    0.0000 </r>
       <r>   -0.2731    0.0000 </r>
       <r>   -0.1547    0.0000 </r>
       <r>   -0.0506    0.0000 </r>
       <r>    0.2094    0.0000 </r>
      </set>
     </set>
    </set>
   </array>
  </eigenvalues>
  <separator name="orbital magnetization" >
   <v name="MAGDIPOLOUT">      0.00000000      0.00000000      0.00000000</v>
  </separator>
  <dos>
   <i name="efermi">     -3.95764976 </i>
   <total>
    <array>
     <dimension dim="1">gridpoints</dimension>
     <dimension dim="2">spin</dimension>
     <field>energy</field>
     <field>total</field>
     <field>integrated</field>
     <set>
      <set comment="spin 1">
       <r>   -30.5308     0.0000     0.0000 </r>
       <r>   -30.4234     0.0000     0.0000 </r>
       <r>   -30.3161     0.0000     0.0000 </r>
       <r>   -30.2087     0.0000     0.0000 </r>
       <r>   -30.1014     0.0000     0.0000 </r>
       <r>   -29.9941     0.0000     0.0000 </r>
       <r>   -29.8867    -0.0000    -0.0000 </r>
       <r>   -29.7794    -0.0000    -0.0000 </r>
       <r>   -29.6720    -0.0000    -0.0000 </r>
       <r>   -29.5647    -0.0000    -0.0000 </r>
       <r>   -29.4573    -0.0000    -0.0000 </r>
       <r>   -29.3500    -0.0044    -0.0005 </r>
       <r>   -29.2426    -0.2966    -0.0323 </r>
       <r>   -29.1353     1.1610     0.0923 </r>
       <r>   -29.0279    14.1212     1.6082 </r>
       <r>   -28.9206     4.1946     2.0585 </r>
       <r>   -28.8132    -0.5264     2.0020 </r>
       <r>   -28.7059    -0.0182     2.0000 </r>
       <r>   -28.5985    -0.0000     2.0000 </r>
       <r>   -28.4912    -0.0000     2.0000 </r>
       <r>   -28.3839    -0.0000     2.0000 </r>
       <r>   -28.2765     0.0000     2.0000 </r>
       <r>   -28.1692     0.0000     2.0000 </r>
       <r>   -28.0618     0.0000     2.0000 </r>
       <r>   -27.9545     0.0000     2.0000 </r>
       <r>   -27.8471     0.0000     2.0000 </r>
       <r>   -27.7398     0.0000     2.0000 </r>
       <r>   -27.6324     0.0000     2.0000 </r>
       <r>   -27.5251     0.0000     2.0000 </r>
       <r>   -27.4177     0.0000     2.0000 </r>
       <r>   -27.3104     0.0000     2.0000 </r>
       <r>   -27.2030     0.0000     2.0000 </r>
       <r>   -27.0957     0.0000     2.0000 </r>
       <r>   -26.9883     0.0000     2.0000 </r>
       <r>   -26.8810     0.0000     2.0000 </r>
       <r>   -26.7737     0.0000     2.0000 </r>
       <r>   -26.6663     0.0000     2.0000 </r>
       <r>   -26.5590     0.0000     2.0000 </r>
       <r>   -26.4516     0.0000     2.0000 </r>
       <r>   -26.3443     0.0000     2.0000 </r>
       <r>   -26.2369     0.0000     2.0000 </r>
       <r>   -26.1296     0.0000     2.0000 </r>
       <r>   -26.0222     0.0000     2.0000 </r>
       <r>   -25.9149     0.0000     2.0000 </r>
       <r>   -25.8075     0.0000     2.0000 </r>
       <r>   -25.7002     0.0000     2.0000 </r>
       <r>   -25.5928     0.0000     2.0000 </r>
       <r>   -25.4855     0.0000     2.0000 </r>
       <r>   -25.3782     0.0000     2.0000 </r>
       <r>   -25.2708     0.0000     2.0000 </r>
       <r>   -25.1635     0.0000     2.0000 </r>
       <r>   -25.0561     0.0000     2.0000 </r>
       <r>   -24.9488     0.0000     2.0000 </r>
       <r>   -24.8414     0.0000     2.0000 </r>
       <r>   -24.7341     0.0000     2.0000 </r>
       <r>   -24.6267     0.0000     2.0000 </r>
       <r>   -24.5194     0.0000     2.0000 </r>
       <r>   -24.4120     0.0000     2.0000 </r>
       <r>   -24.3047     0.0000     2.0000 </r>
       <r>   -24.1973     0.0000     2.0000 </r>
       <r>   -24.0900     0.0000     2.0000 </r>
       <r>   -23.9826     0.0000     2.0000 </r>
       <r>   -23.8753     0.0000     2.0000 </r>
       <r>   -23.7680     0.0000     2.0000 </r>
       <r>   -23.6606     0.0000     2.0000 </r>
       <r>   -23.5533     0.0000     2.0000 </r>
       <r>   -23.4459     0.0000     2.0000 </r>
       <r>   -23.3386     0.0000     2.0000 </r>
       <r>   -23.2312     0.0000     2.0000 </r>
       <r>   -23.1239     0.0000     2.0000 </r>
       <r>   -23.0165     0.0000     2.0000 </r>
       <r>   -22.9092     0.0000     2.0000 </r>
       <r>   -22.8018     0.0000     2.0000 </r>
       <r>   -22.6945     0.0000     2.0000 </r>
       <r>   -22.5871     0.0000     2.0000 </r>
       <r>   -22.4798     0.0000     2.0000 </r>
       <r>   -22.3724     0.0000     2.0000 </r>
       <r>   -22.2651     0.0000     2.0000 </r>
       <r>   -22.1578     0.0000     2.0000 </r>
       <r>   -22.0504     0.0000     2.0000 </r>
       <r>   -21.9431     0.0000     2.0000 </r>
       <r>   -21.8357     0.0000     2.0000 </r>
       <r>   -21.7284     0.0000     2.0000 </r>
       <r>   -21.6210     0.0000     2.0000 </r>
       <r>   -21.5137     0.0000     2.0000 </r>
       <r>   -21.4063     0.0000     2.0000 </r>
       <r>   -21.2990     0.0000     2.0000 </r>
       <r>   -21.1916     0.0000     2.0000 </r>
       <r>   -21.0843     0.0000     2.0000 </r>
       <r>   -20.9769     0.0000     2.0000 </r>
       <r>   -20.8696     0.0000     2.0000 </r>
       <r>   -20.7623     0.0000     2.0000 </r>
       <r>   -20.6549     0.0000     2.0000 </r>
       <r>   -20.5476     0.0000     2.0000 </r>
       <r>   -20.4402     0.0000     2.0000 </r>
       <r>   -20.3329     0.0000     2.0000 </r>
       <r>   -20.2255     0.0000     2.0000 </r>
       <r>   -20.1182     0.0000     2.0000 </r>
       <r>   -20.0108     0.0000     2.0000 </r>
       <r>   -19.9035     0.0000     2.0000 </r>
       <r>   -19.7961     0.0000     2.0000 </r>
       <r>   -19.6888     0.0000     2.0000 </r>
       <r>   -19.5814     0.0000     2.0000 </r>
       <r>   -19.4741     0.0000     2.0000 </r>
       <r>   -19.3667     0.0000     2.0000 </r>
       <r>   -19.2594     0.0000     2.0000 </r>
       <r>   -19.1521     0.0000     2.0000 </r>
       <r>   -19.0447     0.0000     2.0000 </r>
       <r>   -18.9374     0.0000     2.0000 </r>
       <r>   -18.8300     0.0000     2.0000 </r>
       <r>   -18.7227     0.0000     2.0000 </r>
       <r>   -18.6153     0.0000     2.0000 </r>
       <r>   -18.5080     0.0000     2.0000 </r>
       <r>   -18.4006     0.0000     2.0000 </r>
       <r>   -18.2933     0.0000     2.0000 </r>
       <r>   -18.1859     0.0000     2.0000 </r>
       <r>   -18.0786     0.0000     2.0000 </r>
       <r>   -17.9712     0.0000     2.0000 </r>
       <r>   -17.8639     0.0000     2.0000 </r>
       <r>   -17.7565     0.0000     2.0000 </r>
       <r>   -17.6492     0.0000     2.0000 </r>
       <r>   -17.5419     0.0000     2.0000 </r>
       <r>   -17.4345     0.0000     2.0000 </r>
       <r>   -17.3272     0.0000     2.0000 </r>
       <r>   -17.2198     0.0000     2.0000 </r>
       <r>   -17.1125     0.0000     2.0000 </r>
       <r>   -17.0051     0.0000     2.0000 </r>
       <r>   -16.8978     0.0000     2.0000 </r>
       <r>   -16.7904     0.0000     2.0000 </r>
       <r>   -16.6831     0.0000     2.0000 </r>
       <r>   -16.5757     0.0000     2.0000 </r>
       <r>   -16.4684     0.0000     2.0000 </r>
       <r>   -16.3610     0.0000     2.0000 </r>
       <r>   -16.2537     0.0000     2.0000 </r>
       <r>   -16.1464     0.0000     2.0000 </r>
       <r>   -16.0390     0.0000     2.0000 </r>
       <r>   -15.9317     0.0000     2.0000 </r>
       <r>   -15.8243     0.0000     2.0000 </r>
       <r>   -15.7170     0.0000     2.0000 </r>
       <r>   -15.6096     0.0000     2.0000 </r>
       <r>   -15.5023     0.0000     2.0000 </r>
       <r>   -15.3949     0.0000     2.0000 </r>
       <r>   -15.2876     0.0000     2.0000 </r>
       <r>   -15.1802     0.0000     2.0000 </r>
       <r>   -15.0729     0.0000     2.0000 </r>
       <r>   -14.9655     0.0000     2.0000 </r>
       <r>   -14.8582     0.0000     2.0000 </r>
       <r>   -14.7508    -0.0000     2.0000 </r>
       <r>   -14.6435    -0.0000     2.0000 </r>
       <r>   -14.5362    -0.0000     2.0000 </r>
       <r>   -14.4288    -0.0000     2.0000 </r>
       <r>   -14.3215    -0.0000     2.0000 </r>
       <r>   -14.2141    -0.0031     1.9997 </r>
       <r>   -14.1068    -0.2500     1.9728 </r>
       <r>   -13.9994     0.7037     2.0484 </r>
       <r>   -13.8921    13.6951     3.5185 </r>
       <r>   -13.7847     5.0789     4.0637 </r>
       <r>   -13.6774    -0.5688     4.0026 </r>
       <r>   -13.5700    -0.0244     4.0000 </r>
       <r>   -13.4627    -0.0001     4.0000 </r>
       <r>   -13.3553    -0.0000     4.0000 </r>
       <r>   -13.2480    -0.0000     4.0000 </r>
       <r>   -13.1406     0.0000     4.0000 </r>
       <r>   -13.0333     0.0000     4.0000 </r>
       <r>   -12.9260     0.0000     4.0000 </r>
       <r>   -12.8186     0.0000     4.0000 </r>
       <r>   -12.7113     0.0000     4.0000 </r>
       <r>   -12.6039     0.0000     4.0000 </r>
       <r>   -12.4966     0.0000     4.0000 </r>
       <r>   -12.3892    -0.0000     4.0000 </r>
       <r>   -12.2819    -0.0000     4.0000 </r>
       <r>   -12.1745    -0.0000     4.0000 </r>
       <r>   -12.0672    -0.0000     4.0000 </r>
       <r>   -11.9598    -0.0000     4.0000 </r>
       <r>   -11.8525    -0.0091     3.9990 </r>
       <r>   -11.7451    -0.5378     3.9413 </r>
       <r>   -11.6378     2.0539     4.1618 </r>
       <r>   -11.5304    26.4382     6.9998 </r>
       <r>   -11.4231    10.4106     8.1174 </r>
       <r>   -11.3158    -1.5157     7.9547 </r>
       <r>   -11.2084     3.2264     8.3010 </r>
       <r>   -11.1011    14.4178     9.8487 </r>
       <r>   -10.9937     1.7688    10.0386 </r>
       <r>   -10.8864    -0.3529    10.0007 </r>
       <r>   -10.7790    -0.0063    10.0000 </r>
       <r>   -10.6717    -0.0000    10.0000 </r>
       <r>   -10.5643    -0.0000    10.0000 </r>
       <r>   -10.4570    -0.0002    10.0000 </r>
       <r>   -10.3496    -0.0520     9.9944 </r>
       <r>   -10.2423    -0.6083     9.9291 </r>
       <r>   -10.1349     7.7336    10.7593 </r>
       <r>   -10.0276    11.8598    12.0324 </r>
       <r>    -9.9203    -0.1542    12.0158 </r>
       <r>    -9.8129    -0.1464    12.0001 </r>
       <r>    -9.7056    -0.0011    12.0000 </r>
       <r>    -9.5982    -0.0000    12.0000 </r>
       <r>    -9.4909    -0.0000    12.0000 </r>
       <r>    -9.3835    -0.0000    12.0000 </r>
       <r>    -9.2762    -0.0000    12.0000 </r>
       <r>    -9.1688    -0.0000    12.0000 </r>
       <r>    -9.0615    -0.0000    12.0000 </r>
       <r>    -8.9541    -0.0000    12.0000 </r>
       <r>    -8.8468    -0.0009    11.9999 </r>
       <r>    -8.7394    -0.1262    11.9864 </r>
       <r>    -8.6321    -0.2885    11.9554 </r>
       <r>    -8.5247    11.2754    13.1658 </r>
       <r>    -8.4174     8.1379    14.0393 </r>
       <r>    -8.3101     0.4200    14.0844 </r>
       <r>    -8.2027    13.9422    15.5811 </r>
       <r>    -8.0954     4.4631    16.0602 </r>
       <r>    -7.9880    -0.5411    16.0021 </r>
       <r>    -7.8807    -0.1129    15.9900 </r>
       <r>    -7.7733    -0.4768    15.9388 </r>
       <r>    -7.6660     9.8437    16.9955 </r>
       <r>    -7.5586     9.6498    18.0314 </r>
       <r>    -7.4513    13.1091    19.4386 </r>
       <r>    -7.3439    24.9166    22.1133 </r>
       <r>    -7.2366    30.9152    25.4319 </r>
       <r>    -7.1292    12.3308    26.7556 </r>
       <r>    -7.0219    23.6350    29.2927 </r>
       <r>    -6.9145    21.8117    31.6341 </r>
       <r>    -6.8072     8.7537    32.5738 </r>
       <r>    -6.6999    23.4302    35.0890 </r>
       <r>    -6.5925    29.4294    38.2481 </r>
       <r>    -6.4852    51.8007    43.8087 </r>
       <r>    -6.3778    46.6523    48.8167 </r>
       <r>    -6.2705    52.7459    54.4788 </r>
       <r>    -6.1631    50.9758    59.9509 </r>
       <r>    -6.0558    45.6663    64.8530 </r>
       <r>    -5.9484    38.7411    69.0117 </r>
       <r>    -5.8411    16.0490    70.7345 </r>
       <r>    -5.7337    29.1813    73.8670 </r>
       <r>    -5.6264    35.6096    77.6896 </r>
       <r>    -5.5190    44.6846    82.4863 </r>
       <r>    -5.4117    67.9676    89.7824 </r>
       <r>    -5.3044    85.5609    98.9671 </r>
       <r>    -5.1970    73.7718   106.8862 </r>
       <r>    -5.0897    84.1495   115.9194 </r>
       <r>    -4.9823    77.4748   124.2360 </r>
       <r>    -4.8750    74.9764   132.2845 </r>
       <r>    -4.7676    88.4003   141.7739 </r>
       <r>    -4.6603    37.0116   145.7470 </r>
       <r>    -4.5529     3.3251   146.1039 </r>
       <r>    -4.4456    12.4449   147.4399 </r>
       <r>    -4.3382     5.4834   148.0285 </r>
       <r>    -4.2309     0.6143   148.0944 </r>
       <r>    -4.1235    17.4143   149.9638 </r>
       <r>    -4.0162    17.8895   151.8842 </r>
       <r>    -3.9088     1.4676   152.0417 </r>
       <r>    -3.8015    -0.4923   151.9889 </r>
       <r>    -3.6942    -0.3921   151.9468 </r>
       <r>    -3.5868    10.7315   153.0988 </r>
       <r>    -3.4795     9.0283   154.0679 </r>
       <r>    -3.3721    -0.5601   154.0078 </r>
       <r>    -3.2648    -0.0727   154.0000 </r>
       <r>    -3.1574    -0.0864   153.9907 </r>
       <r>    -3.0501    -0.6708   153.9187 </r>
       <r>    -2.9427     9.6103   154.9503 </r>
       <r>    -2.8354    22.2915   157.3432 </r>
       <r>    -2.7280     6.8581   158.0794 </r>
       <r>    -2.6207    -1.2004   157.9506 </r>
       <r>    -2.5133     3.3795   158.3134 </r>
       <r>    -2.4060    14.4126   159.8605 </r>
       <r>    -2.2986    14.1248   161.3767 </r>
       <r>    -2.1913     6.4311   162.0671 </r>
       <r>    -2.0840    -1.2469   161.9333 </r>
       <r>    -1.9766     5.4403   162.5173 </r>
       <r>    -1.8693    18.4830   164.5013 </r>
       <r>    -1.7619    13.8357   165.9865 </r>
       <r>    -1.6546    12.7732   167.3577 </r>
       <r>    -1.5472     6.6806   168.0748 </r>
       <r>    -1.4399    12.3551   169.4011 </r>
       <r>    -1.3325     6.1019   170.0561 </r>
       <r>    -1.2252    -0.9553   169.9536 </r>
       <r>    -1.1178    10.8810   171.1216 </r>
       <r>    -1.0105     8.2019   172.0021 </r>
       <r>    -0.9031     5.1658   172.5566 </r>
       <r>    -0.7958    12.9448   173.9462 </r>
       <r>    -0.6885     1.5437   174.1119 </r>
       <r>    -0.5811    13.7486   175.5878 </r>
       <r>    -0.4738     3.9488   176.0116 </r>
       <r>    -0.3664    10.3741   177.1253 </r>
       <r>    -0.2591     9.1429   178.1067 </r>
       <r>    -0.1517    12.9562   179.4975 </r>
       <r>    -0.0444     4.8815   180.0216 </r>
       <r>     0.0630     0.0894   180.0312 </r>
       <r>     0.1703    25.0753   182.7229 </r>
       <r>     0.2777    13.1072   184.1299 </r>
       <r>     0.3850    -1.1247   184.0092 </r>
       <r>     0.4924    -0.0852   184.0000 </r>
       <r>     0.5997    -0.0003   184.0000 </r>
       <r>     0.7071    -0.0000   184.0000 </r>
       <r>     0.8144    -0.0000   184.0000 </r>
       <r>     0.9217     0.0000   184.0000 </r>
       <r>     1.0291     0.0000   184.0000 </r>
       <r>     1.1364     0.0000   184.0000 </r>
       <r>     1.2438     0.0000   184.0000 </r>
       <r>     1.3511     0.0000   184.0000 </r>
       <r>     1.4585     0.0000   184.0000 </r>
       <r>     1.5658     0.0000   184.0000 </r>
       <r>     1.6732     0.0000   184.0000 </r>
      </set>
      <set comment="spin 2">
       <r>   -30.5308     0.0000     0.0000 </r>
       <r>   -30.4234     0.0000     0.0000 </r>
       <r>   -30.3161     0.0000     0.0000 </r>
       <r>   -30.2087     0.0000     0.0000 </r>
       <r>   -30.1014     0.0000     0.0000 </r>
       <r>   -29.9941     0.0000     0.0000 </r>
       <r>   -29.8867    -0.0000    -0.0000 </r>
       <r>   -29.7794    -0.0000    -0.0000 </r>
       <r>   -29.6720    -0.0000    -0.0000 </r>
       <r>   -29.5647    -0.0000    -0.0000 </r>
       <r>   -29.4573    -0.0000    -0.0000 </r>
       <r>   -29.3500    -0.0017    -0.0002 </r>
       <r>   -29.2426    -0.1859    -0.0201 </r>
       <r>   -29.1353     0.1438    -0.0047 </r>
       <r>   -29.0279    12.7464     1.3636 </r>
       <r>   -28.9206     6.5767     2.0696 </r>
       <r>   -28.8132    -0.6099     2.0041 </r>
       <r>   -28.7059    -0.0381     2.0000 </r>
       <r>   -28.5985    -0.0001     2.0000 </r>
       <r>   -28.4912    -0.0000     2.0000 </r>
       <r>   -28.3839    -0.0000     2.0000 </r>
       <r>   -28.2765     0.0000     2.0000 </r>
       <r>   -28.1692     0.0000     2.0000 </r>
       <r>   -28.0618     0.0000     2.0000 </r>
       <r>   -27.9545     0.0000     2.0000 </r>
       <r>   -27.8471     0.0000     2.0000 </r>
       <r>   -27.7398     0.0000     2.0000 </r>
       <r>   -27.6324     0.0000     2.0000 </r>
       <r>   -27.5251     0.0000     2.0000 </r>
       <r>   -27.4177     0.0000     2.0000 </r>
       <r>   -27.3104     0.0000     2.0000 </r>
       <r>   -27.2030     0.0000     2.0000 </r>
       <r>   -27.0957     0.0000     2.0000 </r>
       <r>   -26.9883     0.0000     2.0000 </r>
       <r>   -26.8810     0.0000     2.0000 </r>
       <r>   -26.7737     0.0000     2.0000 </r>
       <r>   -26.6663     0.0000     2.0000 </r>
       <r>   -26.5590     0.0000     2.0000 </r>
       <r>   -26.4516     0.0000     2.0000 </r>
       <r>   -26.3443     0.0000     2.0000 </r>
       <r>   -26.2369     0.0000     2.0000 </r>
       <r>   -26.1296     0.0000     2.0000 </r>
       <r>   -26.0222     0.0000     2.0000 </r>
       <r>   -25.9149     0.0000     2.0000 </r>
       <r>   -25.8075     0.0000     2.0000 </r>
       <r>   -25.7002     0.0000     2.0000 </r>
       <r>   -25.5928     0.0000     2.0000 </r>
       <r>   -25.4855     0.0000     2.0000 </r>
       <r>   -25.3782     0.0000     2.0000 </r>
       <r>   -25.2708     0.0000     2.0000 </r>
       <r>   -25.1635     0.0000     2.0000 </r>
       <r>   -25.0561     0.0000     2.0000 </r>
       <r>   -24.9488     0.0000     2.0000 </r>
       <r>   -24.8414     0.0000     2.0000 </r>
       <r>   -24.7341     0.0000     2.0000 </r>
       <r>   -24.6267     0.0000     2.0000 </r>
       <r>   -24.5194     0.0000     2.0000 </r>
       <r>   -24.4120     0.0000     2.0000 </r>
       <r>   -24.3047     0.0000     2.0000 </r>
       <r>   -24.1973     0.0000     2.0000 </r>
       <r>   -24.0900     0.0000     2.0000 </r>
       <r>   -23.9826     0.0000     2.0000 </r>
       <r>   -23.8753     0.0000     2.0000 </r>
       <r>   -23.7680     0.0000     2.0000 </r>
       <r>   -23.6606     0.0000     2.0000 </r>
       <r>   -23.5533     0.0000     2.0000 </r>
       <r>   -23.4459     0.0000     2.0000 </r>
       <r>   -23.3386     0.0000     2.0000 </r>
       <r>   -23.2312     0.0000     2.0000 </r>
       <r>   -23.1239     0.0000     2.0000 </r>
       <r>   -23.0165     0.0000     2.0000 </r>
       <r>   -22.9092     0.0000     2.0000 </r>
       <r>   -22.8018     0.0000     2.0000 </r>
       <r>   -22.6945     0.0000     2.0000 </r>
       <r>   -22.5871     0.0000     2.0000 </r>
       <r>   -22.4798     0.0000     2.0000 </r>
       <r>   -22.3724     0.0000     2.0000 </r>
       <r>   -22.2651     0.0000     2.0000 </r>
       <r>   -22.1578     0.0000     2.0000 </r>
       <r>   -22.0504     0.0000     2.0000 </r>
       <r>   -21.9431     0.0000     2.0000 </r>
       <r>   -21.8357     0.0000     2.0000 </r>
       <r>   -21.7284     0.0000     2.0000 </r>
       <r>   -21.6210     0.0000     2.0000 </r>
       <r>   -21.5137     0.0000     2.0000 </r>
       <r>   -21.4063     0.0000     2.0000 </r>
       <r>   -21.2990     0.0000     2.0000 </r>
       <r>   -21.1916     0.0000     2.0000 </r>
       <r>   -21.0843     0.0000     2.0000 </r>
       <r>   -20.9769     0.0000     2.0000 </r>
       <r>   -20.8696     0.0000     2.0000 </r>
       <r>   -20.7623     0.0000     2.0000 </r>
       <r>   -20.6549     0.0000     2.0000 </r>
       <r>   -20.5476     0.0000     2.0000 </r>
       <r>   -20.4402     0.0000     2.0000 </r>
       <r>   -20.3329     0.0000     2.0000 </r>
       <r>   -20.2255     0.0000     2.0000 </r>
       <r>   -20.1182     0.0000     2.0000 </r>
       <r>   -20.0108     0.0000     2.0000 </r>
       <r>   -19.9035     0.0000     2.0000 </r>
       <r>   -19.7961     0.0000     2.0000 </r>
       <r>   -19.6888     0.0000     2.0000 </r>
       <r>   -19.5814     0.0000     2.0000 </r>
       <r>   -19.4741     0.0000     2.0000 </r>
       <r>   -19.3667     0.0000     2.0000 </r>
       <r>   -19.2594     0.0000     2.0000 </r>
       <r>   -19.1521     0.0000     2.0000 </r>
       <r>   -19.0447     0.0000     2.0000 </r>
       <r>   -18.9374     0.0000     2.0000 </r>
       <r>   -18.8300     0.0000     2.0000 </r>
       <r>   -18.7227     0.0000     2.0000 </r>
       <r>   -18.6153     0.0000     2.0000 </r>
       <r>   -18.5080     0.0000     2.0000 </r>
       <r>   -18.4006     0.0000     2.0000 </r>
       <r>   -18.2933     0.0000     2.0000 </r>
       <r>   -18.1859     0.0000     2.0000 </r>
       <r>   -18.0786     0.0000     2.0000 </r>
       <r>   -17.9712     0.0000     2.0000 </r>
       <r>   -17.8639     0.0000     2.0000 </r>
       <r>   -17.7565     0.0000     2.0000 </r>
       <r>   -17.6492     0.0000     2.0000 </r>
       <r>   -17.5419     0.0000     2.0000 </r>
       <r>   -17.4345     0.0000     2.0000 </r>
       <r>   -17.3272     0.0000     2.0000 </r>
       <r>   -17.2198     0.0000     2.0000 </r>
       <r>   -17.1125     0.0000     2.0000 </r>
       <r>   -17.0051     0.0000     2.0000 </r>
       <r>   -16.8978     0.0000     2.0000 </r>
       <r>   -16.7904     0.0000     2.0000 </r>
       <r>   -16.6831     0.0000     2.0000 </r>
       <r>   -16.5757     0.0000     2.0000 </r>
       <r>   -16.4684     0.0000     2.0000 </r>
       <r>   -16.3610     0.0000     2.0000 </r>
       <r>   -16.2537     0.0000     2.0000 </r>
       <r>   -16.1464     0.0000     2.0000 </r>
       <r>   -16.0390     0.0000     2.0000 </r>
       <r>   -15.9317     0.0000     2.0000 </r>
       <r>   -15.8243     0.0000     2.0000 </r>
       <r>   -15.7170     0.0000     2.0000 </r>
       <r>   -15.6096     0.0000     2.0000 </r>
       <r>   -15.5023     0.0000     2.0000 </r>
       <r>   -15.3949     0.0000     2.0000 </r>
       <r>   -15.2876     0.0000     2.0000 </r>
       <r>   -15.1802     0.0000     2.0000 </r>
       <r>   -15.0729     0.0000     2.0000 </r>
       <r>   -14.9655     0.0000     2.0000 </r>
       <r>   -14.8582     0.0000     2.0000 </r>
       <r>   -14.7508    -0.0000     2.0000 </r>
       <r>   -14.6435    -0.0000     2.0000 </r>
       <r>   -14.5362    -0.0000     2.0000 </r>
       <r>   -14.4288    -0.0000     2.0000 </r>
       <r>   -14.3215    -0.0000     2.0000 </r>
       <r>   -14.2141    -0.0005     1.9999 </r>
       <r>   -14.1068    -0.0924     1.9900 </r>
       <r>   -13.9994    -0.4774     1.9388 </r>
       <r>   -13.8921    10.0222     3.0146 </r>
       <r>   -13.7847     9.7697     4.0634 </r>
       <r>   -13.6774    -0.5030     4.0094 </r>
       <r>   -13.5700    -0.0868     4.0000 </r>
       <r>   -13.4627    -0.0005     4.0000 </r>
       <r>   -13.3553    -0.0000     4.0000 </r>
       <r>   -13.2480    -0.0000     4.0000 </r>
       <r>   -13.1406     0.0000     4.0000 </r>
       <r>   -13.0333     0.0000     4.0000 </r>
       <r>   -12.9260     0.0000     4.0000 </r>
       <r>   -12.8186     0.0000     4.0000 </r>
       <r>   -12.7113     0.0000     4.0000 </r>
       <r>   -12.6039     0.0000     4.0000 </r>
       <r>   -12.4966     0.0000     4.0000 </r>
       <r>   -12.3892    -0.0000     4.0000 </r>
       <r>   -12.2819    -0.0000     4.0000 </r>
       <r>   -12.1745    -0.0000     4.0000 </r>
       <r>   -12.0672    -0.0000     4.0000 </r>
       <r>   -11.9598    -0.0000     4.0000 </r>
       <r>   -11.8525    -0.0016     3.9998 </r>
       <r>   -11.7451    -0.2305     3.9751 </r>
       <r>   -11.6378    -0.6379     3.9066 </r>
       <r>   -11.5304    21.2562     6.1884 </r>
       <r>   -11.4231    18.0455     8.1255 </r>
       <r>   -11.3158    -1.1639     8.0006 </r>
       <r>   -11.2084    -0.2886     7.9696 </r>
       <r>   -11.1011    11.9354     9.2508 </r>
       <r>   -10.9937     7.6397    10.0709 </r>
       <r>   -10.8864    -0.6097    10.0055 </r>
       <r>   -10.7790    -0.0507    10.0000 </r>
       <r>   -10.6717    -0.0002    10.0000 </r>
       <r>   -10.5643    -0.0000    10.0000 </r>
       <r>   -10.4570    -0.0000    10.0000 </r>
       <r>   -10.3496    -0.0068     9.9993 </r>
       <r>   -10.2423    -0.3646     9.9601 </r>
       <r>   -10.1349     1.9024    10.1643 </r>
       <r>   -10.0276    14.4538    11.7159 </r>
       <r>    -9.9203     3.1178    12.0506 </r>
       <r>    -9.8129    -0.4592    12.0013 </r>
       <r>    -9.7056    -0.0121    12.0000 </r>
       <r>    -9.5982    -0.0000    12.0000 </r>
       <r>    -9.4909    -0.0000    12.0000 </r>
       <r>    -9.3835    -0.0000    12.0000 </r>
       <r>    -9.2762    -0.0000    12.0000 </r>
       <r>    -9.1688    -0.0000    12.0000 </r>
       <r>    -9.0615    -0.0000    12.0000 </r>
       <r>    -8.9541    -0.0000    12.0000 </r>
       <r>    -8.8468    -0.0002    12.0000 </r>
       <r>    -8.7394    -0.0602    11.9935 </r>
       <r>    -8.6321    -0.5941    11.9297 </r>
       <r>    -8.5247     8.3002    12.8207 </r>
       <r>    -8.4174    11.3237    14.0363 </r>
       <r>    -8.3101    -0.8632    13.9436 </r>
       <r>    -8.2027     8.1123    14.8145 </r>
       <r>    -8.0954    11.4326    16.0417 </r>
       <r>    -7.9880    -0.2564    16.0142 </r>
       <r>    -7.8807    -0.1455    15.9986 </r>
       <r>    -7.7733    -0.4889    15.9461 </r>
       <r>    -7.6660     3.4495    16.3164 </r>
       <r>    -7.5586    13.7182    17.7890 </r>
       <r>    -7.4513    11.0693    18.9772 </r>
       <r>    -7.3439    20.8434    21.2147 </r>
       <r>    -7.2366    27.9576    24.2158 </r>
       <r>    -7.1292    20.0583    26.3690 </r>
       <r>    -7.0219    19.5763    28.4705 </r>
       <r>    -6.9145    24.1127    31.0589 </r>
       <r>    -6.8072    11.2608    32.2677 </r>
       <r>    -6.6999    20.1100    34.4264 </r>
       <r>    -6.5925    26.0095    37.2185 </r>
       <r>    -6.4852    48.7518    42.4518 </r>
       <r>    -6.3778    48.1987    47.6258 </r>
       <r>    -6.2705    50.8273    53.0819 </r>
       <r>    -6.1631    52.1421    58.6792 </r>
       <r>    -6.0558    47.1024    63.7354 </r>
       <r>    -5.9484    42.3577    68.2824 </r>
       <r>    -5.8411    18.5958    70.2786 </r>
       <r>    -5.7337    24.4408    72.9022 </r>
       <r>    -5.6264    35.8422    76.7498 </r>
       <r>    -5.5190    40.7798    81.1273 </r>
       <r>    -5.4117    60.6994    87.6432 </r>
       <r>    -5.3044    83.6383    96.6215 </r>
       <r>    -5.1970    77.2893   104.9182 </r>
       <r>    -5.0897    83.8115   113.9151 </r>
       <r>    -4.9823    77.9671   122.2846 </r>
       <r>    -4.8750    71.0174   129.9081 </r>
       <r>    -4.7676    87.5300   139.3041 </r>
       <r>    -4.6603    55.1646   145.2258 </r>
       <r>    -4.5529     7.7270   146.0553 </r>
       <r>    -4.4456     6.6612   146.7704 </r>
       <r>    -4.3382    11.7088   148.0273 </r>
       <r>    -4.2309    -0.9191   147.9286 </r>
       <r>    -4.1235     7.2625   148.7082 </r>
       <r>    -4.0162    23.9872   151.2831 </r>
       <r>    -3.9088     7.4924   152.0874 </r>
       <r>    -3.8015    -0.7629   152.0055 </r>
       <r>    -3.6942    -0.0526   151.9999 </r>
       <r>    -3.5868    -0.1485   151.9840 </r>
       <r>    -3.4795    -0.1408   151.9688 </r>
       <r>    -3.3721    11.9100   153.2474 </r>
       <r>    -3.2648     7.6720   154.0709 </r>
       <r>    -3.1574    -0.6226   154.0041 </r>
       <r>    -3.0501    -0.5496   153.9451 </r>
       <r>    -2.9427     2.7864   154.2442 </r>
       <r>    -2.8354    19.3521   156.3216 </r>
       <r>    -2.7280    15.4857   157.9839 </r>
       <r>    -2.6207     0.3179   158.0180 </r>
       <r>    -2.5133    -0.7193   157.9408 </r>
       <r>    -2.4060     9.9613   159.0101 </r>
       <r>    -2.2986    10.4548   160.1324 </r>
       <r>    -2.1913    13.3813   161.5688 </r>
       <r>    -2.0840     4.2829   162.0286 </r>
       <r>    -1.9766     0.5546   162.0881 </r>
       <r>    -1.8693    13.6682   163.5554 </r>
       <r>    -1.7619    13.9031   165.0478 </r>
       <r>    -1.6546    13.5982   166.5075 </r>
       <r>    -1.5472    13.1015   167.9139 </r>
       <r>    -1.4399     1.5639   168.0818 </r>
       <r>    -1.3325    13.4727   169.5281 </r>
       <r>    -1.2252     4.9745   170.0620 </r>
       <r>    -1.1178    -1.0103   169.9536 </r>
       <r>    -1.0105     2.5744   170.2299 </r>
       <r>    -0.9031    15.4161   171.8848 </r>
       <r>    -0.7958    16.0076   173.6032 </r>
       <r>    -0.6885     3.6512   173.9951 </r>
       <r>    -0.5811     5.2028   174.5536 </r>
       <r>    -0.4738    13.1286   175.9629 </r>
       <r>    -0.3664     0.1529   175.9793 </r>
       <r>    -0.2591    11.0389   177.1643 </r>
       <r>    -0.1517    17.7437   179.0690 </r>
       <r>    -0.0444    19.6131   181.1744 </r>
       <r>     0.0630     7.8619   182.0184 </r>
       <r>     0.1703     3.5506   182.3995 </r>
       <r>     0.2777    14.0496   183.9077 </r>
       <r>     0.3850     1.1607   184.0323 </r>
       <r>     0.4924    -0.2966   184.0005 </r>
       <r>     0.5997    -0.0044   184.0000 </r>
       <r>     0.7071    -0.0000   184.0000 </r>
       <r>     0.8144    -0.0000   184.0000 </r>
       <r>     0.9217    -0.0000   184.0000 </r>
       <r>     1.0291     0.0000   184.0000 </r>
       <r>     1.1364     0.0000   184.0000 </r>
       <r>     1.2438     0.0000   184.0000 </r>
       <r>     1.3511     0.0000   184.0000 </r>
       <r>     1.4585     0.0000   184.0000 </r>
       <r>     1.5658     0.0000   184.0000 </r>
       <r>     1.6732     0.0000   184.0000 </r>
      </set>
     </set>
    </array>
   </total>
  </dos>
 </calculation>
 <structure name="finalpos" >
  <crystal>
   <varray name="basis" >
    <v>      15.00000000       0.00000000       0.00000000 </v>
    <v>       0.00000000      15.00000000       0.00000000 </v>
    <v>       0.00000000       0.00000000      15.00000000 </v>
   </varray>
   <i name="volume">   3375.00000000 </i>
   <varray name="rec_basis" >
    <v>       0.06666667       0.00000000       0.00000000 </v>
    <v>       0.00000000       0.06666667       0.00000000 </v>
    <v>       0.00000000       0.00000000       0.06666667 </v>
   </varray>
  </crystal>
  <varray name="positions" >
   <v>       0.29311467       0.41332867       0.55603667 </v>
   <v>       0.37224467       0.54581400       0.49465733 </v>
   <v>       0.38969600       0.29339600       0.56201733 </v>
   <v>       0.53556267       0.50703133       0.48332000 </v>
   <v>       0.54726867       0.34538667       0.52808333 </v>
   <v>       0.44695667       0.43853667       0.61661667 </v>
   <v>       0.41902533       0.40043600       0.44453600 </v>
   <v>       0.22269600       0.56556333       0.55657000 </v>
   <v>       0.33652267       0.54376000       0.65808133 </v>
   <v>       0.35022267       0.68181333       0.56892867 </v>
   <v>       0.48549200       0.65989733       0.47365733 </v>
   <v>       0.63033267       0.49165400       0.59374267 </v>
   <v>       0.48753800       0.59668400       0.61224733 </v>
   <v>       0.74364000       0.49808400       0.64928800 </v>
   <v>       0.81514667       0.50371267       0.67302667 </v>
  </varray>
 </structure>
</modeling>
