# Projected DOS for atomic kind Ti at iteration step i = 1, E(Fermi) =    -0.274451 a.u.
#     MO Eigenvalue [a.u.]      Occupation                 s                py                pz                px               d-2               d-1                d0               d+1               d+2               f-3               f-2               f-1                f0               f+1               f+2               f+3
       1         -2.394638        2.000000        0.81029759        0.00000000        0.00381014        0.00460002        0.00000000        0.00000000        0.02016872        0.00647171        0.00705796        0.00000000        0.00000000        0.00000000        0.01180335        0.00958462        0.00373560        0.01435801
       2         -2.394453        2.000000        0.78363712        0.00427739        0.00163965        0.00231155        0.01180292        0.00151262        0.00722588        0.00361788        0.01322143        0.01106483        0.00559937        0.00623855        0.00750644        0.00647330        0.00416648        0.00842711
       3         -2.394453        2.000000        0.78363710        0.00427740        0.00163965        0.00231154        0.01180292        0.00151262        0.00722589        0.00361787        0.01322146        0.01106479        0.00559937        0.00623856        0.00750645        0.00647329        0.00416649        0.00842712
       4         -2.393250        2.000000        0.81715374        0.00000000        0.00157180        0.01317994        0.00000000        0.00000000        0.00750368        0.01710763        0.00928584        0.00000001        0.00000000        0.00000000        0.00435191        0.01922616        0.00223023        0.00126119
       5         -2.393240        2.000000        0.78675084        0.00195917        0.00131455        0.00410705        0.01226856        0.00121249        0.00672036        0.00639736        0.00903602        0.02047066        0.00586993        0.00290845        0.00480248        0.00924315        0.00391631        0.00504429
       6         -2.393240        2.000000        0.78675083        0.00195917        0.00131455        0.00410705        0.01226854        0.00121249        0.00672037        0.00639735        0.00903603        0.02047069        0.00586992        0.00290844        0.00480250        0.00924314        0.00391631        0.00504431
       7         -2.393124        2.000000        0.81647096        0.00000000        0.00329952        0.00323718        0.00000000        0.00000000        0.01048755        0.00593379        0.01167437        0.00000000        0.00000000        0.00000000        0.00917098        0.01230336        0.00460551        0.01541836
       8         -2.393069        2.000000        0.78829652        0.00343591        0.00132877        0.00232754        0.01372700        0.00159835        0.00544333        0.00587925        0.00798217        0.01328831        0.00591414        0.00489574        0.00352563        0.01177839        0.00422763        0.00812172
       9         -2.393069        2.000000        0.78829652        0.00343591        0.00132877        0.00232756        0.01372702        0.00159835        0.00544331        0.00587928        0.00798217        0.01328828        0.00591414        0.00489575        0.00352562        0.01177840        0.00422762        0.00812170
      10         -2.392946        2.000000        0.80819272        0.00000000        0.00437388        0.00299504        0.00000000        0.00000000        0.01861780        0.00607114        0.00787861        0.00000000        0.00000000        0.00000000        0.01384362        0.01006882        0.00378040        0.01735082
      11         -2.392679        2.000000        0.80225804        0.00000000        0.00425285        0.00382315        0.00000000        0.00000000        0.03457226        0.00345520        0.00558041        0.00000000        0.00000000        0.00000000        0.01104190        0.00653911        0.00510983        0.01516983
      12         -2.392650        2.000000        0.78222726        0.00659155        0.00184574        0.00131675        0.01170318        0.00155997        0.00496957        0.00364818        0.01666132        0.00355574        0.00545617        0.00837566        0.00963416        0.00697656        0.00406903        0.01031347
      13         -2.392650        2.000000        0.78222747        0.00659158        0.00184571        0.00131674        0.01170305        0.00155995        0.00496937        0.00364811        0.01666152        0.00355596        0.00545619        0.00837554        0.00963443        0.00697649        0.00406890        0.01031350
      14         -2.392645        2.000000        0.82113522        0.00000000        0.00190402        0.00582613        0.00000000        0.00000000        0.01657602        0.00418092        0.01245066        0.00000000        0.00000000        0.00000000        0.00853263        0.01207219        0.00296385        0.01321237
      15         -2.392559        2.000000        0.79069580        0.00333367        0.00075449        0.00333148        0.01265590        0.00048795        0.00639997        0.00254661        0.01364583        0.01623402        0.00341776        0.00558959        0.00474389        0.00880702        0.00295997        0.00888779
      16         -2.392559        2.000000        0.79069575        0.00333367        0.00075449        0.00333147        0.01265590        0.00048795        0.00640001        0.00254660        0.01364584        0.01623399        0.00341776        0.00558960        0.00474387        0.00880704        0.00295998        0.00888781
      17         -2.392487        2.000000        0.78039402        0.00346740        0.00206492        0.00198352        0.01226102        0.00165974        0.01110857        0.00288507        0.01050798        0.01076137        0.00542094        0.00724244        0.00682911        0.00555905        0.00560258        0.00819808
      18         -2.392487        2.000000        0.78039394        0.00346739        0.00206494        0.00198353        0.01226104        0.00165974        0.01110862        0.00288509        0.01050795        0.01076135        0.00542093        0.00724246        0.00682908        0.00555899        0.00560261        0.00819807
      19         -2.392163        2.000000        0.78656508        0.00058979        0.00125983        0.00451641        0.01178888        0.00103939        0.00790593        0.00571131        0.00879314        0.02885691        0.00553939        0.00050966        0.00494506        0.00677690        0.00382277        0.00474335
      20         -2.392163        2.000000        0.78656518        0.00058977        0.00125981        0.00451644        0.01178892        0.00103938        0.00790589        0.00571142        0.00879308        0.02885692        0.00553941        0.00050963        0.00494502        0.00677699        0.00382275        0.00474331
      21         -2.392030        2.000000        0.81851582        0.00000000        0.00189371        0.01236785        0.00000000        0.00000000        0.00787026        0.01634184        0.00563212        0.00000000        0.00000000        0.00000000        0.00711631        0.01232514        0.00296822        0.00292101
      22         -2.391885        2.000000        0.82174315        0.00000000        0.00177585        0.01080056        0.00000000        0.00000000        0.01184675        0.00728831        0.01056765        0.00000000        0.00000000        0.00000000        0.00536231        0.01568434        0.00288197        0.00779238
      23         -2.391831        2.000000        0.81108154        0.00000000        0.00230675        0.00793428        0.00000000        0.00000000        0.01009340        0.01229728        0.01362814        0.00000000        0.00000000        0.00000000        0.00321685        0.02430514        0.00289494        0.00596311
      24         -2.391808        2.000000        0.78940010        0.00315077        0.00097021        0.00426435        0.01357647        0.00065599        0.00591655        0.00404108        0.01241788        0.01628942        0.00417409        0.00495368        0.00390922        0.00894466        0.00351802        0.00748282
      25         -2.391807        2.000000        0.78940011        0.00315076        0.00097021        0.00426437        0.01357648        0.00065599        0.00591654        0.00404109        0.01241786        0.01628945        0.00417409        0.00495367        0.00390921        0.00894468        0.00351802        0.00748280
      26         -2.391657        2.000000        0.78442835        0.00323608        0.00111218        0.00280869        0.01431790        0.00168127        0.00370269        0.00939275        0.00436504        0.00897382        0.00694369        0.00573390        0.00195641        0.01769069        0.00411512        0.00515556
      27         -2.391657        2.000000        0.78442860        0.00323608        0.00111216        0.00280872        0.01431793        0.00168127        0.00370268        0.00939266        0.00436500        0.00897381        0.00694368        0.00573390        0.00195645        0.01769063        0.00411506        0.00515553
      28         -2.391476        2.000000        0.81232933        0.00000000        0.00158057        0.00881974        0.00000000        0.00000000        0.01373561        0.00818136        0.01671979        0.00000000        0.00000000        0.00000000        0.00757494        0.01508890        0.00260129        0.00905924
      29         -2.391316        2.000000        0.79022828        0.00307547        0.00086519        0.00316518        0.01468265        0.00133751        0.00685509        0.00425250        0.00603226        0.01122606        0.00584053        0.00575555        0.00561023        0.01010863        0.00308254        0.00670128
      30         -2.391316        2.000000        0.79022798        0.00307544        0.00086521        0.00316516        0.01468260        0.00133750        0.00685514        0.00425260        0.00603229        0.01122621        0.00584054        0.00575551        0.00561023        0.01010861        0.00308259        0.00670131
      31         -2.391218        2.000000        0.78245991        0.00195206        0.00151855        0.00319427        0.01125069        0.00134435        0.00565580        0.00521551        0.00880131        0.02161812        0.00567673        0.00275750        0.00535432        0.01190600        0.00417086        0.00410676
      32         -2.391218        2.000000        0.78245941        0.00195209        0.00151859        0.00319421        0.01125062        0.00134434        0.00565596        0.00521551        0.00880147        0.02161811        0.00567671        0.00275753        0.00535442        0.01190579        0.00417097        0.00410685
      33         -2.391134        2.000000        0.81573862        0.00000000        0.00289907        0.00843330        0.00000000        0.00000000        0.01108987        0.01183193        0.00189354        0.00000000        0.00000000        0.00000000        0.00687692        0.01851324        0.00357195        0.00271873
      34         -2.390672        2.000000        0.81827259        0.00000000        0.00201074        0.00372140        0.00000000        0.00000000        0.02004042        0.00315882        0.01225371        0.00000000        0.00000000        0.00000000        0.00835333        0.01064481        0.00346823        0.01571482
      35         -2.390566        2.000000        0.78907602        0.00361059        0.00089184        0.00276081        0.01223733        0.00057364        0.00669366        0.00244285        0.01429062        0.01508864        0.00362412        0.00590372        0.00513434        0.00808097        0.00325716        0.00961068
      36         -2.390566        2.000000        0.78907593        0.00361059        0.00089184        0.00276082        0.01223730        0.00057364        0.00669366        0.00244284        0.01429065        0.01508866        0.00362411        0.00590371        0.00513433        0.00808096        0.00325715        0.00961069
      37         -2.390527        2.000000        0.78134260        0.00190294        0.00107063        0.00175386        0.01184601        0.00112294        0.00588320        0.00631756        0.00495049        0.01809637        0.00601703        0.00333775        0.00529588        0.01502689        0.00413118        0.00670556
      38         -2.390527        2.000000        0.78134551        0.00190348        0.00107065        0.00175496        0.01184705        0.00112300        0.00588360        0.00631538        0.00495334        0.01809555        0.00601610        0.00333860        0.00529647        0.01502193        0.00413043        0.00670539
      39         -2.390511        2.000000        0.79505908        0.00177826        0.00067821        0.00217658        0.01330287        0.00164326        0.00521819        0.00374917        0.00515484        0.01991334        0.00602852        0.00234665        0.00550807        0.01097579        0.00247342        0.00875799
      40         -2.390511        2.000000        0.79505616        0.00177774        0.00067819        0.00217550        0.01330185        0.00164320        0.00521777        0.00375139        0.00515198        0.01991405        0.00602945        0.00234583        0.00550745        0.01098081        0.00247416        0.00875810
      41         -2.390507        2.000000        0.81053189        0.00000000        0.00204052        0.00511257        0.00000000        0.00000000        0.01116840        0.00788025        0.01318311        0.00000000        0.00000000        0.00000000        0.00919862        0.01596818        0.00362646        0.01085355
      42         -2.390416        2.000000        0.81274644        0.00000000        0.00146856        0.00237839        0.00000000        0.00000000        0.00734377        0.00711528        0.02018282        0.00000000        0.00000000        0.00000000        0.01163988        0.01516981        0.00362396        0.01624070
      43         -2.390245        2.000000        0.82210696        0.00000000        0.00171032        0.01298803        0.00000000        0.00000000        0.00941905        0.00812924        0.00989805        0.00000001        0.00000000        0.00000000        0.00406320        0.01720065        0.00259100        0.00551113
      44         -2.390191        2.000000        0.78793802        0.00296674        0.00105393        0.00484473        0.01391562        0.00069204        0.00600923        0.00456019        0.01209291        0.01760976        0.00406409        0.00447051        0.00309942        0.00889127        0.00359786        0.00694312
      45         -2.390191        2.000000        0.78793796        0.00296675        0.00105393        0.00484470        0.01391561        0.00069204        0.00600923        0.00456017        0.01209293        0.01760973        0.00406409        0.00447052        0.00309942        0.00889125        0.00359785        0.00694314
      46         -2.389712        2.000000        0.78626331        0.00191247        0.00085736        0.00220079        0.01236418        0.00122500        0.00586737        0.00399023        0.00620339        0.01901644        0.00553993        0.00330503        0.00632380        0.01217232        0.00299538        0.00722698
      47         -2.389712        2.000000        0.78626325        0.00191247        0.00085736        0.00220079        0.01236418        0.00122500        0.00586736        0.00399024        0.00620339        0.01901638        0.00553994        0.00330504        0.00632379        0.01217231        0.00299539        0.00722698
      48         -2.389663        2.000000        0.81109903        0.00000000        0.00178583        0.00454753        0.00000001        0.00000000        0.01110014        0.00713231        0.01441384        0.00000001        0.00000000        0.00000000        0.01026281        0.01596962        0.00314796        0.01170203
      49         -2.387390        2.000000        0.81510680        0.00000000        0.00161742        0.00962810        0.00000002        0.00000000        0.00792885        0.00747814        0.01389298        0.00000002        0.00000001        0.00000001        0.00488060        0.01183100        0.00171971        0.00867017
      50         -2.387365        2.000000        0.78867467        0.00253716        0.00080226        0.00412337        0.01440979        0.00095873        0.00364113        0.00298957        0.00916482        0.01825137        0.00467870        0.00444108        0.00231613        0.00599969        0.00190572        0.00768978
      51         -2.387365        2.000000        0.78867467        0.00253716        0.00080226        0.00412338        0.01440979        0.00095873        0.00364113        0.00298958        0.00916482        0.01825135        0.00467869        0.00444108        0.00231613        0.00599970        0.00190572        0.00768977
      52         -2.386220        2.000000        0.81427615        0.00000000        0.00184745        0.00680986        0.00000000        0.00000000        0.01032313        0.00518958        0.01519615        0.00000000        0.00000000        0.00000000        0.00575428        0.00934589        0.00226162        0.01190382
      53         -2.386196        2.000000        0.78785414        0.00260140        0.00088729        0.00349261        0.01387064        0.00084354        0.00402023        0.00263081        0.00941382        0.01866459        0.00391890        0.00468392        0.00260532        0.00526809        0.00224276        0.00833302
      54         -2.386196        2.000000        0.78785414        0.00260140        0.00088729        0.00349261        0.01387063        0.00084354        0.00402023        0.00263081        0.00941383        0.01866459        0.00391890        0.00468391        0.00260532        0.00526808        0.00224277        0.00833303
      55         -2.385694        2.000000        0.81310681        0.00000000        0.00126140        0.01482191        0.00000000        0.00000000        0.00500416        0.01046925        0.01044524        0.00000000        0.00000000        0.00000000        0.00222596        0.01728318        0.00109174        0.00201293
      56         -2.385633        2.000000        0.78631305        0.00250471        0.00067792        0.00558860        0.01565457        0.00079499        0.00248236        0.00406202        0.00788538        0.01701554        0.00442577        0.00496071        0.00153483        0.00778546        0.00157177        0.00518796
      57         -2.385633        2.000000        0.78631307        0.00250471        0.00067793        0.00558846        0.01565447        0.00079499        0.00248246        0.00406191        0.00788549        0.01701564        0.00442576        0.00496067        0.00153489        0.00778533        0.00157180        0.00518818
      58         -2.385430        2.000000        0.78780337        0.00255597        0.00104925        0.00203185        0.01264501        0.00099228        0.00523485        0.00155320        0.01026835        0.01994208        0.00413513        0.00407480        0.00334937        0.00382238        0.00251918        0.01075980
      59         -2.385430        2.000000        0.78780333        0.00255596        0.00104924        0.00203199        0.01264512        0.00099228        0.00523475        0.00155331        0.01026823        0.01994190        0.00413514        0.00407483        0.00334930        0.00382254        0.00251914        0.01075960
      60         -2.385414        2.000000        0.81393400        0.00000000        0.00219826        0.00170403        0.00000002        0.00000000        0.01306345        0.00210488        0.01899467        0.00000003        0.00000001        0.00000001        0.00831965        0.00428916        0.00285102        0.01858250
      61         -1.475536        2.000000        0.00068169        0.00000000        0.06579792        0.82342713        0.00000000        0.00000000        0.00188456        0.00260787        0.00871121        0.00000000        0.00000000        0.00000000        0.00537314        0.00023541        0.00041730        0.00733212
      62         -1.475098        2.000000        0.00044689        0.00000000        0.02980324        0.85575664        0.00000000        0.00000000        0.00480437        0.00348179        0.00698507        0.00000000        0.00000000        0.00000000        0.00170375        0.00014852        0.00108473        0.00746470
      63         -1.475055        2.000000        0.00053547        0.08695515        0.05810522        0.75065229        0.00281580        0.00117715        0.00282349        0.00227221        0.00541020        0.00020800        0.00101096        0.00092729        0.00586947        0.00049788        0.00032984        0.00087644
      64         -1.475055        2.000000        0.00053547        0.08695691        0.05810418        0.75065157        0.00281579        0.00117714        0.00282349        0.00227222        0.00541020        0.00020800        0.00101095        0.00092730        0.00586947        0.00049788        0.00032984        0.00087643
      65         -1.474541        2.000000        0.00055716        0.08381192        0.04320610        0.76707368        0.00268024        0.00037546        0.00429503        0.00249308        0.00449340        0.00008188        0.00079823        0.00027030        0.00183198        0.00010488        0.00019792        0.00060882
      66         -1.474541        2.000000        0.00055716        0.08381342        0.04320630        0.76707203        0.00268023        0.00037546        0.00429502        0.00249307        0.00449341        0.00008188        0.00079823        0.00027030        0.00183198        0.00010488        0.00019792        0.00060882
      67         -1.474359        2.000000        0.00065035        0.00000000        0.07321921        0.81436832        0.00000000        0.00000000        0.00188324        0.00250102        0.00888941        0.00000000        0.00000000        0.00000000        0.00557980        0.00023597        0.00041397        0.00736864
      68         -1.473921        2.000000        0.00040813        0.00000000        0.03668183        0.84751498        0.00000000        0.00000000        0.00504107        0.00348890        0.00711322        0.00000000        0.00000000        0.00000000        0.00172965        0.00014858        0.00114887        0.00736215
      69         -1.473851        2.000000        0.00046771        0.08956387        0.06067151        0.74399922        0.00289785        0.00117399        0.00285981        0.00227569        0.00555547        0.00021350        0.00099549        0.00097295        0.00609328        0.00051251        0.00038065        0.00077255
      70         -1.473851        2.000000        0.00046771        0.08956417        0.06067245        0.74399803        0.00289785        0.00117400        0.00285977        0.00227567        0.00555549        0.00021350        0.00099550        0.00097296        0.00609331        0.00051251        0.00038065        0.00077256
      71         -1.473594        2.000000        0.00046641        0.00000000        0.03360086        0.85377037        0.00000000        0.00000000        0.00445321        0.00362747        0.00813166        0.00000000        0.00000000        0.00000000        0.00425564        0.00022035        0.00136833        0.00627569
      72         -1.473346        2.000000        0.00042558        0.08801978        0.05277207        0.75178749        0.00257539        0.00034243        0.00466064        0.00252010        0.00437438        0.00007123        0.00075698        0.00017828        0.00257301        0.00016696        0.00029767        0.00058868
      73         -1.473345        2.000000        0.00042552        0.08802882        0.05276866        0.75178214        0.00257525        0.00034245        0.00466083        0.00252019        0.00437423        0.00007124        0.00075690        0.00017826        0.00257355        0.00016701        0.00029771        0.00058874
      74         -1.473298        2.000000        0.00045631        0.11515299        0.03497676        0.74547879        0.00245010        0.00106078        0.00478586        0.00316269        0.00492808        0.00023229        0.00077977        0.00101093        0.00388104        0.00033679        0.00018291        0.00091795
      75         -1.473298        2.000000        0.00045637        0.11514793        0.03497908        0.74548133        0.00245020        0.00106076        0.00478572        0.00316263        0.00492821        0.00023228        0.00077984        0.00101097        0.00388049        0.00033673        0.00018286        0.00091790
      76         -1.472948        2.000000        0.00284563        0.15761998        0.13261862        0.60894909        0.00070882        0.00216978        0.00445433        0.00088971        0.00060896        0.00012125        0.00123407        0.00184648        0.00285723        0.00063727        0.00069539        0.00531879
      77         -1.472948        2.000000        0.00284564        0.15762124        0.13261805        0.60894840        0.00070881        0.00216978        0.00445434        0.00088970        0.00060894        0.00012125        0.00123407        0.00184649        0.00285721        0.00063727        0.00069539        0.00531881
      78         -1.472117        2.000000        0.00486361        0.16360856        0.07559393        0.65810641        0.00024127        0.00065841        0.00188137        0.00112840        0.00060078        0.00033283        0.00110566        0.00040777        0.00218258        0.00012754        0.00011468        0.00458489
      79         -1.472117        2.000000        0.00486360        0.16361019        0.07559399        0.65810470        0.00024127        0.00065841        0.00188136        0.00112841        0.00060078        0.00033284        0.00110567        0.00040777        0.00218257        0.00012754        0.00011468        0.00458489
      80         -1.471851        2.000000        0.00278329        0.12941498        0.16143273        0.60742649        0.00070329        0.00236991        0.00494029        0.00080605        0.00043364        0.00008974        0.00133919        0.00185302        0.00283261        0.00081578        0.00087146        0.00551113
      81         -1.471851        2.000000        0.00278327        0.12941698        0.16143173        0.60742540        0.00070328        0.00236992        0.00494028        0.00080604        0.00043365        0.00008974        0.00133919        0.00185303        0.00283262        0.00081577        0.00087146        0.00551115
      82         -1.471636        2.000000        0.00559553        0.00000000        0.38099284        0.52457548        0.00000000        0.00000000        0.00540635        0.00459714        0.00124357        0.00000000        0.00000000        0.00000000        0.00079735        0.00352828        0.00125682        0.00095188
      83         -1.471138        2.000000        0.00336627        0.22455300        0.08959693        0.58535685        0.00065206        0.00154595        0.00430772        0.00121211        0.00065168        0.00025227        0.00091275        0.00196724        0.00206294        0.00054112        0.00034070        0.00526756
      84         -1.471138        2.000000        0.00336623        0.22455880        0.08959441        0.58535357        0.00065205        0.00154595        0.00430769        0.00121213        0.00065172        0.00025227        0.00091274        0.00196725        0.00206296        0.00054111        0.00034069        0.00526757
      85         -1.470971        2.000000        0.00485818        0.17703598        0.09053233        0.62919988        0.00032347        0.00046051        0.00145788        0.00163679        0.00083141        0.00033228        0.00099596        0.00030431        0.00290013        0.00015489        0.00017543        0.00443235
      86         -1.470971        2.000000        0.00485816        0.17703585        0.09053420        0.62919802        0.00032348        0.00046051        0.00145791        0.00163678        0.00083141        0.00033229        0.00099597        0.00030431        0.00290009        0.00015490        0.00017544        0.00443235
      87         -1.470691        2.000000        0.00439657        0.00000000        0.45289376        0.45066182        0.00000000        0.00000000        0.00635530        0.00576458        0.00107532        0.00000000        0.00000000        0.00000000        0.00052983        0.00571636        0.00099516        0.00140458
      88         -1.470643        2.000000        0.00192983        0.22667139        0.39983402        0.27807558        0.00417945        0.00065026        0.00447133        0.00248577        0.00093135        0.00100934        0.00082425        0.00166162        0.00102166        0.00345612        0.00509674        0.00100483
      89         -1.470643        2.000000        0.00192985        0.22667572        0.39982973        0.27807553        0.00417946        0.00065025        0.00447135        0.00248572        0.00093137        0.00100937        0.00082424        0.00166163        0.00102165        0.00345611        0.00509673        0.00100483