# Projected DOS for atomic kind O at iteration step i = 1, E(Fermi) =    -0.274451 a.u.
#     MO Eigenvalue [a.u.]      Occupation                 s                py                pz                px               d-2               d-1                d0               d+1               d+2
       1         -2.394638        2.000000        0.04095447        0.00000000        0.03285212        0.01655934        0.00000000        0.00000000        0.00733723        0.00300932        0.00739979
       2         -2.394453        2.000000        0.01791667        0.04602234        0.02960492        0.01574928        0.00089022        0.00005327        0.00410815        0.00282048        0.00411215
       3         -2.394453        2.000000        0.01791670        0.04602235        0.02960493        0.01574924        0.00089022        0.00005327        0.00410816        0.00282048        0.00411214
       4         -2.393250        2.000000        0.02775796        0.00000002        0.02276639        0.03532059        0.00000000        0.00000000        0.00651748        0.00439602        0.01036941
       5         -2.393240        2.000000        0.01219525        0.04344206        0.02531978        0.02318332        0.00081011        0.00005604        0.00351281        0.00296592        0.00649304
       6         -2.393240        2.000000        0.01219525        0.04344202        0.02531982        0.02318330        0.00081011        0.00005604        0.00351281        0.00296592        0.00649305
       7         -2.393124        2.000000        0.02549882        0.00000000        0.02482461        0.03569199        0.00000000        0.00000000        0.00546713        0.00384888        0.01206697
       8         -2.393069        2.000000        0.01140700        0.04434577        0.01646917        0.03235590        0.00096290        0.00002903        0.00379560        0.00527125        0.00359296
       9         -2.393069        2.000000        0.01140703        0.04434578        0.01646913        0.03235592        0.00096290        0.00002903        0.00379561        0.00527125        0.00359295
      10         -2.392946        2.000000        0.04794031        0.00000000        0.02885473        0.01311101        0.00000000        0.00000000        0.00824928        0.00306081        0.00561102
      11         -2.392679        2.000000        0.03297627        0.00000000        0.04544319        0.01287820        0.00000000        0.00000000        0.00697268        0.00240330        0.00752376
      12         -2.392650        2.000000        0.02345037        0.04942290        0.02438241        0.01268323        0.00085923        0.00004380        0.00502818        0.00282922        0.00239635
      13         -2.392650        2.000000        0.02345060        0.04942294        0.02438216        0.01268289        0.00085924        0.00004381        0.00502823        0.00282920        0.00239643
      14         -2.392645        2.000000        0.03184517        0.00000000        0.02891862        0.02125841        0.00000000        0.00000000        0.00567239        0.00385132        0.00960005
      15         -2.392559        2.000000        0.01361625        0.04683453        0.02541156        0.01749228        0.00093513        0.00003850        0.00294522        0.00383251        0.00440227
      16         -2.392559        2.000000        0.01361626        0.04683452        0.02541160        0.01749227        0.00093513        0.00003850        0.00294521        0.00383250        0.00440227
      17         -2.392487        2.000000        0.01397605        0.04531635        0.04022866        0.01305908        0.00088536        0.00006277        0.00396214        0.00233893        0.00422486
      18         -2.392487        2.000000        0.01397601        0.04531635        0.04022882        0.01305908        0.00088536        0.00006277        0.00396212        0.00233892        0.00422486
      19         -2.392163        2.000000        0.01114378        0.04080984        0.02619860        0.02360609        0.00078146        0.00004920        0.00289473        0.00238667        0.00876582
      20         -2.392163        2.000000        0.01114366        0.04080997        0.02619808        0.02360645        0.00078146        0.00004920        0.00289474        0.00238673        0.00876578
      21         -2.392030        2.000000        0.02692143        0.00000000        0.02624236        0.03640463        0.00000000        0.00000000        0.00483917        0.00284205        0.01479808
      22         -2.391885        2.000000        0.03079142        0.00000000        0.02708168        0.02660365        0.00000000        0.00000000        0.00557184        0.00428585        0.00992228
      23         -2.391831        2.000000        0.02195640        0.00000000        0.02628693        0.03665347        0.00000000        0.00000000        0.00772517        0.00617562        0.00748099
      24         -2.391808        2.000000        0.01416721        0.04551219        0.02435144        0.01995968        0.00095208        0.00005513        0.00287402        0.00402815        0.00443481
      25         -2.391807        2.000000        0.01416719        0.04551217        0.02435144        0.01995970        0.00095208        0.00005513        0.00287402        0.00402815        0.00443482
      26         -2.391657        2.000000        0.00921895        0.04405384        0.02127757        0.03624510        0.00097340        0.00005199        0.00397278        0.00620289        0.00238935
      27         -2.391657        2.000000        0.00921892        0.04405387        0.02127747        0.03624507        0.00097340        0.00005199        0.00397283        0.00620293        0.00238934
      28         -2.391476        2.000000        0.02381316        0.00000000        0.02051233        0.03810809        0.00000000        0.00000000        0.00839326        0.00722235        0.00626004
      29         -2.391316        2.000000        0.00959463        0.04467412        0.02163589        0.02973067        0.00104647        0.00005050        0.00519888        0.00620180        0.00304809
      30         -2.391316        2.000000        0.00959460        0.04467413        0.02163606        0.02973065        0.00104647        0.00005050        0.00519881        0.00620174        0.00304814
      31         -2.391218        2.000000        0.01132165        0.04278299        0.03868899        0.01618549        0.00074525        0.00009554        0.00368771        0.00223052        0.00727912
      32         -2.391218        2.000000        0.01132181        0.04278301        0.03868955        0.01618508        0.00074524        0.00009554        0.00368765        0.00223039        0.00727915
      33         -2.391134        2.000000        0.02170355        0.00000000        0.04684678        0.02502991        0.00000000        0.00000000        0.00456508        0.00139246        0.01689505
      34         -2.390672        2.000000        0.03418100        0.00000000        0.03066541        0.01910364        0.00000000        0.00000000        0.00568072        0.00361109        0.00911928
      35         -2.390566        2.000000        0.01444128        0.04678506        0.02611665        0.01723251        0.00094883        0.00004668        0.00299027        0.00381928        0.00434246
      36         -2.390566        2.000000        0.01444128        0.04678517        0.02611665        0.01723250        0.00094884        0.00004668        0.00299026        0.00381927        0.00434246
      37         -2.390527        2.000000        0.00646158        0.04114899        0.03018091        0.03249041        0.00093135        0.00006007        0.00334690        0.00558126        0.00499764
      38         -2.390527        2.000000        0.00646627        0.04115071        0.03017766        0.03248593        0.00093136        0.00006006        0.00334764        0.00558101        0.00499791
      39         -2.390511        2.000000        0.00631720        0.04159168        0.01103326        0.03718668        0.00107455        0.00005026        0.00591394        0.00740211        0.00466607
      40         -2.390511        2.000000        0.00631254        0.04158999        0.01103651        0.03719114        0.00107455        0.00005027        0.00591321        0.00740236        0.00466579
      41         -2.390507        2.000000        0.01648290        0.00000001        0.02960266        0.04120930        0.00000000        0.00000000        0.00566781        0.00578004        0.01169373
      42         -2.390416        2.000000        0.00808613        0.00000000        0.01757086        0.05162909        0.00000000        0.00000000        0.00638035        0.00714604        0.01127794
      43         -2.390245        2.000000        0.03028559        0.00000001        0.02460229        0.03080206        0.00000000        0.00000000        0.00551222        0.00431852        0.01086167
      44         -2.390191        2.000000        0.01491016        0.04508079        0.02188934        0.02279558        0.00089919        0.00004756        0.00279556        0.00385971        0.00497268
      45         -2.390191        2.000000        0.01491015        0.04508091        0.02188936        0.02279555        0.00089919        0.00004756        0.00279556        0.00385970        0.00497267
      46         -2.389712        2.000000        0.00750194        0.04185154        0.02664870        0.02990507        0.00099438        0.00005114        0.00435491        0.00595965        0.00526869
      47         -2.389712        2.000000        0.00750196        0.04185165        0.02664868        0.02990508        0.00099438        0.00005114        0.00435492        0.00595965        0.00526868
      48         -2.389663        2.000000        0.01409330        0.00000002        0.02869096        0.04204220        0.00000000        0.00000000        0.00578278        0.00594649        0.01228314
      49         -2.387390        2.000000        0.02413010        0.00000005        0.02275996        0.04839093        0.00000000        0.00000000        0.00450839        0.00754015        0.00991660
      50         -2.387365        2.000000        0.01309108        0.03777032        0.02075732        0.03882528        0.00125736        0.00030428        0.00297860        0.00750797        0.00492382
      51         -2.387365        2.000000        0.01309109        0.03777030        0.02075733        0.03882528        0.00125736        0.00030428        0.00297860        0.00750797        0.00492382
      52         -2.386220        2.000000        0.02436091        0.00000001        0.02317503        0.04758885        0.00000000        0.00000000        0.00491911        0.00724694        0.00980124
      53         -2.386196        2.000000        0.01347886        0.03849883        0.02159206        0.03810482        0.00120577        0.00031832        0.00340465        0.00704359        0.00502202
      54         -2.386196        2.000000        0.01347886        0.03849882        0.02159206        0.03810482        0.00120577        0.00031832        0.00340465        0.00704359        0.00502202
      55         -2.385694        2.000000        0.02731365        0.00000000        0.02448389        0.04782473        0.00000000        0.00000000        0.00498958        0.00718327        0.01048229
      56         -2.385633        2.000000        0.01390249        0.03917860        0.02148049        0.03984735        0.00123044        0.00025542        0.00315298        0.00748224        0.00502435
      57         -2.385633        2.000000        0.01390241        0.03917857        0.02148040        0.03984738        0.00123045        0.00025542        0.00315297        0.00748227        0.00502435
      58         -2.385430        2.000000        0.01238089        0.03855656        0.02059986        0.03839903        0.00123377        0.00022745        0.00334306        0.00757091        0.00495161
      59         -2.385430        2.000000        0.01238097        0.03855667        0.02059992        0.03839901        0.00123377        0.00022745        0.00334307        0.00757089        0.00495161
      60         -2.385414        2.000000        0.02073073        0.00000007        0.02103910        0.04981922        0.00000000        0.00000000        0.00465244        0.00808512        0.00963162
      61         -1.475536        2.000000        0.03787058        0.00000000        0.01898013        0.01920397        0.00000000        0.00000000        0.00436046        0.00149338        0.00162313
      62         -1.475098        2.000000        0.02996100        0.00000000        0.02650602        0.02666108        0.00000000        0.00000000        0.00213062        0.00149320        0.00156837
      63         -1.475055        2.000000        0.04133401        0.00151297        0.01635915        0.01165492        0.00122501        0.00016883        0.00436778        0.00143436        0.00147610
      64         -1.475055        2.000000        0.04133406        0.00151295        0.01635912        0.01165493        0.00122502        0.00016883        0.00436777        0.00143436        0.00147611
      65         -1.474541        2.000000        0.03643974        0.00304031        0.02766251        0.01315123        0.00105474        0.00008863        0.00294870        0.00143831        0.00129576
      66         -1.474541        2.000000        0.03643986        0.00304031        0.02766244        0.01315113        0.00105474        0.00008863        0.00294873        0.00143831        0.00129576
      67         -1.474359        2.000000        0.03892035        0.00000000        0.01910118        0.01923179        0.00000000        0.00000000        0.00449204        0.00154934        0.00159538
      68         -1.473921        2.000000        0.03062342        0.00000000        0.02592180        0.02750906        0.00000000        0.00000000        0.00219030        0.00154242        0.00157562
      69         -1.473851        2.000000        0.04241569        0.00140998        0.01592294        0.01203529        0.00125578        0.00017592        0.00443865        0.00145676        0.00148292
      70         -1.473851        2.000000        0.04241574        0.00141001        0.01592295        0.01203513        0.00125577        0.00017592        0.00443868        0.00145675        0.00148292
      71         -1.473594        2.000000        0.03191463        0.00000000        0.01610086        0.02996206        0.00000000        0.00000000        0.00268570        0.00141029        0.00175648
      72         -1.473346        2.000000        0.03695872        0.00294565        0.02604682        0.01501208        0.00109575        0.00009518        0.00296871        0.00147551        0.00129089
      73         -1.473345        2.000000        0.03695859        0.00294552        0.02604507        0.01501326        0.00109582        0.00009519        0.00296865        0.00147548        0.00129092
      74         -1.473298        2.000000        0.03956842        0.00140393        0.01579244        0.01531047        0.00143979        0.00017636        0.00345988        0.00149698        0.00155769
      75         -1.473298        2.000000        0.03956857        0.00140406        0.01579404        0.01530930        0.00143974        0.00017636        0.00345994        0.00149701        0.00155766
      76         -1.472948        2.000000        0.03778187        0.01177738        0.01526380        0.00346340        0.00030524        0.00037960        0.00460609        0.00128673        0.00156049
      77         -1.472948        2.000000        0.03778187        0.01177748        0.01526376        0.00346336        0.00030523        0.00037960        0.00460609        0.00128673        0.00156049
      78         -1.472117        2.000000        0.03199172        0.01458137        0.02771336        0.00421286        0.00020071        0.00013612        0.00292612        0.00118085        0.00151820
      79         -1.472117        2.000000        0.03199173        0.01458144        0.02771337        0.00421281        0.00020070        0.00013612        0.00292613        0.00118084        0.00151820
      80         -1.471851        2.000000        0.03890262        0.01100635        0.01483681        0.00298240        0.00026024        0.00037662        0.00500083        0.00134933        0.00166119
      81         -1.471851        2.000000        0.03890263        0.01100647        0.01483681        0.00298238        0.00026024        0.00037662        0.00500083        0.00134932        0.00166118
      82         -1.471636        2.000000        0.03573539        0.00000000        0.01751310        0.00619739        0.00000000        0.00000000        0.00593384        0.00150352        0.00417153
      83         -1.471138        2.000000        0.03539489        0.01497073        0.01368291        0.00630106        0.00028703        0.00036453        0.00364594        0.00121762        0.00154813
      84         -1.471138        2.000000        0.03539490        0.01497097        0.01368273        0.00630107        0.00028702        0.00036453        0.00364593        0.00121762        0.00154812
      85         -1.470971        2.000000        0.03189305        0.01503139        0.02528981        0.00621907        0.00021099        0.00013743        0.00275625        0.00125307        0.00157719
      86         -1.470971        2.000000        0.03189313        0.01503140        0.02528992        0.00621893        0.00021099        0.00013743        0.00275628        0.00125306        0.00157719
      87         -1.470691        2.000000        0.03622702        0.00000000        0.01260047        0.01090532        0.00000000        0.00000000        0.00478651        0.00132317        0.00436424
      88         -1.470643        2.000000        0.03717562        0.00444129        0.00887545        0.00794590        0.00110211        0.00072408        0.00274462        0.00071673        0.00297064
      89         -1.470643        2.000000        0.03717565        0.00444135        0.00887534        0.00794589        0.00110213        0.00072408        0.00274464        0.00071672        0.00297065
      90         -1.470429        2.000000        0.02936928        0.00000000        0.03049723        0.00753349        0.00000000        0.00000000        0.00381571        0.00101632        0.00417726
      91         -1.469872        2.000000        0.03488731        0.01041329        0.00820229        0.00434042        0.00060904        0.00082424        0.00306155        0.00109173        0.00275387
      92         -1.469872        2.000000        0.03488728        0.01041355        0.00820210        0.00434034        0.00060904        0.00082423        0.00306156        0.00109171        0.00275387
      93         -1.469833        2.000000        0.02717651        0.00000000        0.03277183        0.00664137        0.00000000        0.00000000        0.00364997        0.00111540        0.00404617
      94         -1.469510        2.000000        0.03633155        0.00524198        0.00772926        0.00797126        0.00134305        0.00069859        0.00309805        0.00065978        0.00311194
      95         -1.469510        2.000000        0.03633157        0.00524184        0.00772924        0.00797133        0.00134308        0.00069859        0.00309807        0.00065978        0.00311194
      96         -1.469084        2.000000        0.02693819        0.00000000        0.01868104        0.01805400        0.00000000        0.00000000        0.00244654        0.00076543        0.00450037
      97         -1.468991        2.000000        0.02688101        0.00000000        0.03326627        0.00457261        0.00000000        0.00000000        0.00374713        0.00139579        0.00402593
      98         -1.468774        2.000000        0.03214472        0.01420102        0.00742708        0.00368953        0.00067068        0.00070306        0.00320842        0.00099574        0.00283423
      99         -1.468774        2.000000        0.03214481        0.01420127        0.00742678        0.00368943        0.00067070        0.00070306        0.00320845        0.00099573        0.00283426
     100         -1.468570        2.000000        0.03502474        0.00000000        0.01272136        0.00745958        0.00000000        0.00000000        0.00252504        0.00306200        0.00436835
     101         -1.468373        2.000000        0.03181903        0.00283302        0.01083339        0.01055161        0.00150245        0.00076508        0.00350814        0.00097417        0.00279221
     102         -1.468373        2.000000        0.03181917        0.00283306        0.01083325        0.01055143        0.00150247        0.00076507        0.00350816        0.00097415        0.00279224
     103         -1.467841        2.000000        0.01734190        0.00000000        0.04835825        0.00521667        0.00000000        0.00000000        0.00114518        0.00143393        0.00375858
     104         -1.467806        2.000000        0.02786314        0.01647183        0.00622772        0.00484327        0.00091526        0.00050947        0.00381310        0.00107300        0.00296337
     105         -1.467806        2.000000        0.02786343        0.01647183        0.00622724        0.00484309        0.00091529        0.00050946        0.00381315        0.00107300        0.00296348
     106         -1.467591        2.000000        0.02896271        0.01183357        0.00369917        0.00433694        0.00126916        0.00081327        0.00416868        0.00096057        0.00510354
     107         -1.467591        2.000000        0.02896279        0.01183326        0.00369920        0.00433680        0.00126911        0.00081334        0.00416874        0.00096060        0.00510366
     108         -1.467532        2.000000        0.02681620        0.00000000        0.01643912        0.01508530        0.00000000        0.00000000        0.00207814        0.00272980        0.00358666
     109         -1.467470        2.000000        0.02654705        0.01393462        0.00359842        0.00708786        0.00075800        0.00063969        0.00379845        0.00259246        0.00326152
     110         -1.467470        2.000000        0.02654705        0.01393480        0.00359833        0.00708762        0.00075795        0.00063974        0.00379846        0.00259237        0.00326171
     111         -1.467103        2.000000        0.02472601        0.00000000        0.01389530        0.02186248        0.00000000        0.00000000        0.00222151        0.00150981        0.00387834
     112         -1.466976        2.000000        0.01964246        0.01268121        0.01435880        0.00435451        0.00075517        0.00093622        0.00447745        0.00110048        0.00583694
     113         -1.466976        2.000000        0.01964266        0.01268116        0.01435850        0.00435448        0.00075521        0.00093621        0.00447746        0.00110046        0.00583698
     114         -1.466586        2.000000        0.02053135        0.01620009        0.00871990        0.00578152        0.00088791        0.00077890        0.00354495        0.00165641        0.00456744
     115         -1.466586        2.000000        0.02053131        0.01619997        0.00871990        0.00578158        0.00088790        0.00077891        0.00354496        0.00165646        0.00456746
     116         -1.466419        2.000000        0.00000000        0.07801443        0.00000000        0.00000000        0.00160979        0.00099428        0.00000000        0.00000000        0.00000000
     117         -1.466297        2.000000        0.02094770        0.01182935        0.01278863        0.00834341        0.00066856        0.00091159        0.00369352        0.00232477        0.00326418
     118         -1.466297        2.000000        0.02094780        0.01182952        0.01278820        0.00834325        0.00066857        0.00091158        0.00369352        0.00232479        0.00326428
     119         -1.466220        2.000000        0.02398277        0.01079387        0.00925255        0.00750594        0.00087048        0.00087461        0.00409996        0.00262991        0.00343483
     120         -1.466220        2.000000        0.02398284        0.01079370        0.00925259        0.00750627        0.00087049        0.00087460        0.00409988        0.00262991        0.00343477
     121         -1.466193        2.000000        0.01806433        0.00000000        0.02301807        0.02085384        0.00000000        0.00000000        0.00198816        0.00334312        0.00219322
     122         -1.466157        2.000000        0.02239586        0.00941282        0.01346625        0.00555507        0.00072510        0.00101674        0.00451627        0.00224113        0.00414326
     123         -1.466157        2.000000        0.02239593        0.00941286        0.01346605        0.00555478        0.00072512        0.00101675        0.00451634        0.00224108        0.00414338
     124         -1.465988        2.000000        0.02231086        0.00980149        0.01511033        0.00545832        0.00081844        0.00086728        0.00366229        0.00218399        0.00412357
     125         -1.465987        2.000000        0.02231130        0.00980152        0.01510977        0.00545832        0.00081844        0.00086730        0.00366226        0.00218394        0.00412363
     126         -1.465782        2.000000        0.01988734        0.00000000        0.01478325        0.02366127        0.00000000        0.00000000        0.00180901        0.00236710        0.00319835
     127         -1.465719        2.000000        0.02187148        0.00960641        0.01064065        0.00567478        0.00063010        0.00116223        0.00410878        0.00181980        0.00529132
     128         -1.465719        2.000000        0.02187144        0.00960642        0.01064083        0.00567465        0.00063012        0.00116222        0.00410880        0.00181979        0.00529136
     129         -1.465548        2.000000        0.01953041        0.01005721        0.01904968        0.00495744        0.00097502        0.00077823        0.00368067        0.00094369        0.00563469
     130         -1.465548        2.000000        0.01953025        0.01005724        0.01904983        0.00495757        0.00097501        0.00077824        0.00368063        0.00094367        0.00563469
     131         -1.465388        2.000000        0.01620233        0.00869562        0.02379374        0.00811672        0.00064457        0.00104402        0.00285479        0.00190883        0.00355150
     132         -1.465388        2.000000        0.01620249        0.00869593        0.02379333        0.00811644        0.00064456        0.00104401        0.00285479        0.00190877        0.00355160
     133         -1.465085        2.000000        0.00000000        0.07742711        0.00000000        0.00000000        0.00212578        0.00052367        0.00000000        0.00000000        0.00000000
     134         -1.465033        2.000000        0.00000001        0.07833396        0.00000001        0.00000001        0.00188358        0.00085769        0.00000000        0.00000000        0.00000000
     135         -1.465027        2.000000        0.02196533        0.01022631        0.00881695        0.00741174        0.00096266        0.00110167        0.00423839        0.00215220        0.00424846
     136         -1.465027        2.000000        0.02196533        0.01022650        0.00881699        0.00741162        0.00096263        0.00110170        0.00423842        0.00215216        0.00424844
     137         -1.465003        2.000000        0.00986784        0.00000002        0.03572032        0.02098369        0.00000000        0.00000000        0.00139803        0.00276721        0.00148079
     138         -1.464912        2.000000        0.02289462        0.00605551        0.00715473        0.00621875        0.00107131        0.00117834        0.00474497        0.00301879        0.00452331
     139         -1.464912        2.000000        0.02289505        0.00605532        0.00715400        0.00621843        0.00107135        0.00117833        0.00474503        0.00301884        0.00452341
     140         -1.464852        2.000000        0.01644603        0.00862143        0.02205659        0.01013579        0.00049934        0.00122212        0.00286562        0.00160036        0.00363758
     141         -1.464852        2.000000        0.01644523        0.00862124        0.02205836        0.01013633        0.00049932        0.00122210        0.00286540        0.00160032        0.00363751
     142         -1.464780        2.000000        0.00000000        0.07286944        0.00000000        0.00000000        0.00265436        0.00117599        0.00000000        0.00000000        0.00000000
     143         -1.464721        2.000000        0.00000000        0.07915744        0.00000000        0.00000000        0.00134296        0.00158352        0.00000000        0.00000000        0.00000000
     144         -1.464616        2.000000        0.01815924        0.00000000        0.01627162        0.02442682        0.00000000        0.00000000        0.00182051        0.00291241        0.00288972