<?xml version="1.0" encoding="ISO-8859-1"?>
<modeling>
 <generator>
  <i name="program" type="string">vasp </i>
  <i name="version" type="string">5.4.4.18Apr17-6-g9f103f2a35  </i>
  <i name="subversion" type="string">(build May 08 2019 13:49:07) complex            parallel </i>
  <i name="platform" type="string">LinuxIFC </i>
  <i name="date" type="string">2019 11 13 </i>
  <i name="time" type="string">13:27:43 </i>
 </generator>
 <incar>
  <i type="string" name="SYSTEM"> CuCO</i>
  <i type="int" name="ISTART">     0</i>
  <i type="string" name="PREC">accurate</i>
  <i type="string" name="ALGO"> Fast</i>
  <i type="int" name="ISPIN">     2</i>
  <i type="int" name="INIWAV">     1</i>
  <i type="int" name="NELM">   300</i>
  <i type="int" name="NELMIN">     3</i>
  <i type="int" name="IBRION">    -1</i>
  <i name="EDIFF">      0.00000010</i>
  <i name="EDIFFG">     -0.00100000</i>
  <i type="int" name="NSW">     0</i>
  <i type="int" name="ISYM">     0</i>
  <i name="ENCUT">    600.00000000</i>
  <i name="NUPDOWN">      1.00000000</i>
  <i type="logical" name="LREAL"> F  </i>
  <i type="int" name="ISMEAR">     1</i>
  <i name="SIGMA">      0.10000000</i>
  <i name="KSPACING">      0.50000000</i>
  <i type="logical" name="KGAMMA"> F  </i>
  <i type="logical" name="LWAVE"> F  </i>
  <i type="logical" name="LCHARG"> F  </i>
  <v type="int" name="KPOINT_BSE">    -1     0     0     0</v>
  <i type="int" name="NELM">   300</i>
  <i type="string" name="GGA"> PE</i>
 </incar>
 <structure name="primitive_cell" >
  <crystal>
   <varray name="basis" >
    <v>      15.00000000       0.00000000       0.00000000 </v>
    <v>       0.00000000      15.00000000       0.00000000 </v>
    <v>       0.00000000       0.00000000      15.00000000 </v>
   </varray>
   <i name="volume">   3375.00000000 </i>
   <varray name="rec_basis" >
    <v>       0.06666667       0.00000000       0.00000000 </v>
    <v>       0.00000000       0.06666667       0.00000000 </v>
    <v>       0.00000000       0.00000000       0.06666667 </v>
   </varray>
  </crystal>
  <varray name="positions" >
   <v>       0.29468800       0.42685267      -0.45171733 </v>
   <v>       0.37754200      -0.45041800       0.49005133 </v>
   <v>       0.42066800       0.39951000       0.45469400 </v>
   <v>       0.34061267      -0.45206933      -0.35583933 </v>
   <v>       0.38517333       0.28832933      -0.43213933 </v>
   <v>       0.22437333      -0.42187800      -0.46234800 </v>
   <v>       0.45213267       0.43237933      -0.38239733 </v>
   <v>      -0.46275933      -0.49509133       0.49338333 </v>
   <v>      -0.45441733       0.34502267      -0.47229067 </v>
   <v>       0.34332867      -0.31300000      -0.43358067 </v>
   <v>       0.48572867      -0.40106933      -0.38255667 </v>
   <v>       0.48569467      -0.34316133       0.47336467 </v>
   <v>      -0.37645867       0.46746867      -0.37830800 </v>
   <v>      -0.25653333       0.48781067      -0.36328133 </v>
   <v>      -0.18326667      -0.48687600      -0.36448133 </v>
  </varray>
 </structure>
 <varray name="primitive_index" >
  <v type="int" >        1 </v>
  <v type="int" >        2 </v>
  <v type="int" >        7 </v>
  <v type="int" >        9 </v>
  <v type="int" >        3 </v>
  <v type="int" >        8 </v>
  <v type="int" >        6 </v>
  <v type="int" >        4 </v>
  <v type="int" >        5 </v>
  <v type="int" >       10 </v>
  <v type="int" >       13 </v>
  <v type="int" >       11 </v>
  <v type="int" >       12 </v>
  <v type="int" >       14 </v>
  <v type="int" >       15 </v>
 </varray>
 <kpoints>
  <generation param="Monkhorst-Pack">
   <v type="int" name="divisions">       1        1        1 </v>
   <v name="usershift">      0.00000000       0.00000000       0.00000000 </v>
   <v name="genvec1">      1.00000000       0.00000000       0.00000000 </v>
   <v name="genvec2">      0.00000000       1.00000000       0.00000000 </v>
   <v name="genvec3">      0.00000000       0.00000000       1.00000000 </v>
   <v name="shift">      0.00000000       0.00000000       0.00000000 </v>
  </generation>
  <varray name="kpointlist" >
   <v>       0.00000000       0.00000000       0.00000000 </v>
  </varray>
  <varray name="weights" >
   <v>       1.00000000 </v>
  </varray>
 </kpoints>
 <parameters>
  <separator name="general" >
   <i type="string" name="SYSTEM">CuCO</i>
   <i type="logical" name="LCOMPAT"> F  </i>
  </separator>
  <separator name="electronic" >
   <i type="string" name="PREC">accura</i>
   <i name="ENMAX">    600.00000000</i>
   <i name="ENAUG">    644.87300000</i>
   <i name="EDIFF">      0.00000010</i>
   <i type="int" name="IALGO">    68</i>
   <i type="int" name="IWAVPR">    10</i>
   <i type="int" name="NBANDS">    92</i>
   <i name="NELECT">    153.00000000</i>
   <i type="int" name="TURBO">     0</i>
   <i type="int" name="IRESTART">     0</i>
   <i type="int" name="NREBOOT">     0</i>
   <i type="int" name="NMIN">     0</i>
   <i name="EREF">      0.00000000</i>
   <separator name="electronic smearing" >
    <i type="int" name="ISMEAR">     1</i>
    <i name="SIGMA">      0.10000000</i>
    <i name="KSPACING">      0.50000000</i>
    <i type="logical" name="KGAMMA"> F  </i>
   </separator>
   <separator name="electronic projectors" >
    <i type="logical" name="LREAL"> F  </i>
    <v name="ROPT">      0.00000000      0.00000000      0.00000000</v>
    <i type="int" name="LMAXPAW">  -100</i>
    <i type="int" name="LMAXMIX">     2</i>
    <i type="logical" name="NLSPLINE"> F  </i>
   </separator>
   <separator name="electronic startup" >
    <i type="int" name="ISTART">     0</i>
    <i type="int" name="ICHARG">     2</i>
    <i type="int" name="INIWAV">     1</i>
   </separator>
   <separator name="electronic spin" >
    <i type="int" name="ISPIN">     2</i>
    <i type="logical" name="LNONCOLLINEAR"> F  </i>
    <v name="MAGMOM">      0.06666667      0.06666667      0.06666667      0.06666667      0.06666667      0.06666667      0.06666667      0.06666667      0.06666667      0.06666667      0.06666667      0.06666667      0.06666667      0.06666667      0.06666667</v>
    <i name="NUPDOWN">      1.00000000</i>
    <i type="logical" name="LSORBIT"> F  </i>
    <v name="SAXIS">      0.00000000      0.00000000      1.00000000</v>
    <i type="logical" name="LSPIRAL"> F  </i>
    <v name="QSPIRAL">      0.00000000      0.00000000      0.00000000</v>
    <i type="logical" name="LZEROZ"> F  </i>
   </separator>
   <separator name="electronic exchange-correlation" >
    <i type="logical" name="LASPH"> F  </i>
    <i type="logical" name="LMETAGGA"> F  </i>
   </separator>
   <separator name="electronic convergence" >
    <i type="int" name="NELM">   300</i>
    <i type="int" name="NELMDL">    -5</i>
    <i type="int" name="NELMIN">     3</i>
    <i name="ENINI">    600.00000000</i>
    <separator name="electronic convergence detail" >
     <i type="logical" name="LDIAG"> T  </i>
     <i type="logical" name="LSUBROT"> F  </i>
     <i name="WEIMIN">      0.00000000</i>
     <i name="EBREAK">      0.00000000</i>
     <i name="DEPER">      0.30000000</i>
     <i type="int" name="NRMM">     4</i>
     <i name="TIME">      0.40000000</i>
    </separator>
   </separator>
   <separator name="electronic mixer" >
    <i name="AMIX">      0.40000000</i>
    <i name="BMIX">      1.00000000</i>
    <i name="AMIN">      0.10000000</i>
    <i name="AMIX_MAG">      1.60000000</i>
    <i name="BMIX_MAG">      1.00000000</i>
    <separator name="electronic mixer details" >
     <i type="int" name="IMIX">     4</i>
     <i type="logical" name="MIXFIRST"> F  </i>
     <i type="int" name="MAXMIX">   -45</i>
     <i name="WC">    100.00000000</i>
     <i type="int" name="INIMIX">     1</i>
     <i type="int" name="MIXPRE">     1</i>
     <i type="int" name="MREMOVE">     5</i>
    </separator>
   </separator>
   <separator name="electronic dipolcorrection" >
    <i type="logical" name="LDIPOL"> F  </i>
    <i type="logical" name="LMONO"> F  </i>
    <i type="int" name="IDIPOL">     0</i>
    <i name="EPSILON">      1.00000000</i>
    <v name="DIPOL">   -100.00000000   -100.00000000   -100.00000000</v>
    <i name="EFIELD">      0.00000000</i>
   </separator>
  </separator>
  <separator name="grids" >
   <i type="int" name="NGX">   120</i>
   <i type="int" name="NGY">   120</i>
   <i type="int" name="NGZ">   120</i>
   <i type="int" name="NGXF">   240</i>
   <i type="int" name="NGYF">   240</i>
   <i type="int" name="NGZF">   240</i>
   <i type="logical" name="ADDGRID"> F  </i>
  </separator>
  <separator name="ionic" >
   <i type="int" name="NSW">     0</i>
   <i type="int" name="IBRION">    -1</i>
   <i type="int" name="MDALGO">     0</i>
   <i type="int" name="ISIF">     2</i>
   <i name="PSTRESS">      0.00000000</i>
   <i name="EDIFFG">     -0.00100000</i>
   <i type="int" name="NFREE">     0</i>
   <i name="POTIM">      0.50000000</i>
   <i name="SMASS">     -3.00000000</i>
   <i name="SCALEE">      1.00000000</i>
  </separator>
  <separator name="ionic md" >
   <i name="TEBEG">      0.00010000</i>
   <i name="TEEND">      0.00010000</i>
   <i type="int" name="NBLOCK">     1</i>
   <i type="int" name="KBLOCK">     1</i>
   <i type="int" name="NPACO">   256</i>
   <i name="APACO">     16.00000000</i>
  </separator>
  <separator name="symmetry" >
   <i type="int" name="ISYM">     0</i>
   <i name="SYMPREC">      0.00001000</i>
  </separator>
  <separator name="dos" >
   <i type="int" name="LORBIT">     0</i>
   <v name="RWIGS">     -1.00000000     -1.00000000     -1.00000000</v>
   <i type="int" name="NEDOS">   301</i>
   <i name="EMIN">     10.00000000</i>
   <i name="EMAX">    -10.00000000</i>
   <i name="EFERMI">      0.00000000</i>
  </separator>
  <separator name="writing" >
   <i type="int" name="NWRITE">     2</i>
   <i type="logical" name="LWAVE"> F  </i>
   <i type="logical" name="LDOWNSAMPLE"> F  </i>
   <i type="logical" name="LCHARG"> F  </i>
   <i type="logical" name="LPARD"> F  </i>
   <i type="logical" name="LVTOT"> F  </i>
   <i type="logical" name="LVHAR"> F  </i>
   <i type="logical" name="LELF"> F  </i>
   <i type="logical" name="LOPTICS"> F  </i>
   <v name="STM">      0.00000000      0.00000000      0.00000000      0.00000000      0.00000000      0.00000000      0.00000000</v>
  </separator>
  <separator name="performance" >
   <i type="int" name="NPAR">     4</i>
   <i type="int" name="NSIM">     4</i>
   <i type="int" name="NBLK">    -1</i>
   <i type="logical" name="LPLANE"> T  </i>
   <i type="logical" name="LSCALAPACK"> T  </i>
   <i type="logical" name="LSCAAWARE"> F  </i>
   <i type="logical" name="LSCALU"> F  </i>
   <i type="logical" name="LASYNC"> F  </i>
   <i type="logical" name="LORBITALREAL"> F  </i>
  </separator>
  <separator name="miscellaneous" >
   <i type="int" name="IDIOT">     3</i>
   <i type="int" name="ISPECIAL">     0</i>
   <i type="logical" name="LMUSIC"> F  </i>
   <v name="POMASS">     63.54600000     12.01100000     16.00000000</v>
   <v name="DARWINR">      0.00000000      0.00000000      0.00000000</v>
   <v name="DARWINV">      1.00000000      1.00000000      1.00000000</v>
   <i type="logical" name="LCORR"> T  </i>
  </separator>
  <i type="logical" name="GGA_COMPAT"> T  </i>
  <i type="logical" name="LBERRY"> F  </i>
  <i type="int" name="ICORELEVEL">     0</i>
  <i type="logical" name="LDAU"> F  </i>
  <i type="int" name="I_CONSTRAINED_M">     0</i>
  <separator name="electronic exchange-correlation" >
   <i type="string" name="GGA">PE</i>
   <i type="int" name="VOSKOWN">     0</i>
   <i type="logical" name="LHFCALC"> F  </i>
   <i type="string" name="PRECFOCK"></i>
   <i type="logical" name="LSYMGRAD"> F  </i>
   <i type="logical" name="LHFONE"> F  </i>
   <i type="logical" name="LRHFCALC"> F  </i>
   <i type="logical" name="LTHOMAS"> F  </i>
   <i type="logical" name="LMODELHF"> F  </i>
   <i name="ENCUT4O">     -1.00000000</i>
   <i type="int" name="EXXOEP">     0</i>
   <i type="int" name="FOURORBIT">     0</i>
   <i name="AEXX">      0.00000000</i>
   <i name="HFALPHA">      0.00000000</i>
   <i name="MCALPHA">      0.00000000</i>
   <i name="ALDAX">      1.00000000</i>
   <i name="AGGAX">      1.00000000</i>
   <i name="ALDAC">      1.00000000</i>
   <i name="AGGAC">      1.00000000</i>
   <i type="int" name="NKREDX">     1</i>
   <i type="int" name="NKREDY">     1</i>
   <i type="int" name="NKREDZ">     1</i>
   <i type="logical" name="SHIFTRED"> F  </i>
   <i type="logical" name="ODDONLY"> F  </i>
   <i type="logical" name="EVENONLY"> F  </i>
   <i type="int" name="LMAXFOCK">     0</i>
   <i type="int" name="NMAXFOCKAE">     0</i>
   <i type="logical" name="LFOCKAEDFT"> F  </i>
   <i name="HFSCREEN">      0.00000000</i>
   <i name="HFSCREENC">      0.00000000</i>
   <i type="int" name="NBANDSGWLOW">     0</i>
  </separator>
  <separator name="vdW DFT" >
   <i type="logical" name="LUSE_VDW"> F  </i>
   <i name="Zab_VDW">     -0.84910000</i>
   <i name="PARAM1">      0.12340000</i>
   <i name="PARAM2">      1.00000000</i>
   <i name="PARAM3">      0.00000000</i>
  </separator>
  <separator name="model GW" >
   <i type="int" name="MODEL_GW">     0</i>
   <i name="MODEL_EPS0">    135.00000000</i>
   <i name="MODEL_ALPHA">      1.00000000</i>
  </separator>
  <separator name="linear response parameters" >
   <i type="logical" name="LEPSILON"> F  </i>
   <i type="logical" name="LRPA"> F  </i>
   <i type="logical" name="LNABLA"> F  </i>
   <i type="logical" name="LVEL"> F  </i>
   <i type="int" name="KINTER">     0</i>
   <i name="CSHIFT">      0.10000000</i>
   <i name="OMEGAMAX">     -1.00000000</i>
   <i name="DEG_THRESHOLD">      0.00200000</i>
   <i name="RTIME">     -0.10000000</i>
   <i name="WPLASMAI">      0.00000000</i>
   <v name="DFIELD">      0.00000000      0.00000000      0.00000000</v>
   <v name="WPLASMA">      0.00000000      0.00000000      0.00000000      0.00000000      0.00000000      0.00000000      0.00000000      0.00000000      0.00000000</v>
  </separator>
  <separator name="orbital magnetization" >
   <i type="logical" name="NUCIND"> F  </i>
   <v name="MAGPOS">      0.00000000      0.00000000      0.00000000</v>
   <i type="logical" name="LNICSALL"> T  </i>
   <i type="logical" name="ORBITALMAG"> F  </i>
   <i type="logical" name="LMAGBLOCH"> F  </i>
   <i type="logical" name="LCHIMAG"> F  </i>
   <i type="logical" name="LGAUGE"> T  </i>
   <i type="int" name="MAGATOM">     0</i>
   <v name="MAGDIPOL">      0.00000000      0.00000000      0.00000000</v>
   <v name="AVECCONST">      0.00000000      0.00000000      0.00000000</v>
  </separator>
  <separator name="response functions" >
   <i type="logical" name="LADDER"> F  </i>
   <i type="logical" name="LRPAFORCE"> F  </i>
   <i type="logical" name="LFXC"> F  </i>
   <i type="logical" name="LHARTREE"> T  </i>
   <i type="int" name="IBSE">     0</i>
   <v type="int" name="KPOINT">    -1     0     0     0</v>
   <i type="logical" name="LTCTE"> F  </i>
   <i type="logical" name="LTETE"> F  </i>
   <i type="logical" name="LTRIPLET"> F  </i>
   <i type="logical" name="LFXCEPS"> F  </i>
   <i type="logical" name="LFXHEG"> F  </i>
   <i type="int" name="NATURALO">     2</i>
   <i type="logical" name="L2ORDER"> F  </i>
   <i type="logical" name="LMP2LT"> F  </i>
   <i type="logical" name="LUSEW"> F  </i>
   <i name="ENCUTGW">     -2.00000000</i>
   <i name="ENCUTGWSOFT">     -2.00000000</i>
   <i name="ENCUTLF">     -1.00000000</i>
   <i type="int" name="LMAXMP2">    -1</i>
   <i name="SCISSOR">      0.00000000</i>
   <i type="int" name="NOMEGA">     0</i>
   <i type="int" name="NOMEGAR">     0</i>
   <i type="int" name="NBANDSGW">    -1</i>
   <i type="int" name="NBANDSO">    -1</i>
   <i type="int" name="NBANDSV">    -1</i>
   <i type="int" name="NELM">   300</i>
   <i type="int" name="NELMHF">     1</i>
   <i type="int" name="DIM">     3</i>
   <i type="int" name="ANTIRES">     0</i>
   <i name="OMEGAMAX">    -30.00000000</i>
   <i name="OMEGAMIN">    -30.00000000</i>
   <i name="OMEGATL">   -200.00000000</i>
   <i type="int" name="OMEGAGRID">   140</i>
   <i name="CSHIFT">     -0.10000000</i>
   <i type="logical" name="SELFENERGY"> F  </i>
   <i type="logical" name="LSPECTRAL"> F  </i>
   <i type="logical" name="LSPECTRALGW"> F  </i>
   <i type="logical" name="LSINGLES"> F  </i>
   <i type="logical" name="LFERMIGW"> F  </i>
   <i type="logical" name="ODDONLYGW"> F  </i>
   <i type="logical" name="EVENONLYGW"> F  </i>
   <i type="int" name="NKREDLFX">     1</i>
   <i type="int" name="NKREDLFY">     1</i>
   <i type="int" name="NKREDLFZ">     1</i>
   <i type="int" name="MAXMEM">  2800</i>
   <i type="int" name="TELESCOPE">     0</i>
   <i type="int" name="TAUPAR">     1</i>
   <i type="int" name="OMEGAPAR">    -1</i>
   <i name="LAMBDA">      1.00000000</i>
  </separator>
  <separator name="External order field" >
   <i name="OFIELD_KAPPA">      0.00000000</i>
   <v name="OFIELD_K">      0.00000000      0.00000000      0.00000000</v>
   <i name="OFIELD_Q6_NEAR">      0.00000000</i>
   <i name="OFIELD_Q6_FAR">      0.00000000</i>
   <i name="OFIELD_A">      0.00000000</i>
  </separator>
 </parameters>
 <atominfo>
  <atoms>      15 </atoms>
  <types>       3 </types>
  <array name="atoms" >
   <dimension dim="1">ion</dimension>
   <field type="string">element</field>
   <field type="int">atomtype</field>
   <set>
    <rc><c>Cu</c><c>   1</c></rc>
    <rc><c>Cu</c><c>   1</c></rc>
    <rc><c>Cu</c><c>   1</c></rc>
    <rc><c>Cu</c><c>   1</c></rc>
    <rc><c>Cu</c><c>   1</c></rc>
    <rc><c>Cu</c><c>   1</c></rc>
    <rc><c>Cu</c><c>   1</c></rc>
    <rc><c>Cu</c><c>   1</c></rc>
    <rc><c>Cu</c><c>   1</c></rc>
    <rc><c>Cu</c><c>   1</c></rc>
    <rc><c>Cu</c><c>   1</c></rc>
    <rc><c>Cu</c><c>   1</c></rc>
    <rc><c>Cu</c><c>   1</c></rc>
    <rc><c>C </c><c>   2</c></rc>
    <rc><c>O </c><c>   3</c></rc>
   </set>
  </array>
  <array name="atomtypes" >
   <dimension dim="1">type</dimension>
   <field type="int">atomspertype</field>
   <field type="string">element</field>
   <field>mass</field>
   <field>valence</field>
   <field type="string">pseudopotential</field>
   <set>
    <rc><c>  13</c><c>Cu</c><c>     63.54600000</c><c>     11.00000000</c><c>  PAW_PBE Cu 22Jun2005                  </c></rc>
    <rc><c>   1</c><c>C </c><c>     12.01100000</c><c>      4.00000000</c><c>  PAW_PBE C 08Apr2002                   </c></rc>
    <rc><c>   1</c><c>O </c><c>     16.00000000</c><c>      6.00000000</c><c>  PAW_PBE O 08Apr2002                   </c></rc>
   </set>
  </array>
 </atominfo>
 <structure name="initialpos" >
  <crystal>
   <varray name="basis" >
    <v>      15.00000000       0.00000000       0.00000000 </v>
    <v>       0.00000000      15.00000000       0.00000000 </v>
    <v>       0.00000000       0.00000000      15.00000000 </v>
   </varray>
   <i name="volume">   3375.00000000 </i>
   <varray name="rec_basis" >
    <v>       0.06666667       0.00000000       0.00000000 </v>
    <v>       0.00000000       0.06666667       0.00000000 </v>
    <v>       0.00000000       0.00000000       0.06666667 </v>
   </varray>
  </crystal>
  <varray name="positions" >
   <v>       0.29468800       0.42685267       0.54828267 </v>
   <v>       0.37754200       0.54958200       0.49005133 </v>
   <v>       0.38517333       0.28832933       0.56786067 </v>
   <v>       0.53724067       0.50490867       0.49338333 </v>
   <v>       0.54558267       0.34502267       0.52770933 </v>
   <v>       0.45213267       0.43237933       0.61760267 </v>
   <v>       0.42066800       0.39951000       0.45469400 </v>
   <v>       0.22437333       0.57812200       0.53765200 </v>
   <v>       0.34061267       0.54793067       0.64416067 </v>
   <v>       0.34332867       0.68700000       0.56641933 </v>
   <v>       0.48569467       0.65683867       0.47336467 </v>
   <v>       0.62354133       0.46746867       0.62169200 </v>
   <v>       0.48572867       0.59893067       0.61744333 </v>
   <v>       0.74346667       0.48781067       0.63671867 </v>
   <v>       0.81673333       0.51312400       0.63551867 </v>
  </varray>
 </structure>
 <calculation>
  <scstep>
   <time name="dav">    7.52    7.53</time>
   <time name="total">    8.72    8.73</time>
   <energy>
    <i name="alphaZ">     41.16232785 </i>
    <i name="ewald">  16542.04581263 </i>
    <i name="hartreedc"> -33559.33943064 </i>
    <i name="XCdc">    623.77381490 </i>
    <i name="pawpsdc">  16421.75059358 </i>
    <i name="pawaedc"> -17800.06104309 </i>
    <i name="eentropy">      0.01878049 </i>
    <i name="bandstr">    189.07906115 </i>
    <i name="atom">  18662.21924712 </i>
    <i name="e_fr_energy">   1120.64916399 </i>
    <i name="e_wo_entrp">   1120.63038350 </i>
    <i name="e_0_energy">   1120.64290383 </i>
   </energy>
  </scstep>
  <scstep>
   <time name="dav">    7.41    7.42</time>
   <time name="total">    7.41    7.42</time>
   <energy>
    <i name="e_fr_energy">     89.65621138 </i>
    <i name="e_wo_entrp">     89.65041347 </i>
    <i name="e_0_energy">     89.65427874 </i>
   </energy>
  </scstep>
  <scstep>
   <time name="dav">   11.63   11.66</time>
   <time name="total">   11.63   11.66</time>
   <energy>
    <i name="e_fr_energy">    -34.06299950 </i>
    <i name="e_wo_entrp">    -34.07511284 </i>
    <i name="e_0_energy">    -34.06703728 </i>
   </energy>
  </scstep>
  <scstep>
   <time name="dav">   10.30   10.31</time>
   <time name="total">   10.31   10.31</time>
   <energy>
    <i name="e_fr_energy">    -55.76818767 </i>
    <i name="e_wo_entrp">    -55.78171167 </i>
    <i name="e_0_energy">    -55.77269567 </i>
   </energy>
  </scstep>
  <scstep>
   <time name="dav">   12.09   12.09</time>
   <time name="total">   12.76   12.76</time>
   <energy>
    <i name="e_fr_energy">    -57.31582745 </i>
    <i name="e_wo_entrp">    -57.33275476 </i>
    <i name="e_0_energy">    -57.32146989 </i>
   </energy>
  </scstep>
  <scstep>
   <time name="diag">    1.09    1.09</time>
   <time name="diis">    6.88    6.88</time>
   <time name="orth">    0.06    0.06</time>
   <time name="total">    9.87    9.88</time>
   <energy>
    <i name="e_fr_energy">    -56.35964943 </i>
    <i name="e_wo_entrp">    -56.36563666 </i>
    <i name="e_0_energy">    -56.36164518 </i>
   </energy>
  </scstep>
  <scstep>
   <time name="diag">    1.09    1.09</time>
   <time name="diis">    6.96    6.97</time>
   <time name="orth">    0.06    0.06</time>
   <time name="total">    9.99   10.00</time>
   <energy>
    <i name="e_fr_energy">    -49.16839739 </i>
    <i name="e_wo_entrp">    -49.17649548 </i>
    <i name="e_0_energy">    -49.17109675 </i>
   </energy>
  </scstep>
  <scstep>
   <time name="diag">    1.09    1.09</time>
   <time name="diis">    6.96    6.96</time>
   <time name="orth">    0.06    0.06</time>
   <time name="total">   10.00   10.01</time>
   <energy>
    <i name="e_fr_energy">    -48.92089135 </i>
    <i name="e_wo_entrp">    -48.92967111 </i>
    <i name="e_0_energy">    -48.92381794 </i>
   </energy>
  </scstep>
  <scstep>
   <time name="diag">    1.09    1.09</time>
   <time name="diis">    6.89    6.89</time>
   <time name="orth">    0.06    0.06</time>
   <time name="total">    9.93    9.94</time>
   <energy>
    <i name="e_fr_energy">    -48.86959853 </i>
    <i name="e_wo_entrp">    -48.87800725 </i>
    <i name="e_0_energy">    -48.87240144 </i>
   </energy>
  </scstep>
  <scstep>
   <time name="diag">    1.09    1.09</time>
   <time name="diis">    7.20    7.20</time>
   <time name="orth">    0.06    0.06</time>
   <time name="total">   10.24   10.25</time>
   <energy>
    <i name="e_fr_energy">    -48.80586867 </i>
    <i name="e_wo_entrp">    -48.81402243 </i>
    <i name="e_0_energy">    -48.80858659 </i>
   </energy>
  </scstep>
  <scstep>
   <time name="diag">    1.09    1.09</time>
   <time name="diis">    7.03    7.03</time>
   <time name="orth">    0.06    0.06</time>
   <time name="total">   10.07   10.07</time>
   <energy>
    <i name="e_fr_energy">    -48.79540378 </i>
    <i name="e_wo_entrp">    -48.80366827 </i>
    <i name="e_0_energy">    -48.79815861 </i>
   </energy>
  </scstep>
  <scstep>
   <time name="diag">    1.09    1.09</time>
   <time name="diis">    7.13    7.13</time>
   <time name="orth">    0.06    0.06</time>
   <time name="total">   10.17   10.17</time>
   <energy>
    <i name="e_fr_energy">    -48.79224570 </i>
    <i name="e_wo_entrp">    -48.80042275 </i>
    <i name="e_0_energy">    -48.79497138 </i>
   </energy>
  </scstep>
  <scstep>
   <time name="diag">    1.09    1.09</time>
   <time name="diis">    7.27    7.28</time>
   <time name="orth">    0.06    0.06</time>
   <time name="total">   10.32   10.32</time>
   <energy>
    <i name="e_fr_energy">    -48.79120191 </i>
    <i name="e_wo_entrp">    -48.79934050 </i>
    <i name="e_0_energy">    -48.79391477 </i>
   </energy>
  </scstep>
  <scstep>
   <time name="diag">    1.09    1.09</time>
   <time name="diis">    6.88    6.88</time>
   <time name="orth">    0.06    0.06</time>
   <time name="total">    9.92    9.92</time>
   <energy>
    <i name="e_fr_energy">    -48.79257251 </i>
    <i name="e_wo_entrp">    -48.80071289 </i>
    <i name="e_0_energy">    -48.79528597 </i>
   </energy>
  </scstep>
  <scstep>
   <time name="diag">    1.09    1.09</time>
   <time name="diis">    6.98    6.98</time>
   <time name="orth">    0.06    0.06</time>
   <time name="total">   10.01   10.01</time>
   <energy>
    <i name="e_fr_energy">    -48.79364160 </i>
    <i name="e_wo_entrp">    -48.80176108 </i>
    <i name="e_0_energy">    -48.79634809 </i>
   </energy>
  </scstep>
  <scstep>
   <time name="diag">    1.09    1.09</time>
   <time name="diis">    6.67    6.67</time>
   <time name="orth">    0.06    0.06</time>
   <time name="total">    9.71    9.71</time>
   <energy>
    <i name="e_fr_energy">    -48.79511405 </i>
    <i name="e_wo_entrp">    -48.80327016 </i>
    <i name="e_0_energy">    -48.79783275 </i>
   </energy>
  </scstep>
  <scstep>
   <time name="diag">    1.09    1.09</time>
   <time name="diis">    7.29    7.29</time>
   <time name="orth">    0.06    0.06</time>
   <time name="total">   10.33   10.33</time>
   <energy>
    <i name="e_fr_energy">    -48.79689108 </i>
    <i name="e_wo_entrp">    -48.80505263 </i>
    <i name="e_0_energy">    -48.79961160 </i>
   </energy>
  </scstep>
  <scstep>
   <time name="diag">    1.09    1.09</time>
   <time name="diis">    6.98    6.98</time>
   <time name="orth">    0.06    0.06</time>
   <time name="total">   10.03   10.03</time>
   <energy>
    <i name="e_fr_energy">    -48.79777329 </i>
    <i name="e_wo_entrp">    -48.80592547 </i>
    <i name="e_0_energy">    -48.80049068 </i>
   </energy>
  </scstep>
  <scstep>
   <time name="diag">    1.09    1.09</time>
   <time name="diis">    7.40    7.40</time>
   <time name="orth">    0.06    0.06</time>
   <time name="total">   10.43   10.44</time>
   <energy>
    <i name="e_fr_energy">    -48.79846315 </i>
    <i name="e_wo_entrp">    -48.80662292 </i>
    <i name="e_0_energy">    -48.80118307 </i>
   </energy>
  </scstep>
  <scstep>
   <time name="diag">    1.09    1.09</time>
   <time name="diis">    6.99    6.99</time>
   <time name="orth">    0.06    0.06</time>
   <time name="total">   10.03   10.03</time>
   <energy>
    <i name="e_fr_energy">    -48.79901605 </i>
    <i name="e_wo_entrp">    -48.80717072 </i>
    <i name="e_0_energy">    -48.80173427 </i>
   </energy>
  </scstep>
  <scstep>
   <time name="diag">    1.09    1.09</time>
   <time name="diis">    6.92    6.93</time>
   <time name="orth">    0.06    0.06</time>
   <time name="total">    9.97    9.97</time>
   <energy>
    <i name="e_fr_energy">    -48.79937947 </i>
    <i name="e_wo_entrp">    -48.80753376 </i>
    <i name="e_0_energy">    -48.80209757 </i>
   </energy>
  </scstep>
  <scstep>
   <time name="diag">    1.09    1.09</time>
   <time name="diis">    6.45    6.45</time>
   <time name="orth">    0.06    0.06</time>
   <time name="total">    9.49    9.49</time>
   <energy>
    <i name="e_fr_energy">    -48.79967593 </i>
    <i name="e_wo_entrp">    -48.80783280 </i>
    <i name="e_0_energy">    -48.80239489 </i>
   </energy>
  </scstep>
  <scstep>
   <time name="diag">    1.09    1.09</time>
   <time name="diis">    6.77    6.77</time>
   <time name="orth">    0.06    0.06</time>
   <time name="total">    9.81    9.81</time>
   <energy>
    <i name="e_fr_energy">    -48.79979697 </i>
    <i name="e_wo_entrp">    -48.80795337 </i>
    <i name="e_0_energy">    -48.80251577 </i>
   </energy>
  </scstep>
  <scstep>
   <time name="diag">    1.09    1.09</time>
   <time name="diis">    6.81    6.81</time>
   <time name="orth">    0.05    0.05</time>
   <time name="total">    9.85    9.86</time>
   <energy>
    <i name="e_fr_energy">    -48.79990225 </i>
    <i name="e_wo_entrp">    -48.80805899 </i>
    <i name="e_0_energy">    -48.80262117 </i>
   </energy>
  </scstep>
  <scstep>
   <time name="diag">    1.09    1.09</time>
   <time name="diis">    6.71    6.72</time>
   <time name="orth">    0.05    0.05</time>
   <time name="total">    9.76    9.76</time>
   <energy>
    <i name="e_fr_energy">    -48.79996766 </i>
    <i name="e_wo_entrp">    -48.80812411 </i>
    <i name="e_0_energy">    -48.80268647 </i>
   </energy>
  </scstep>
  <scstep>
   <time name="diag">    1.09    1.09</time>
   <time name="diis">    6.31    6.32</time>
   <time name="orth">    0.06    0.06</time>
   <time name="total">    9.36    9.37</time>
   <energy>
    <i name="e_fr_energy">    -48.80000032 </i>
    <i name="e_wo_entrp">    -48.80815644 </i>
    <i name="e_0_energy">    -48.80271902 </i>
   </energy>
  </scstep>
  <scstep>
   <time name="diag">    1.09    1.09</time>
   <time name="diis">    4.99    4.99</time>
   <time name="orth">    0.06    0.06</time>
   <time name="total">    8.04    8.05</time>
   <energy>
    <i name="e_fr_energy">    -48.80001148 </i>
    <i name="e_wo_entrp">    -48.80816772 </i>
    <i name="e_0_energy">    -48.80273023 </i>
   </energy>
  </scstep>
  <scstep>
   <time name="diag">    1.09    1.09</time>
   <time name="diis">    4.44    4.44</time>
   <time name="orth">    0.06    0.06</time>
   <time name="total">    7.49    7.50</time>
   <energy>
    <i name="e_fr_energy">    -48.80001785 </i>
    <i name="e_wo_entrp">    -48.80817435 </i>
    <i name="e_0_energy">    -48.80273668 </i>
   </energy>
  </scstep>
  <scstep>
   <time name="diag">    1.09    1.09</time>
   <time name="diis">    4.49    4.49</time>
   <time name="orth">    0.06    0.06</time>
   <time name="total">    7.55    7.55</time>
   <energy>
    <i name="e_fr_energy">    -48.80002191 </i>
    <i name="e_wo_entrp">    -48.80817848 </i>
    <i name="e_0_energy">    -48.80274077 </i>
   </energy>
  </scstep>
  <scstep>
   <time name="diag">    1.09    1.09</time>
   <time name="diis">    4.79    4.79</time>
   <time name="orth">    0.06    0.06</time>
   <time name="total">    7.86    7.87</time>
   <energy>
    <i name="e_fr_energy">    -48.80002350 </i>
    <i name="e_wo_entrp">    -48.80818006 </i>
    <i name="e_0_energy">    -48.80274235 </i>
   </energy>
  </scstep>
  <scstep>
   <time name="diag">    1.09    1.09</time>
   <time name="diis">    4.67    4.67</time>
   <time name="orth">    0.06    0.06</time>
   <time name="total">    7.74    7.75</time>
   <energy>
    <i name="e_fr_energy">    -48.80002440 </i>
    <i name="e_wo_entrp">    -48.80818100 </i>
    <i name="e_0_energy">    -48.80274327 </i>
   </energy>
  </scstep>
  <scstep>
   <time name="diag">    1.09    1.09</time>
   <time name="diis">    4.39    4.40</time>
   <time name="orth">    0.06    0.06</time>
   <time name="total">    7.48    7.48</time>
   <energy>
    <i name="e_fr_energy">    -48.80002509 </i>
    <i name="e_wo_entrp">    -48.80818166 </i>
    <i name="e_0_energy">    -48.80274395 </i>
   </energy>
  </scstep>
  <scstep>
   <time name="diag">    1.09    1.09</time>
   <time name="diis">    4.68    4.68</time>
   <time name="orth">    0.06    0.06</time>
   <time name="total">    7.78    7.78</time>
   <energy>
    <i name="e_fr_energy">    -48.80002560 </i>
    <i name="e_wo_entrp">    -48.80818216 </i>
    <i name="e_0_energy">    -48.80274445 </i>
   </energy>
  </scstep>
  <scstep>
   <time name="diag">    1.09    1.09</time>
   <time name="diis">    3.91    3.91</time>
   <time name="orth">    0.06    0.06</time>
   <time name="total">    7.00    7.00</time>
   <energy>
    <i name="e_fr_energy">    -48.80002594 </i>
    <i name="e_wo_entrp">    -48.80818251 </i>
    <i name="e_0_energy">    -48.80274480 </i>
   </energy>
  </scstep>
  <scstep>
   <time name="diag">    1.09    1.09</time>
   <time name="diis">    3.80    3.81</time>
   <time name="orth">    0.06    0.06</time>
   <time name="total">    6.88    6.91</time>
   <energy>
    <i name="e_fr_energy">    -48.80002623 </i>
    <i name="e_wo_entrp">    -48.80818279 </i>
    <i name="e_0_energy">    -48.80274508 </i>
   </energy>
  </scstep>
  <scstep>
   <time name="diag">    1.09    1.09</time>
   <time name="diis">    3.61    3.61</time>
   <time name="orth">    0.06    0.06</time>
   <time name="total">    6.71    6.71</time>
   <energy>
    <i name="e_fr_energy">    -48.80002643 </i>
    <i name="e_wo_entrp">    -48.80818300 </i>
    <i name="e_0_energy">    -48.80274528 </i>
   </energy>
  </scstep>
  <scstep>
   <time name="diag">    1.09    1.09</time>
   <time name="diis">    3.42    3.42</time>
   <time name="orth">    0.06    0.06</time>
   <time name="total">    5.75    5.76</time>
   <energy>
    <i name="alphaZ">     41.16232785 </i>
    <i name="ewald">  16542.04581263 </i>
    <i name="hartreedc"> -33519.69199457 </i>
    <i name="XCdc">    615.72203633 </i>
    <i name="pawpsdc">  17690.27174046 </i>
    <i name="pawaedc"> -19089.77047542 </i>
    <i name="eentropy">      0.00815656 </i>
    <i name="bandstr">   -990.76687746 </i>
    <i name="atom">  18662.21924712 </i>
    <i name="e_fr_energy">    -48.80002650 </i>
    <i name="e_wo_entrp">    -48.80818307 </i>
    <i name="e_0_energy">    -48.80274536 </i>
   </energy>
  </scstep>
  <structure>
   <crystal>
    <varray name="basis" >
     <v>      15.00000000       0.00000000       0.00000000 </v>
     <v>       0.00000000      15.00000000       0.00000000 </v>
     <v>       0.00000000       0.00000000      15.00000000 </v>
    </varray>
    <i name="volume">   3375.00000000 </i>
    <varray name="rec_basis" >
     <v>       0.06666667       0.00000000       0.00000000 </v>
     <v>       0.00000000       0.06666667       0.00000000 </v>
     <v>       0.00000000       0.00000000       0.06666667 </v>
    </varray>
   </crystal>
   <varray name="positions" >
    <v>       0.29468800       0.42685267       0.54828267 </v>
    <v>       0.37754200       0.54958200       0.49005133 </v>
    <v>       0.38517333       0.28832933       0.56786067 </v>
    <v>       0.53724067       0.50490867       0.49338333 </v>
    <v>       0.54558267       0.34502267       0.52770933 </v>
    <v>       0.45213267       0.43237933       0.61760267 </v>
    <v>       0.42066800       0.39951000       0.45469400 </v>
    <v>       0.22437333       0.57812200       0.53765200 </v>
    <v>       0.34061267       0.54793067       0.64416067 </v>
    <v>       0.34332867       0.68700000       0.56641933 </v>
    <v>       0.48569467       0.65683867       0.47336467 </v>
    <v>       0.62354133       0.46746867       0.62169200 </v>
    <v>       0.48572867       0.59893067       0.61744333 </v>
    <v>       0.74346667       0.48781067       0.63671867 </v>
    <v>       0.81673333       0.51312400       0.63551867 </v>
   </varray>
  </structure>
  <varray name="forces" >
   <v>      -0.33805571      -0.38771945       0.23246701 </v>
   <v>      -0.19653130      -0.02847782      -0.33690178 </v>
   <v>       0.21209318       0.35688791      -0.07655516 </v>
   <v>       0.02987601       0.02914873      -0.15411657 </v>
   <v>       0.44053385      -0.33290845       0.27523012 </v>
   <v>      -0.00629535       0.20978527      -0.05120851 </v>
   <v>      -0.22659975      -0.14382721      -0.23107793 </v>
   <v>       0.01931498      -0.12678223       0.02187377 </v>
   <v>      -0.41892177      -0.08028393       0.57599181 </v>
   <v>       0.36164700       0.10270571      -0.12231750 </v>
   <v>       0.25670570       0.71292035      -0.16806029 </v>
   <v>      -0.22373572       0.02488568      -0.32832629 </v>
   <v>       0.30042175      -0.32983464       0.12618614 </v>
   <v>       0.49364007       0.28227303       0.37113688 </v>
   <v>      -0.70409294      -0.28877295      -0.13432169 </v>
  </varray>
  <varray name="stress" >
   <v>      -0.23195341       0.25741506      -0.29063344 </v>
   <v>       0.25741505       0.50366081      -0.26420611 </v>
   <v>      -0.29063345      -0.26420611       0.73291034 </v>
  </varray>
  <energy>
   <i name="e_fr_energy">    -48.80002650 </i>
   <i name="e_wo_entrp">    -48.80274536 </i>
   <i name="e_0_energy">      0.00815656 </i>
  </energy>
  <time name="totalsc">  351.37  351.59</time>
  <eigenvalues>
   <array>
    <dimension dim="1">band</dimension>
    <dimension dim="2">kpoint</dimension>
    <dimension dim="3">spin</dimension>
    <field>eigene</field>
    <field>occ</field>
    <set>
     <set comment="spin 1">
      <set comment="kpoint 1">
       <r>  -28.4216    1.0000 </r>
       <r>  -13.8873    1.0000 </r>
       <r>  -11.2769    1.0000 </r>
       <r>  -11.1212    1.0000 </r>
       <r>  -11.0356    1.0000 </r>
       <r>  -10.2258    1.0000 </r>
       <r>   -8.7154    1.0000 </r>
       <r>   -8.2593    1.0000 </r>
       <r>   -7.7001    1.0000 </r>
       <r>   -7.6336    1.0000 </r>
       <r>   -7.5473    1.0000 </r>
       <r>   -7.3679    1.0000 </r>
       <r>   -7.2966    1.0000 </r>
       <r>   -7.2132    1.0000 </r>
       <r>   -7.0230    1.0000 </r>
       <r>   -6.9667    1.0000 </r>
       <r>   -6.9097    1.0000 </r>
       <r>   -6.8376    1.0000 </r>
       <r>   -6.7442    1.0000 </r>
       <r>   -6.7211    1.0000 </r>
       <r>   -6.6412    1.0000 </r>
       <r>   -6.6043    1.0000 </r>
       <r>   -6.5700    1.0000 </r>
       <r>   -6.5521    1.0000 </r>
       <r>   -6.4379    1.0000 </r>
       <r>   -6.4133    1.0000 </r>
       <r>   -6.3684    1.0000 </r>
       <r>   -6.2956    1.0000 </r>
       <r>   -6.2525    1.0000 </r>
       <r>   -6.2364    1.0000 </r>
       <r>   -6.1739    1.0000 </r>
       <r>   -6.1548    1.0000 </r>
       <r>   -6.0754    1.0000 </r>
       <r>   -6.0439    1.0000 </r>
       <r>   -5.9265    1.0000 </r>
       <r>   -5.8281    1.0000 </r>
       <r>   -5.8090    1.0000 </r>
       <r>   -5.7335    1.0000 </r>
       <r>   -5.6894    1.0000 </r>
       <r>   -5.6196    1.0000 </r>
       <r>   -5.6043    1.0000 </r>
       <r>   -5.5578    1.0000 </r>
       <r>   -5.4957    1.0000 </r>
       <r>   -5.4822    1.0000 </r>
       <r>   -5.4647    1.0000 </r>
       <r>   -5.3960    1.0000 </r>
       <r>   -5.3854    1.0000 </r>
       <r>   -5.3660    1.0000 </r>
       <r>   -5.3417    1.0000 </r>
       <r>   -5.3195    1.0000 </r>
       <r>   -5.2858    1.0000 </r>
       <r>   -5.2645    1.0000 </r>
       <r>   -5.2566    1.0000 </r>
       <r>   -5.2153    1.0000 </r>
       <r>   -5.2059    1.0000 </r>
       <r>   -5.1530    1.0000 </r>
       <r>   -5.1465    1.0000 </r>
       <r>   -5.1285    1.0000 </r>
       <r>   -5.0989    1.0000 </r>
       <r>   -5.0505    1.0000 </r>
       <r>   -5.0134    1.0000 </r>
       <r>   -4.9838    1.0000 </r>
       <r>   -4.9637    1.0000 </r>
       <r>   -4.9611    1.0000 </r>
       <r>   -4.9204    1.0000 </r>
       <r>   -4.8933    1.0000 </r>
       <r>   -4.8796    1.0000 </r>
       <r>   -4.8604    1.0000 </r>
       <r>   -4.8389    1.0000 </r>
       <r>   -4.8105    1.0000 </r>
       <r>   -4.7691    1.0000 </r>
       <r>   -4.7488    1.0000 </r>
       <r>   -4.7080    1.0000 </r>
       <r>   -4.5178    1.0000 </r>
       <r>   -4.2136    1.0000 </r>
       <r>   -4.1350    1.0000 </r>
       <r>   -3.4288    1.0001 </r>
       <r>   -3.0354   -0.0001 </r>
       <r>   -2.8877   -0.0000 </r>
       <r>   -2.4630   -0.0000 </r>
       <r>   -2.3409   -0.0000 </r>
       <r>   -1.9892   -0.0000 </r>
       <r>   -1.8814   -0.0000 </r>
       <r>   -1.7228   -0.0000 </r>
       <r>   -1.4668   -0.0000 </r>
       <r>   -1.0135   -0.0000 </r>
       <r>   -0.9070   -0.0000 </r>
       <r>   -0.6492   -0.0000 </r>
       <r>   -0.3438    0.0000 </r>
       <r>   -0.3091    0.0000 </r>
       <r>   -0.1938    0.0000 </r>
       <r>    0.1509    0.0000 </r>
      </set>
     </set>
     <set comment="spin 2">
      <set comment="kpoint 1">
       <r>  -28.3967    1.0000 </r>
       <r>  -13.8414    1.0000 </r>
       <r>  -11.2410    1.0000 </r>
       <r>  -11.1072    1.0000 </r>
       <r>  -10.9555    1.0000 </r>
       <r>  -10.1833    1.0000 </r>
       <r>   -8.6924    1.0000 </r>
       <r>   -8.2141    1.0000 </r>
       <r>   -7.6579    1.0000 </r>
       <r>   -7.6119    1.0000 </r>
       <r>   -7.5199    1.0000 </r>
       <r>   -7.3246    1.0000 </r>
       <r>   -7.2666    1.0000 </r>
       <r>   -7.1800    1.0000 </r>
       <r>   -6.9939    1.0000 </r>
       <r>   -6.9321    1.0000 </r>
       <r>   -6.8774    1.0000 </r>
       <r>   -6.8061    1.0000 </r>
       <r>   -6.7169    1.0000 </r>
       <r>   -6.6990    1.0000 </r>
       <r>   -6.6153    1.0000 </r>
       <r>   -6.5860    1.0000 </r>
       <r>   -6.5419    1.0000 </r>
       <r>   -6.5261    1.0000 </r>
       <r>   -6.4092    1.0000 </r>
       <r>   -6.3812    1.0000 </r>
       <r>   -6.3440    1.0000 </r>
       <r>   -6.2728    1.0000 </r>
       <r>   -6.2308    1.0000 </r>
       <r>   -6.2129    1.0000 </r>
       <r>   -6.1461    1.0000 </r>
       <r>   -6.1312    1.0000 </r>
       <r>   -6.0455    1.0000 </r>
       <r>   -6.0218    1.0000 </r>
       <r>   -5.9021    1.0000 </r>
       <r>   -5.8025    1.0000 </r>
       <r>   -5.7826    1.0000 </r>
       <r>   -5.7002    1.0000 </r>
       <r>   -5.6685    1.0000 </r>
       <r>   -5.5947    1.0000 </r>
       <r>   -5.5816    1.0000 </r>
       <r>   -5.5349    1.0000 </r>
       <r>   -5.4736    1.0000 </r>
       <r>   -5.4557    1.0000 </r>
       <r>   -5.4323    1.0000 </r>
       <r>   -5.3708    1.0000 </r>
       <r>   -5.3590    1.0000 </r>
       <r>   -5.3397    1.0000 </r>
       <r>   -5.3150    1.0000 </r>
       <r>   -5.2915    1.0000 </r>
       <r>   -5.2619    1.0000 </r>
       <r>   -5.2431    1.0000 </r>
       <r>   -5.2275    1.0000 </r>
       <r>   -5.1913    1.0000 </r>
       <r>   -5.1770    1.0000 </r>
       <r>   -5.1363    1.0000 </r>
       <r>   -5.1249    1.0000 </r>
       <r>   -5.1044    1.0000 </r>
       <r>   -5.0737    1.0000 </r>
       <r>   -5.0276    1.0000 </r>
       <r>   -4.9885    1.0000 </r>
       <r>   -4.9573    1.0000 </r>
       <r>   -4.9416    1.0000 </r>
       <r>   -4.9367    1.0000 </r>
       <r>   -4.8960    1.0000 </r>
       <r>   -4.8675    1.0000 </r>
       <r>   -4.8580    1.0000 </r>
       <r>   -4.8160    1.0000 </r>
       <r>   -4.8102    1.0000 </r>
       <r>   -4.7801    1.0000 </r>
       <r>   -4.7339    1.0000 </r>
       <r>   -4.7234    1.0000 </r>
       <r>   -4.6816    1.0000 </r>
       <r>   -4.4770    1.0000 </r>
       <r>   -4.1691    1.0194 </r>
       <r>   -4.0776    0.9806 </r>
       <r>   -3.2291   -0.0000 </r>
       <r>   -2.9797   -0.0000 </r>
       <r>   -2.8343   -0.0000 </r>
       <r>   -2.4009   -0.0000 </r>
       <r>   -2.2454   -0.0000 </r>
       <r>   -1.9537   -0.0000 </r>
       <r>   -1.7899   -0.0000 </r>
       <r>   -1.6595   -0.0000 </r>
       <r>   -1.3424   -0.0000 </r>
       <r>   -0.9242    0.0000 </r>
       <r>   -0.8027    0.0000 </r>
       <r>   -0.5589    0.0000 </r>
       <r>   -0.2776    0.0000 </r>
       <r>   -0.2560    0.0000 </r>
       <r>   -0.0811    0.0000 </r>
       <r>    0.2077    0.0000 </r>
      </set>
     </set>
    </set>
   </array>
  </eigenvalues>
  <separator name="orbital magnetization" >
   <v name="MAGDIPOLOUT">      0.00000000      0.00000000      0.00000000</v>
  </separator>
  <dos>
   <i name="efermi">     -4.00105344 </i>
   <total>
    <array>
     <dimension dim="1">gridpoints</dimension>
     <dimension dim="2">spin</dimension>
     <field>energy</field>
     <field>total</field>
     <field>integrated</field>
     <set>
      <set comment="spin 1">
       <r>   -29.8530     0.0000     0.0000 </r>
       <r>   -29.7480     0.0000     0.0000 </r>
       <r>   -29.6431     0.0000     0.0000 </r>
       <r>   -29.5381     0.0000     0.0000 </r>
       <r>   -29.4331     0.0000     0.0000 </r>
       <r>   -29.3282     0.0000     0.0000 </r>
       <r>   -29.2232    -0.0000    -0.0000 </r>
       <r>   -29.1182    -0.0000    -0.0000 </r>
       <r>   -29.0132    -0.0000    -0.0000 </r>
       <r>   -28.9083    -0.0000    -0.0000 </r>
       <r>   -28.8033    -0.0000    -0.0000 </r>
       <r>   -28.6983    -0.0061    -0.0006 </r>
       <r>   -28.5933    -0.3326    -0.0356 </r>
       <r>   -28.4884     1.3255     0.1036 </r>
       <r>   -28.3834    14.2251     1.5969 </r>
       <r>   -28.2784     4.4228     2.0611 </r>
       <r>   -28.1734    -0.5584     2.0025 </r>
       <r>   -28.0685    -0.0239     2.0000 </r>
       <r>   -27.9635    -0.0001     2.0000 </r>
       <r>   -27.8585    -0.0000     2.0000 </r>
       <r>   -27.7535    -0.0000     2.0000 </r>
       <r>   -27.6486     0.0000     2.0000 </r>
       <r>   -27.5436     0.0000     2.0000 </r>
       <r>   -27.4386     0.0000     2.0000 </r>
       <r>   -27.3336     0.0000     2.0000 </r>
       <r>   -27.2287     0.0000     2.0000 </r>
       <r>   -27.1237     0.0000     2.0000 </r>
       <r>   -27.0187     0.0000     2.0000 </r>
       <r>   -26.9138     0.0000     2.0000 </r>
       <r>   -26.8088     0.0000     2.0000 </r>
       <r>   -26.7038     0.0000     2.0000 </r>
       <r>   -26.5988     0.0000     2.0000 </r>
       <r>   -26.4939     0.0000     2.0000 </r>
       <r>   -26.3889     0.0000     2.0000 </r>
       <r>   -26.2839     0.0000     2.0000 </r>
       <r>   -26.1789     0.0000     2.0000 </r>
       <r>   -26.0740     0.0000     2.0000 </r>
       <r>   -25.9690     0.0000     2.0000 </r>
       <r>   -25.8640     0.0000     2.0000 </r>
       <r>   -25.7590     0.0000     2.0000 </r>
       <r>   -25.6541     0.0000     2.0000 </r>
       <r>   -25.5491     0.0000     2.0000 </r>
       <r>   -25.4441     0.0000     2.0000 </r>
       <r>   -25.3391     0.0000     2.0000 </r>
       <r>   -25.2342     0.0000     2.0000 </r>
       <r>   -25.1292     0.0000     2.0000 </r>
       <r>   -25.0242     0.0000     2.0000 </r>
       <r>   -24.9193     0.0000     2.0000 </r>
       <r>   -24.8143     0.0000     2.0000 </r>
       <r>   -24.7093     0.0000     2.0000 </r>
       <r>   -24.6043     0.0000     2.0000 </r>
       <r>   -24.4994     0.0000     2.0000 </r>
       <r>   -24.3944     0.0000     2.0000 </r>
       <r>   -24.2894     0.0000     2.0000 </r>
       <r>   -24.1844     0.0000     2.0000 </r>
       <r>   -24.0795     0.0000     2.0000 </r>
       <r>   -23.9745     0.0000     2.0000 </r>
       <r>   -23.8695     0.0000     2.0000 </r>
       <r>   -23.7645     0.0000     2.0000 </r>
       <r>   -23.6596     0.0000     2.0000 </r>
       <r>   -23.5546     0.0000     2.0000 </r>
       <r>   -23.4496     0.0000     2.0000 </r>
       <r>   -23.3446     0.0000     2.0000 </r>
       <r>   -23.2397     0.0000     2.0000 </r>
       <r>   -23.1347     0.0000     2.0000 </r>
       <r>   -23.0297     0.0000     2.0000 </r>
       <r>   -22.9247     0.0000     2.0000 </r>
       <r>   -22.8198     0.0000     2.0000 </r>
       <r>   -22.7148     0.0000     2.0000 </r>
       <r>   -22.6098     0.0000     2.0000 </r>
       <r>   -22.5049     0.0000     2.0000 </r>
       <r>   -22.3999     0.0000     2.0000 </r>
       <r>   -22.2949     0.0000     2.0000 </r>
       <r>   -22.1899     0.0000     2.0000 </r>
       <r>   -22.0850     0.0000     2.0000 </r>
       <r>   -21.9800     0.0000     2.0000 </r>
       <r>   -21.8750     0.0000     2.0000 </r>
       <r>   -21.7700     0.0000     2.0000 </r>
       <r>   -21.6651     0.0000     2.0000 </r>
       <r>   -21.5601     0.0000     2.0000 </r>
       <r>   -21.4551     0.0000     2.0000 </r>
       <r>   -21.3501     0.0000     2.0000 </r>
       <r>   -21.2452     0.0000     2.0000 </r>
       <r>   -21.1402     0.0000     2.0000 </r>
       <r>   -21.0352     0.0000     2.0000 </r>
       <r>   -20.9302     0.0000     2.0000 </r>
       <r>   -20.8253     0.0000     2.0000 </r>
       <r>   -20.7203     0.0000     2.0000 </r>
       <r>   -20.6153     0.0000     2.0000 </r>
       <r>   -20.5104     0.0000     2.0000 </r>
       <r>   -20.4054     0.0000     2.0000 </r>
       <r>   -20.3004     0.0000     2.0000 </r>
       <r>   -20.1954     0.0000     2.0000 </r>
       <r>   -20.0905     0.0000     2.0000 </r>
       <r>   -19.9855     0.0000     2.0000 </r>
       <r>   -19.8805     0.0000     2.0000 </r>
       <r>   -19.7755     0.0000     2.0000 </r>
       <r>   -19.6706     0.0000     2.0000 </r>
       <r>   -19.5656     0.0000     2.0000 </r>
       <r>   -19.4606     0.0000     2.0000 </r>
       <r>   -19.3556     0.0000     2.0000 </r>
       <r>   -19.2507     0.0000     2.0000 </r>
       <r>   -19.1457     0.0000     2.0000 </r>
       <r>   -19.0407     0.0000     2.0000 </r>
       <r>   -18.9357     0.0000     2.0000 </r>
       <r>   -18.8308     0.0000     2.0000 </r>
       <r>   -18.7258     0.0000     2.0000 </r>
       <r>   -18.6208     0.0000     2.0000 </r>
       <r>   -18.5158     0.0000     2.0000 </r>
       <r>   -18.4109     0.0000     2.0000 </r>
       <r>   -18.3059     0.0000     2.0000 </r>
       <r>   -18.2009     0.0000     2.0000 </r>
       <r>   -18.0960     0.0000     2.0000 </r>
       <r>   -17.9910     0.0000     2.0000 </r>
       <r>   -17.8860     0.0000     2.0000 </r>
       <r>   -17.7810     0.0000     2.0000 </r>
       <r>   -17.6761     0.0000     2.0000 </r>
       <r>   -17.5711     0.0000     2.0000 </r>
       <r>   -17.4661     0.0000     2.0000 </r>
       <r>   -17.3611     0.0000     2.0000 </r>
       <r>   -17.2562     0.0000     2.0000 </r>
       <r>   -17.1512     0.0000     2.0000 </r>
       <r>   -17.0462     0.0000     2.0000 </r>
       <r>   -16.9412     0.0000     2.0000 </r>
       <r>   -16.8363     0.0000     2.0000 </r>
       <r>   -16.7313     0.0000     2.0000 </r>
       <r>   -16.6263     0.0000     2.0000 </r>
       <r>   -16.5213     0.0000     2.0000 </r>
       <r>   -16.4164     0.0000     2.0000 </r>
       <r>   -16.3114     0.0000     2.0000 </r>
       <r>   -16.2064     0.0000     2.0000 </r>
       <r>   -16.1015     0.0000     2.0000 </r>
       <r>   -15.9965     0.0000     2.0000 </r>
       <r>   -15.8915     0.0000     2.0000 </r>
       <r>   -15.7865     0.0000     2.0000 </r>
       <r>   -15.6816     0.0000     2.0000 </r>
       <r>   -15.5766     0.0000     2.0000 </r>
       <r>   -15.4716     0.0000     2.0000 </r>
       <r>   -15.3666     0.0000     2.0000 </r>
       <r>   -15.2617     0.0000     2.0000 </r>
       <r>   -15.1567     0.0000     2.0000 </r>
       <r>   -15.0517     0.0000     2.0000 </r>
       <r>   -14.9467     0.0000     2.0000 </r>
       <r>   -14.8418     0.0000     2.0000 </r>
       <r>   -14.7368    -0.0000     2.0000 </r>
       <r>   -14.6318    -0.0000     2.0000 </r>
       <r>   -14.5268    -0.0000     2.0000 </r>
       <r>   -14.4219    -0.0000     2.0000 </r>
       <r>   -14.3169    -0.0000     2.0000 </r>
       <r>   -14.2119    -0.0004     2.0000 </r>
       <r>   -14.1069    -0.0763     1.9920 </r>
       <r>   -14.0020    -0.5792     1.9312 </r>
       <r>   -13.8970     8.6224     2.8363 </r>
       <r>   -13.7920    11.4568     4.0389 </r>
       <r>   -13.6871    -0.2197     4.0159 </r>
       <r>   -13.5821    -0.1499     4.0001 </r>
       <r>   -13.4771    -0.0013     4.0000 </r>
       <r>   -13.3721    -0.0000     4.0000 </r>
       <r>   -13.2672    -0.0000     4.0000 </r>
       <r>   -13.1622     0.0000     4.0000 </r>
       <r>   -13.0572     0.0000     4.0000 </r>
       <r>   -12.9522     0.0000     4.0000 </r>
       <r>   -12.8473     0.0000     4.0000 </r>
       <r>   -12.7423     0.0000     4.0000 </r>
       <r>   -12.6373     0.0000     4.0000 </r>
       <r>   -12.5323     0.0000     4.0000 </r>
       <r>   -12.4274     0.0000     4.0000 </r>
       <r>   -12.3224     0.0000     4.0000 </r>
       <r>   -12.2174     0.0000     4.0000 </r>
       <r>   -12.1124    -0.0000     4.0000 </r>
       <r>   -12.0075    -0.0000     4.0000 </r>
       <r>   -11.9025    -0.0000     4.0000 </r>
       <r>   -11.7975    -0.0000     4.0000 </r>
       <r>   -11.6926    -0.0000     4.0000 </r>
       <r>   -11.5876    -0.0010     3.9999 </r>
       <r>   -11.4826    -0.1250     3.9868 </r>
       <r>   -11.3776    -0.3843     3.9464 </r>
       <r>   -11.2727    10.1600     5.0130 </r>
       <r>   -11.1677    12.2201     6.2958 </r>
       <r>   -11.0627    20.0088     8.3962 </r>
       <r>   -10.9577    15.3927    10.0120 </r>
       <r>   -10.8528     0.1495    10.0277 </r>
       <r>   -10.7478    -0.2602    10.0004 </r>
       <r>   -10.6428    -0.0035    10.0000 </r>
       <r>   -10.5378    -0.0009     9.9999 </r>
       <r>   -10.4329    -0.1197     9.9873 </r>
       <r>   -10.3279    -0.3963     9.9457 </r>
       <r>   -10.2229    10.5137    11.0494 </r>
       <r>   -10.1179     9.6556    12.0630 </r>
       <r>   -10.0130    -0.5018    12.0103 </r>
       <r>    -9.9080    -0.0977    12.0001 </r>
       <r>    -9.8030    -0.0006    12.0000 </r>
       <r>    -9.6981    -0.0000    12.0000 </r>
       <r>    -9.5931    -0.0000    12.0000 </r>
       <r>    -9.4881    -0.0000    12.0000 </r>
       <r>    -9.3831    -0.0000    12.0000 </r>
       <r>    -9.2782    -0.0000    12.0000 </r>
       <r>    -9.1732    -0.0000    12.0000 </r>
       <r>    -9.0682    -0.0001    12.0000 </r>
       <r>    -8.9632    -0.0243    11.9974 </r>
       <r>    -8.8583    -0.5605    11.9386 </r>
       <r>    -8.7533     4.4656    12.4074 </r>
       <r>    -8.6483    14.2079    13.8988 </r>
       <r>    -8.5433     1.2956    14.0348 </r>
       <r>    -8.4384    -0.6081    13.9710 </r>
       <r>    -8.3334     0.7866    14.0536 </r>
       <r>    -8.2284    13.7479    15.4968 </r>
       <r>    -8.1234     5.4257    16.0663 </r>
       <r>    -8.0185    -0.5995    16.0034 </r>
       <r>    -7.9135    -0.1339    15.9893 </r>
       <r>    -7.8085    -0.8311    15.9021 </r>
       <r>    -7.7035    10.2007    16.9729 </r>
       <r>    -7.5986    27.3972    19.8489 </r>
       <r>    -7.4936    18.2768    21.7675 </r>
       <r>    -7.3886     8.3708    22.6462 </r>
       <r>    -7.2837    25.2326    25.2949 </r>
       <r>    -7.1787    21.7559    27.5787 </r>
       <r>    -7.0737     6.0619    28.2151 </r>
       <r>    -6.9687    25.0547    30.8452 </r>
       <r>    -6.8638    32.2449    34.2301 </r>
       <r>    -6.7588    26.8782    37.0516 </r>
       <r>    -6.6538    37.0597    40.9419 </r>
       <r>    -6.5488    49.3609    46.1235 </r>
       <r>    -6.4439    32.7330    49.5596 </r>
       <r>    -6.3389    39.3917    53.6947 </r>
       <r>    -6.2339    45.1304    58.4322 </r>
       <r>    -6.1289    48.1298    63.4845 </r>
       <r>    -6.0240    34.9642    67.1549 </r>
       <r>    -5.9190    18.8348    69.1320 </r>
       <r>    -5.8140    28.6452    72.1390 </r>
       <r>    -5.7090    37.2703    76.0514 </r>
       <r>    -5.6041    41.7718    80.4364 </r>
       <r>    -5.4991    51.2142    85.8125 </r>
       <r>    -5.3941    63.7897    92.5088 </r>
       <r>    -5.2892    83.4361   101.2674 </r>
       <r>    -5.1842    82.8797   109.9676 </r>
       <r>    -5.0792    71.5815   117.4817 </r>
       <r>    -4.9742    67.1387   124.5295 </r>
       <r>    -4.8693    89.4407   133.9185 </r>
       <r>    -4.7643    76.3905   141.9375 </r>
       <r>    -4.6593    37.3911   145.8626 </r>
       <r>    -4.5543     6.1505   146.5082 </r>
       <r>    -4.4494    13.3173   147.9062 </r>
       <r>    -4.3444     0.4505   147.9535 </r>
       <r>    -4.2394     5.4091   148.5213 </r>
       <r>    -4.1344    23.4747   150.9855 </r>
       <r>    -4.0295    10.4809   152.0857 </r>
       <r>    -3.9245    -0.7065   152.0116 </r>
       <r>    -3.8195    -0.1093   152.0001 </r>
       <r>    -3.7145    -0.0046   151.9996 </r>
       <r>    -3.6096    -0.2654   151.9717 </r>
       <r>    -3.5046     0.6786   152.0430 </r>
       <r>    -3.3996    13.6057   153.4712 </r>
       <r>    -3.2946     5.6646   154.0658 </r>
       <r>    -3.1897    -1.0835   153.9521 </r>
       <r>    -3.0847     2.8406   154.2503 </r>
       <r>    -2.9797    14.4782   155.7701 </r>
       <r>    -2.8748    14.2188   157.2627 </r>
       <r>    -2.7698     7.7021   158.0712 </r>
       <r>    -2.6648    -0.7545   157.9920 </r>
       <r>    -2.5598    -0.4136   157.9486 </r>
       <r>    -2.4549    10.6651   159.0682 </r>
       <r>    -2.3499    17.6107   160.9168 </r>
       <r>    -2.2449    10.7731   162.0477 </r>
       <r>    -2.1399    -0.8423   161.9593 </r>
       <r>    -2.0350     2.8313   162.2565 </r>
       <r>    -1.9300    17.5204   164.0957 </r>
       <r>    -1.8250    16.1736   165.7935 </r>
       <r>    -1.7200    12.3477   167.0897 </r>
       <r>    -1.6151     8.7387   168.0070 </r>
       <r>    -1.5101     3.2490   168.3481 </r>
       <r>    -1.4051    14.3530   169.8548 </r>
       <r>    -1.3001     1.7616   170.0397 </r>
       <r>    -1.1952    -0.6365   169.9729 </r>
       <r>    -1.0902     0.3675   170.0114 </r>
       <r>    -0.9852    14.0644   171.4878 </r>
       <r>    -0.8803    19.1531   173.4984 </r>
       <r>    -0.7753     4.7964   174.0019 </r>
       <r>    -0.6703     6.2240   174.6553 </r>
       <r>    -0.5653    12.7080   175.9893 </r>
       <r>    -0.4604    -0.8742   175.8975 </r>
       <r>    -0.3554    11.1040   177.0631 </r>
       <r>    -0.2504    28.4904   180.0539 </r>
       <r>    -0.1454    16.4575   181.7815 </r>
       <r>    -0.0405     2.3907   182.0325 </r>
       <r>     0.0645    -0.3818   181.9924 </r>
       <r>     0.1695    12.5410   183.3089 </r>
       <r>     0.2745     7.2592   184.0709 </r>
       <r>     0.3794    -0.6207   184.0057 </r>
       <r>     0.4844    -0.0543   184.0000 </r>
       <r>     0.5894    -0.0002   184.0000 </r>
       <r>     0.6944    -0.0000   184.0000 </r>
       <r>     0.7993    -0.0000   184.0000 </r>
       <r>     0.9043     0.0000   184.0000 </r>
       <r>     1.0093     0.0000   184.0000 </r>
       <r>     1.1143     0.0000   184.0000 </r>
       <r>     1.2192     0.0000   184.0000 </r>
       <r>     1.3242     0.0000   184.0000 </r>
       <r>     1.4292     0.0000   184.0000 </r>
       <r>     1.5341     0.0000   184.0000 </r>
       <r>     1.6391     0.0000   184.0000 </r>
      </set>
      <set comment="spin 2">
       <r>   -29.8530     0.0000     0.0000 </r>
       <r>   -29.7480     0.0000     0.0000 </r>
       <r>   -29.6431     0.0000     0.0000 </r>
       <r>   -29.5381     0.0000     0.0000 </r>
       <r>   -29.4331     0.0000     0.0000 </r>
       <r>   -29.3282     0.0000     0.0000 </r>
       <r>   -29.2232    -0.0000    -0.0000 </r>
       <r>   -29.1182    -0.0000    -0.0000 </r>
       <r>   -29.0132    -0.0000    -0.0000 </r>
       <r>   -28.9083    -0.0000    -0.0000 </r>
       <r>   -28.8033    -0.0000    -0.0000 </r>
       <r>   -28.6983    -0.0016    -0.0002 </r>
       <r>   -28.5933    -0.1682    -0.0178 </r>
       <r>   -28.4884    -0.0987    -0.0282 </r>
       <r>   -28.3834    11.9276     1.2239 </r>
       <r>   -28.2784     8.0635     2.0704 </r>
       <r>   -28.1734    -0.6034     2.0070 </r>
       <r>   -28.0685    -0.0665     2.0000 </r>
       <r>   -27.9635    -0.0003     2.0000 </r>
       <r>   -27.8585    -0.0000     2.0000 </r>
       <r>   -27.7535    -0.0000     2.0000 </r>
       <r>   -27.6486     0.0000     2.0000 </r>
       <r>   -27.5436     0.0000     2.0000 </r>
       <r>   -27.4386     0.0000     2.0000 </r>
       <r>   -27.3336     0.0000     2.0000 </r>
       <r>   -27.2287     0.0000     2.0000 </r>
       <r>   -27.1237     0.0000     2.0000 </r>
       <r>   -27.0187     0.0000     2.0000 </r>
       <r>   -26.9138     0.0000     2.0000 </r>
       <r>   -26.8088     0.0000     2.0000 </r>
       <r>   -26.7038     0.0000     2.0000 </r>
       <r>   -26.5988     0.0000     2.0000 </r>
       <r>   -26.4939     0.0000     2.0000 </r>
       <r>   -26.3889     0.0000     2.0000 </r>
       <r>   -26.2839     0.0000     2.0000 </r>
       <r>   -26.1789     0.0000     2.0000 </r>
       <r>   -26.0740     0.0000     2.0000 </r>
       <r>   -25.9690     0.0000     2.0000 </r>
       <r>   -25.8640     0.0000     2.0000 </r>
       <r>   -25.7590     0.0000     2.0000 </r>
       <r>   -25.6541     0.0000     2.0000 </r>
       <r>   -25.5491     0.0000     2.0000 </r>
       <r>   -25.4441     0.0000     2.0000 </r>
       <r>   -25.3391     0.0000     2.0000 </r>
       <r>   -25.2342     0.0000     2.0000 </r>
       <r>   -25.1292     0.0000     2.0000 </r>
       <r>   -25.0242     0.0000     2.0000 </r>
       <r>   -24.9193     0.0000     2.0000 </r>
       <r>   -24.8143     0.0000     2.0000 </r>
       <r>   -24.7093     0.0000     2.0000 </r>
       <r>   -24.6043     0.0000     2.0000 </r>
       <r>   -24.4994     0.0000     2.0000 </r>
       <r>   -24.3944     0.0000     2.0000 </r>
       <r>   -24.2894     0.0000     2.0000 </r>
       <r>   -24.1844     0.0000     2.0000 </r>
       <r>   -24.0795     0.0000     2.0000 </r>
       <r>   -23.9745     0.0000     2.0000 </r>
       <r>   -23.8695     0.0000     2.0000 </r>
       <r>   -23.7645     0.0000     2.0000 </r>
       <r>   -23.6596     0.0000     2.0000 </r>
       <r>   -23.5546     0.0000     2.0000 </r>
       <r>   -23.4496     0.0000     2.0000 </r>
       <r>   -23.3446     0.0000     2.0000 </r>
       <r>   -23.2397     0.0000     2.0000 </r>
       <r>   -23.1347     0.0000     2.0000 </r>
       <r>   -23.0297     0.0000     2.0000 </r>
       <r>   -22.9247     0.0000     2.0000 </r>
       <r>   -22.8198     0.0000     2.0000 </r>
       <r>   -22.7148     0.0000     2.0000 </r>
       <r>   -22.6098     0.0000     2.0000 </r>
       <r>   -22.5049     0.0000     2.0000 </r>
       <r>   -22.3999     0.0000     2.0000 </r>
       <r>   -22.2949     0.0000     2.0000 </r>
       <r>   -22.1899     0.0000     2.0000 </r>
       <r>   -22.0850     0.0000     2.0000 </r>
       <r>   -21.9800     0.0000     2.0000 </r>
       <r>   -21.8750     0.0000     2.0000 </r>
       <r>   -21.7700     0.0000     2.0000 </r>
       <r>   -21.6651     0.0000     2.0000 </r>
       <r>   -21.5601     0.0000     2.0000 </r>
       <r>   -21.4551     0.0000     2.0000 </r>
       <r>   -21.3501     0.0000     2.0000 </r>
       <r>   -21.2452     0.0000     2.0000 </r>
       <r>   -21.1402     0.0000     2.0000 </r>
       <r>   -21.0352     0.0000     2.0000 </r>
       <r>   -20.9302     0.0000     2.0000 </r>
       <r>   -20.8253     0.0000     2.0000 </r>
       <r>   -20.7203     0.0000     2.0000 </r>
       <r>   -20.6153     0.0000     2.0000 </r>
       <r>   -20.5104     0.0000     2.0000 </r>
       <r>   -20.4054     0.0000     2.0000 </r>
       <r>   -20.3004     0.0000     2.0000 </r>
       <r>   -20.1954     0.0000     2.0000 </r>
       <r>   -20.0905     0.0000     2.0000 </r>
       <r>   -19.9855     0.0000     2.0000 </r>
       <r>   -19.8805     0.0000     2.0000 </r>
       <r>   -19.7755     0.0000     2.0000 </r>
       <r>   -19.6706     0.0000     2.0000 </r>
       <r>   -19.5656     0.0000     2.0000 </r>
       <r>   -19.4606     0.0000     2.0000 </r>
       <r>   -19.3556     0.0000     2.0000 </r>
       <r>   -19.2507     0.0000     2.0000 </r>
       <r>   -19.1457     0.0000     2.0000 </r>
       <r>   -19.0407     0.0000     2.0000 </r>
       <r>   -18.9357     0.0000     2.0000 </r>
       <r>   -18.8308     0.0000     2.0000 </r>
       <r>   -18.7258     0.0000     2.0000 </r>
       <r>   -18.6208     0.0000     2.0000 </r>
       <r>   -18.5158     0.0000     2.0000 </r>
       <r>   -18.4109     0.0000     2.0000 </r>
       <r>   -18.3059     0.0000     2.0000 </r>
       <r>   -18.2009     0.0000     2.0000 </r>
       <r>   -18.0960     0.0000     2.0000 </r>
       <r>   -17.9910     0.0000     2.0000 </r>
       <r>   -17.8860     0.0000     2.0000 </r>
       <r>   -17.7810     0.0000     2.0000 </r>
       <r>   -17.6761     0.0000     2.0000 </r>
       <r>   -17.5711     0.0000     2.0000 </r>
       <r>   -17.4661     0.0000     2.0000 </r>
       <r>   -17.3611     0.0000     2.0000 </r>
       <r>   -17.2562     0.0000     2.0000 </r>
       <r>   -17.1512     0.0000     2.0000 </r>
       <r>   -17.0462     0.0000     2.0000 </r>
       <r>   -16.9412     0.0000     2.0000 </r>
       <r>   -16.8363     0.0000     2.0000 </r>
       <r>   -16.7313     0.0000     2.0000 </r>
       <r>   -16.6263     0.0000     2.0000 </r>
       <r>   -16.5213     0.0000     2.0000 </r>
       <r>   -16.4164     0.0000     2.0000 </r>
       <r>   -16.3114     0.0000     2.0000 </r>
       <r>   -16.2064     0.0000     2.0000 </r>
       <r>   -16.1015     0.0000     2.0000 </r>
       <r>   -15.9965     0.0000     2.0000 </r>
       <r>   -15.8915     0.0000     2.0000 </r>
       <r>   -15.7865     0.0000     2.0000 </r>
       <r>   -15.6816     0.0000     2.0000 </r>
       <r>   -15.5766     0.0000     2.0000 </r>
       <r>   -15.4716     0.0000     2.0000 </r>
       <r>   -15.3666     0.0000     2.0000 </r>
       <r>   -15.2617     0.0000     2.0000 </r>
       <r>   -15.1567     0.0000     2.0000 </r>
       <r>   -15.0517     0.0000     2.0000 </r>
       <r>   -14.9467     0.0000     2.0000 </r>
       <r>   -14.8418     0.0000     2.0000 </r>
       <r>   -14.7368    -0.0000     2.0000 </r>
       <r>   -14.6318    -0.0000     2.0000 </r>
       <r>   -14.5268    -0.0000     2.0000 </r>
       <r>   -14.4219    -0.0000     2.0000 </r>
       <r>   -14.3169    -0.0000     2.0000 </r>
       <r>   -14.2119    -0.0000     2.0000 </r>
       <r>   -14.1069    -0.0107     1.9989 </r>
       <r>   -14.0020    -0.4233     1.9544 </r>
       <r>   -13.8970     2.3487     2.2010 </r>
       <r>   -13.7920    14.5923     3.7328 </r>
       <r>   -13.6871     3.0350     4.0514 </r>
       <r>   -13.5821    -0.4752     4.0015 </r>
       <r>   -13.4771    -0.0144     4.0000 </r>
       <r>   -13.3721    -0.0000     4.0000 </r>
       <r>   -13.2672    -0.0000     4.0000 </r>
       <r>   -13.1622    -0.0000     4.0000 </r>
       <r>   -13.0572     0.0000     4.0000 </r>
       <r>   -12.9522     0.0000     4.0000 </r>
       <r>   -12.8473     0.0000     4.0000 </r>
       <r>   -12.7423     0.0000     4.0000 </r>
       <r>   -12.6373     0.0000     4.0000 </r>
       <r>   -12.5323     0.0000     4.0000 </r>
       <r>   -12.4274     0.0000     4.0000 </r>
       <r>   -12.3224     0.0000     4.0000 </r>
       <r>   -12.2174     0.0000     4.0000 </r>
       <r>   -12.1124    -0.0000     4.0000 </r>
       <r>   -12.0075    -0.0000     4.0000 </r>
       <r>   -11.9025    -0.0000     4.0000 </r>
       <r>   -11.7975    -0.0000     4.0000 </r>
       <r>   -11.6926    -0.0000     4.0000 </r>
       <r>   -11.5876    -0.0001     4.0000 </r>
       <r>   -11.4826    -0.0317     3.9967 </r>
       <r>   -11.3776    -0.6038     3.9333 </r>
       <r>   -11.2727     4.9309     4.4509 </r>
       <r>   -11.1677    15.5830     6.0867 </r>
       <r>   -11.0627    14.8429     7.6448 </r>
       <r>   -10.9577    13.0781     9.0177 </r>
       <r>   -10.8528     9.9036    10.0573 </r>
       <r>   -10.7478    -0.4279    10.0124 </r>
       <r>   -10.6428    -0.1171    10.0001 </r>
       <r>   -10.5378    -0.0009    10.0000 </r>
       <r>   -10.4329    -0.0224     9.9976 </r>
       <r>   -10.3279    -0.5488     9.9400 </r>
       <r>   -10.2229     4.2335    10.3844 </r>
       <r>   -10.1179    14.2978    11.8853 </r>
       <r>   -10.0130     1.4429    12.0368 </r>
       <r>    -9.9080    -0.3439    12.0007 </r>
       <r>    -9.8030    -0.0066    12.0000 </r>
       <r>    -9.6981    -0.0000    12.0000 </r>
       <r>    -9.5931    -0.0000    12.0000 </r>
       <r>    -9.4881    -0.0000    12.0000 </r>
       <r>    -9.3831    -0.0000    12.0000 </r>
       <r>    -9.2782    -0.0000    12.0000 </r>
       <r>    -9.1732    -0.0000    12.0000 </r>
       <r>    -9.0682    -0.0000    12.0000 </r>
       <r>    -8.9632    -0.0083    11.9991 </r>
       <r>    -8.8583    -0.3802    11.9592 </r>
       <r>    -8.7533     1.8380    12.1522 </r>
       <r>    -8.6483    14.4776    13.6719 </r>
       <r>    -8.5433     3.6596    14.0561 </r>
       <r>    -8.4384    -0.5805    13.9952 </r>
       <r>    -8.3334    -0.6262    13.9294 </r>
       <r>    -8.2284     7.9230    14.7611 </r>
       <r>    -8.1234    12.0416    16.0252 </r>
       <r>    -8.0185    -0.0652    16.0183 </r>
       <r>    -7.9135    -0.1917    15.9982 </r>
       <r>    -7.8085    -0.6778    15.9271 </r>
       <r>    -7.7035     3.1286    16.2555 </r>
       <r>    -7.5986    26.9483    19.0843 </r>
       <r>    -7.4936    22.9896    21.4976 </r>
       <r>    -7.3886     5.9218    22.1193 </r>
       <r>    -7.2837    20.7334    24.2957 </r>
       <r>    -7.1787    26.4077    27.0679 </r>
       <r>    -7.0737     9.0970    28.0228 </r>
       <r>    -6.9687    16.6647    29.7722 </r>
       <r>    -6.8638    33.4555    33.2841 </r>
       <r>    -6.7588    28.0269    36.2262 </r>
       <r>    -6.6538    35.6258    39.9660 </r>
       <r>    -6.5488    47.6234    44.9652 </r>
       <r>    -6.4439    34.8496    48.6235 </r>
       <r>    -6.3389    38.2826    52.6422 </r>
       <r>    -6.2339    43.9811    57.2590 </r>
       <r>    -6.1289    48.8339    62.3853 </r>
       <r>    -6.0240    38.3192    66.4078 </r>
       <r>    -5.9190    21.9783    68.7150 </r>
       <r>    -5.8140    23.6187    71.1943 </r>
       <r>    -5.7090    36.6335    75.0399 </r>
       <r>    -5.6041    41.0893    79.3532 </r>
       <r>    -5.4991    48.5503    84.4497 </r>
       <r>    -5.3941    58.4462    90.5850 </r>
       <r>    -5.2892    80.2289    99.0069 </r>
       <r>    -5.1842    85.9187   108.0261 </r>
       <r>    -5.0792    76.4387   116.0502 </r>
       <r>    -4.9742    62.8835   122.6513 </r>
       <r>    -4.8693    83.6517   131.4325 </r>
       <r>    -4.7643    80.2403   139.8557 </r>
       <r>    -4.6593    52.5698   145.3741 </r>
       <r>    -4.5543     7.6885   146.1812 </r>
       <r>    -4.4494    12.1243   147.4539 </r>
       <r>    -4.3444     5.5307   148.0345 </r>
       <r>    -4.2394     0.0297   148.0376 </r>
       <r>    -4.1344    16.2033   149.7386 </r>
       <r>    -4.0295    19.4742   151.7828 </r>
       <r>    -3.9245     2.5969   152.0555 </r>
       <r>    -3.8195    -0.5129   152.0016 </r>
       <r>    -3.7145    -0.0153   152.0000 </r>
       <r>    -3.6096    -0.0000   152.0000 </r>
       <r>    -3.5046    -0.0065   151.9993 </r>
       <r>    -3.3996    -0.3426   151.9634 </r>
       <r>    -3.2946     1.4280   152.1133 </r>
       <r>    -3.1897    14.1814   153.6019 </r>
       <r>    -3.0847     3.7793   153.9987 </r>
       <r>    -2.9797     8.9888   154.9423 </r>
       <r>    -2.8748    14.1911   156.4320 </r>
       <r>    -2.7698    13.8863   157.8897 </r>
       <r>    -2.6648     1.3983   158.0364 </r>
       <r>    -2.5598    -0.7902   157.9535 </r>
       <r>    -2.4549     2.4120   158.2067 </r>
       <r>    -2.3499    14.1629   159.6934 </r>
       <r>    -2.2449    13.0022   161.0583 </r>
       <r>    -2.1399     9.3224   162.0369 </r>
       <r>    -2.0350    -0.1403   162.0222 </r>
       <r>    -1.9300    12.4162   163.3256 </r>
       <r>    -1.8250    10.9297   164.4729 </r>
       <r>    -1.7200    15.2925   166.0782 </r>
       <r>    -1.6151    15.5248   167.7079 </r>
       <r>    -1.5101     2.9474   168.0173 </r>
       <r>    -1.4051     1.1488   168.1379 </r>
       <r>    -1.3001    14.3934   169.6488 </r>
       <r>    -1.1952     3.8874   170.0569 </r>
       <r>    -1.0902    -0.9131   169.9611 </r>
       <r>    -0.9852     1.5544   170.1242 </r>
       <r>    -0.8803    15.0470   171.7038 </r>
       <r>    -0.7753    17.0457   173.4931 </r>
       <r>    -0.6703     4.8633   174.0036 </r>
       <r>    -0.5653     8.4891   174.8948 </r>
       <r>    -0.4604    10.5904   176.0065 </r>
       <r>    -0.3554    -0.0994   175.9960 </r>
       <r>    -0.2504    23.8310   178.4977 </r>
       <r>    -0.1454    16.7593   180.2570 </r>
       <r>    -0.0405    13.1710   181.6396 </r>
       <r>     0.0645     3.4150   181.9981 </r>
       <r>     0.1695     3.8804   182.4054 </r>
       <r>     0.2745    14.2037   183.8964 </r>
       <r>     0.3794     1.3255   184.0356 </r>
       <r>     0.4844    -0.3326   184.0006 </r>
       <r>     0.5894    -0.0061   184.0000 </r>
       <r>     0.6944    -0.0000   184.0000 </r>
       <r>     0.7993    -0.0000   184.0000 </r>
       <r>     0.9043    -0.0000   184.0000 </r>
       <r>     1.0093     0.0000   184.0000 </r>
       <r>     1.1143     0.0000   184.0000 </r>
       <r>     1.2192     0.0000   184.0000 </r>
       <r>     1.3242     0.0000   184.0000 </r>
       <r>     1.4292     0.0000   184.0000 </r>
       <r>     1.5341     0.0000   184.0000 </r>
       <r>     1.6391     0.0000   184.0000 </r>
      </set>
     </set>
    </array>
   </total>
  </dos>
 </calculation>
 <structure name="finalpos" >
  <crystal>
   <varray name="basis" >
    <v>      15.00000000       0.00000000       0.00000000 </v>
    <v>       0.00000000      15.00000000       0.00000000 </v>
    <v>       0.00000000       0.00000000      15.00000000 </v>
   </varray>
   <i name="volume">   3375.00000000 </i>
   <varray name="rec_basis" >
    <v>       0.06666667       0.00000000       0.00000000 </v>
    <v>       0.00000000       0.06666667       0.00000000 </v>
    <v>       0.00000000       0.00000000       0.06666667 </v>
   </varray>
  </crystal>
  <varray name="positions" >
   <v>       0.29468800       0.42685267       0.54828267 </v>
   <v>       0.37754200       0.54958200       0.49005133 </v>
   <v>       0.38517333       0.28832933       0.56786067 </v>
   <v>       0.53724067       0.50490867       0.49338333 </v>
   <v>       0.54558267       0.34502267       0.52770933 </v>
   <v>       0.45213267       0.43237933       0.61760267 </v>
   <v>       0.42066800       0.39951000       0.45469400 </v>
   <v>       0.22437333       0.57812200       0.53765200 </v>
   <v>       0.34061267       0.54793067       0.64416067 </v>
   <v>       0.34332867       0.68700000       0.56641933 </v>
   <v>       0.48569467       0.65683867       0.47336467 </v>
   <v>       0.62354133       0.46746867       0.62169200 </v>
   <v>       0.48572867       0.59893067       0.61744333 </v>
   <v>       0.74346667       0.48781067       0.63671867 </v>
   <v>       0.81673333       0.51312400       0.63551867 </v>
  </varray>
 </structure>
</modeling>
