<?xml version="1.0" encoding="ISO-8859-1"?>
<modeling>
 <generator>
  <i name="program" type="string">vasp </i>
  <i name="version" type="string">5.4.4.18Apr17-6-g9f103f2a35  </i>
  <i name="subversion" type="string">(build May 08 2019 13:49:07) complex            parallel </i>
  <i name="platform" type="string">LinuxIFC </i>
  <i name="date" type="string">2019 11 13 </i>
  <i name="time" type="string">15:31:26 </i>
 </generator>
 <incar>
  <i type="string" name="SYSTEM"> CuCO</i>
  <i type="int" name="ISTART">     0</i>
  <i type="string" name="PREC">accurate</i>
  <i type="string" name="ALGO"> Fast</i>
  <i type="int" name="ISPIN">     2</i>
  <i type="int" name="INIWAV">     1</i>
  <i type="int" name="NELM">   300</i>
  <i type="int" name="NELMIN">     3</i>
  <i type="int" name="IBRION">    -1</i>
  <i name="EDIFF">      0.00000010</i>
  <i name="EDIFFG">     -0.00100000</i>
  <i type="int" name="NSW">     0</i>
  <i type="int" name="ISYM">     0</i>
  <i name="ENCUT">    600.00000000</i>
  <i name="NUPDOWN">      1.00000000</i>
  <i type="logical" name="LREAL"> F  </i>
  <i type="int" name="ISMEAR">     1</i>
  <i name="SIGMA">      0.10000000</i>
  <i name="KSPACING">      0.50000000</i>
  <i type="logical" name="KGAMMA"> F  </i>
  <i type="logical" name="LWAVE"> F  </i>
  <i type="logical" name="LCHARG"> F  </i>
  <v type="int" name="KPOINT_BSE">    -1     0     0     0</v>
  <i type="int" name="NELM">   300</i>
  <i type="string" name="GGA"> PE</i>
 </incar>
 <structure name="primitive_cell" >
  <crystal>
   <varray name="basis" >
    <v>      15.00000000       0.00000000       0.00000000 </v>
    <v>       0.00000000      15.00000000       0.00000000 </v>
    <v>       0.00000000       0.00000000      15.00000000 </v>
   </varray>
   <i name="volume">   3375.00000000 </i>
   <varray name="rec_basis" >
    <v>       0.06666667       0.00000000       0.00000000 </v>
    <v>       0.00000000       0.06666667       0.00000000 </v>
    <v>       0.00000000       0.00000000       0.06666667 </v>
   </varray>
  </crystal>
  <varray name="positions" >
   <v>       0.29336267       0.41897800      -0.44900200 </v>
   <v>       0.39119133       0.29141067      -0.43908067 </v>
   <v>       0.37702000      -0.45498800       0.49031333 </v>
   <v>       0.41978733       0.40149933       0.44859667 </v>
   <v>       0.44437467       0.43373267      -0.38652533 </v>
   <v>       0.22846267      -0.42569133      -0.45679067 </v>
   <v>       0.33612133      -0.45223600      -0.34157067 </v>
   <v>      -0.46576267      -0.49250800       0.48615067 </v>
   <v>      -0.44780800       0.35269133      -0.47348733 </v>
   <v>       0.35359267      -0.32002667      -0.43129733 </v>
   <v>       0.48758333      -0.40737200      -0.38415333 </v>
   <v>       0.48449800      -0.33599933       0.47775533 </v>
   <v>      -0.38185667       0.47967200      -0.38680800 </v>
   <v>      -0.26812000       0.48007000      -0.35018200 </v>
   <v>      -0.19148000       0.49396333      -0.34963467 </v>
  </varray>
 </structure>
 <varray name="primitive_index" >
  <v type="int" >        1 </v>
  <v type="int" >        3 </v>
  <v type="int" >        2 </v>
  <v type="int" >        7 </v>
  <v type="int" >        6 </v>
  <v type="int" >        8 </v>
  <v type="int" >        9 </v>
  <v type="int" >        4 </v>
  <v type="int" >        5 </v>
  <v type="int" >       10 </v>
  <v type="int" >       13 </v>
  <v type="int" >       11 </v>
  <v type="int" >       12 </v>
  <v type="int" >       14 </v>
  <v type="int" >       15 </v>
 </varray>
 <kpoints>
  <generation param="Monkhorst-Pack">
   <v type="int" name="divisions">       1        1        1 </v>
   <v name="usershift">      0.00000000       0.00000000       0.00000000 </v>
   <v name="genvec1">      1.00000000       0.00000000       0.00000000 </v>
   <v name="genvec2">      0.00000000       1.00000000       0.00000000 </v>
   <v name="genvec3">      0.00000000       0.00000000       1.00000000 </v>
   <v name="shift">      0.00000000       0.00000000       0.00000000 </v>
  </generation>
  <varray name="kpointlist" >
   <v>       0.00000000       0.00000000       0.00000000 </v>
  </varray>
  <varray name="weights" >
   <v>       1.00000000 </v>
  </varray>
 </kpoints>
 <parameters>
  <separator name="general" >
   <i type="string" name="SYSTEM">CuCO</i>
   <i type="logical" name="LCOMPAT"> F  </i>
  </separator>
  <separator name="electronic" >
   <i type="string" name="PREC">accura</i>
   <i name="ENMAX">    600.00000000</i>
   <i name="ENAUG">    644.87300000</i>
   <i name="EDIFF">      0.00000010</i>
   <i type="int" name="IALGO">    68</i>
   <i type="int" name="IWAVPR">    10</i>
   <i type="int" name="NBANDS">    92</i>
   <i name="NELECT">    153.00000000</i>
   <i type="int" name="TURBO">     0</i>
   <i type="int" name="IRESTART">     0</i>
   <i type="int" name="NREBOOT">     0</i>
   <i type="int" name="NMIN">     0</i>
   <i name="EREF">      0.00000000</i>
   <separator name="electronic smearing" >
    <i type="int" name="ISMEAR">     1</i>
    <i name="SIGMA">      0.10000000</i>
    <i name="KSPACING">      0.50000000</i>
    <i type="logical" name="KGAMMA"> F  </i>
   </separator>
   <separator name="electronic projectors" >
    <i type="logical" name="LREAL"> F  </i>
    <v name="ROPT">      0.00000000      0.00000000      0.00000000</v>
    <i type="int" name="LMAXPAW">  -100</i>
    <i type="int" name="LMAXMIX">     2</i>
    <i type="logical" name="NLSPLINE"> F  </i>
   </separator>
   <separator name="electronic startup" >
    <i type="int" name="ISTART">     0</i>
    <i type="int" name="ICHARG">     2</i>
    <i type="int" name="INIWAV">     1</i>
   </separator>
   <separator name="electronic spin" >
    <i type="int" name="ISPIN">     2</i>
    <i type="logical" name="LNONCOLLINEAR"> F  </i>
    <v name="MAGMOM">      0.06666667      0.06666667      0.06666667      0.06666667      0.06666667      0.06666667      0.06666667      0.06666667      0.06666667      0.06666667      0.06666667      0.06666667      0.06666667      0.06666667      0.06666667</v>
    <i name="NUPDOWN">      1.00000000</i>
    <i type="logical" name="LSORBIT"> F  </i>
    <v name="SAXIS">      0.00000000      0.00000000      1.00000000</v>
    <i type="logical" name="LSPIRAL"> F  </i>
    <v name="QSPIRAL">      0.00000000      0.00000000      0.00000000</v>
    <i type="logical" name="LZEROZ"> F  </i>
   </separator>
   <separator name="electronic exchange-correlation" >
    <i type="logical" name="LASPH"> F  </i>
    <i type="logical" name="LMETAGGA"> F  </i>
   </separator>
   <separator name="electronic convergence" >
    <i type="int" name="NELM">   300</i>
    <i type="int" name="NELMDL">    -5</i>
    <i type="int" name="NELMIN">     3</i>
    <i name="ENINI">    600.00000000</i>
    <separator name="electronic convergence detail" >
     <i type="logical" name="LDIAG"> T  </i>
     <i type="logical" name="LSUBROT"> F  </i>
     <i name="WEIMIN">      0.00000000</i>
     <i name="EBREAK">      0.00000000</i>
     <i name="DEPER">      0.30000000</i>
     <i type="int" name="NRMM">     4</i>
     <i name="TIME">      0.40000000</i>
    </separator>
   </separator>
   <separator name="electronic mixer" >
    <i name="AMIX">      0.40000000</i>
    <i name="BMIX">      1.00000000</i>
    <i name="AMIN">      0.10000000</i>
    <i name="AMIX_MAG">      1.60000000</i>
    <i name="BMIX_MAG">      1.00000000</i>
    <separator name="electronic mixer details" >
     <i type="int" name="IMIX">     4</i>
     <i type="logical" name="MIXFIRST"> F  </i>
     <i type="int" name="MAXMIX">   -45</i>
     <i name="WC">    100.00000000</i>
     <i type="int" name="INIMIX">     1</i>
     <i type="int" name="MIXPRE">     1</i>
     <i type="int" name="MREMOVE">     5</i>
    </separator>
   </separator>
   <separator name="electronic dipolcorrection" >
    <i type="logical" name="LDIPOL"> F  </i>
    <i type="logical" name="LMONO"> F  </i>
    <i type="int" name="IDIPOL">     0</i>
    <i name="EPSILON">      1.00000000</i>
    <v name="DIPOL">   -100.00000000   -100.00000000   -100.00000000</v>
    <i name="EFIELD">      0.00000000</i>
   </separator>
  </separator>
  <separator name="grids" >
   <i type="int" name="NGX">   120</i>
   <i type="int" name="NGY">   120</i>
   <i type="int" name="NGZ">   120</i>
   <i type="int" name="NGXF">   240</i>
   <i type="int" name="NGYF">   240</i>
   <i type="int" name="NGZF">   240</i>
   <i type="logical" name="ADDGRID"> F  </i>
  </separator>
  <separator name="ionic" >
   <i type="int" name="NSW">     0</i>
   <i type="int" name="IBRION">    -1</i>
   <i type="int" name="MDALGO">     0</i>
   <i type="int" name="ISIF">     2</i>
   <i name="PSTRESS">      0.00000000</i>
   <i name="EDIFFG">     -0.00100000</i>
   <i type="int" name="NFREE">     0</i>
   <i name="POTIM">      0.50000000</i>
   <i name="SMASS">     -3.00000000</i>
   <i name="SCALEE">      1.00000000</i>
  </separator>
  <separator name="ionic md" >
   <i name="TEBEG">      0.00010000</i>
   <i name="TEEND">      0.00010000</i>
   <i type="int" name="NBLOCK">     1</i>
   <i type="int" name="KBLOCK">     1</i>
   <i type="int" name="NPACO">   256</i>
   <i name="APACO">     16.00000000</i>
  </separator>
  <separator name="symmetry" >
   <i type="int" name="ISYM">     0</i>
   <i name="SYMPREC">      0.00001000</i>
  </separator>
  <separator name="dos" >
   <i type="int" name="LORBIT">     0</i>
   <v name="RWIGS">     -1.00000000     -1.00000000     -1.00000000</v>
   <i type="int" name="NEDOS">   301</i>
   <i name="EMIN">     10.00000000</i>
   <i name="EMAX">    -10.00000000</i>
   <i name="EFERMI">      0.00000000</i>
  </separator>
  <separator name="writing" >
   <i type="int" name="NWRITE">     2</i>
   <i type="logical" name="LWAVE"> F  </i>
   <i type="logical" name="LDOWNSAMPLE"> F  </i>
   <i type="logical" name="LCHARG"> F  </i>
   <i type="logical" name="LPARD"> F  </i>
   <i type="logical" name="LVTOT"> F  </i>
   <i type="logical" name="LVHAR"> F  </i>
   <i type="logical" name="LELF"> F  </i>
   <i type="logical" name="LOPTICS"> F  </i>
   <v name="STM">      0.00000000      0.00000000      0.00000000      0.00000000      0.00000000      0.00000000      0.00000000</v>
  </separator>
  <separator name="performance" >
   <i type="int" name="NPAR">     4</i>
   <i type="int" name="NSIM">     4</i>
   <i type="int" name="NBLK">    -1</i>
   <i type="logical" name="LPLANE"> T  </i>
   <i type="logical" name="LSCALAPACK"> T  </i>
   <i type="logical" name="LSCAAWARE"> F  </i>
   <i type="logical" name="LSCALU"> F  </i>
   <i type="logical" name="LASYNC"> F  </i>
   <i type="logical" name="LORBITALREAL"> F  </i>
  </separator>
  <separator name="miscellaneous" >
   <i type="int" name="IDIOT">     3</i>
   <i type="int" name="ISPECIAL">     0</i>
   <i type="logical" name="LMUSIC"> F  </i>
   <v name="POMASS">     63.54600000     12.01100000     16.00000000</v>
   <v name="DARWINR">      0.00000000      0.00000000      0.00000000</v>
   <v name="DARWINV">      1.00000000      1.00000000      1.00000000</v>
   <i type="logical" name="LCORR"> T  </i>
  </separator>
  <i type="logical" name="GGA_COMPAT"> T  </i>
  <i type="logical" name="LBERRY"> F  </i>
  <i type="int" name="ICORELEVEL">     0</i>
  <i type="logical" name="LDAU"> F  </i>
  <i type="int" name="I_CONSTRAINED_M">     0</i>
  <separator name="electronic exchange-correlation" >
   <i type="string" name="GGA">PE</i>
   <i type="int" name="VOSKOWN">     0</i>
   <i type="logical" name="LHFCALC"> F  </i>
   <i type="string" name="PRECFOCK"></i>
   <i type="logical" name="LSYMGRAD"> F  </i>
   <i type="logical" name="LHFONE"> F  </i>
   <i type="logical" name="LRHFCALC"> F  </i>
   <i type="logical" name="LTHOMAS"> F  </i>
   <i type="logical" name="LMODELHF"> F  </i>
   <i name="ENCUT4O">     -1.00000000</i>
   <i type="int" name="EXXOEP">     0</i>
   <i type="int" name="FOURORBIT">     0</i>
   <i name="AEXX">      0.00000000</i>
   <i name="HFALPHA">      0.00000000</i>
   <i name="MCALPHA">      0.00000000</i>
   <i name="ALDAX">      1.00000000</i>
   <i name="AGGAX">      1.00000000</i>
   <i name="ALDAC">      1.00000000</i>
   <i name="AGGAC">      1.00000000</i>
   <i type="int" name="NKREDX">     1</i>
   <i type="int" name="NKREDY">     1</i>
   <i type="int" name="NKREDZ">     1</i>
   <i type="logical" name="SHIFTRED"> F  </i>
   <i type="logical" name="ODDONLY"> F  </i>
   <i type="logical" name="EVENONLY"> F  </i>
   <i type="int" name="LMAXFOCK">     0</i>
   <i type="int" name="NMAXFOCKAE">     0</i>
   <i type="logical" name="LFOCKAEDFT"> F  </i>
   <i name="HFSCREEN">      0.00000000</i>
   <i name="HFSCREENC">      0.00000000</i>
   <i type="int" name="NBANDSGWLOW">     0</i>
  </separator>
  <separator name="vdW DFT" >
   <i type="logical" name="LUSE_VDW"> F  </i>
   <i name="Zab_VDW">     -0.84910000</i>
   <i name="PARAM1">      0.12340000</i>
   <i name="PARAM2">      1.00000000</i>
   <i name="PARAM3">      0.00000000</i>
  </separator>
  <separator name="model GW" >
   <i type="int" name="MODEL_GW">     0</i>
   <i name="MODEL_EPS0">    135.00000000</i>
   <i name="MODEL_ALPHA">      1.00000000</i>
  </separator>
  <separator name="linear response parameters" >
   <i type="logical" name="LEPSILON"> F  </i>
   <i type="logical" name="LRPA"> F  </i>
   <i type="logical" name="LNABLA"> F  </i>
   <i type="logical" name="LVEL"> F  </i>
   <i type="int" name="KINTER">     0</i>
   <i name="CSHIFT">      0.10000000</i>
   <i name="OMEGAMAX">     -1.00000000</i>
   <i name="DEG_THRESHOLD">      0.00200000</i>
   <i name="RTIME">     -0.10000000</i>
   <i name="WPLASMAI">      0.00000000</i>
   <v name="DFIELD">      0.00000000      0.00000000      0.00000000</v>
   <v name="WPLASMA">      0.00000000      0.00000000      0.00000000      0.00000000      0.00000000      0.00000000      0.00000000      0.00000000      0.00000000</v>
  </separator>
  <separator name="orbital magnetization" >
   <i type="logical" name="NUCIND"> F  </i>
   <v name="MAGPOS">      0.00000000      0.00000000      0.00000000</v>
   <i type="logical" name="LNICSALL"> T  </i>
   <i type="logical" name="ORBITALMAG"> F  </i>
   <i type="logical" name="LMAGBLOCH"> F  </i>
   <i type="logical" name="LCHIMAG"> F  </i>
   <i type="logical" name="LGAUGE"> T  </i>
   <i type="int" name="MAGATOM">     0</i>
   <v name="MAGDIPOL">      0.00000000      0.00000000      0.00000000</v>
   <v name="AVECCONST">      0.00000000      0.00000000      0.00000000</v>
  </separator>
  <separator name="response functions" >
   <i type="logical" name="LADDER"> F  </i>
   <i type="logical" name="LRPAFORCE"> F  </i>
   <i type="logical" name="LFXC"> F  </i>
   <i type="logical" name="LHARTREE"> T  </i>
   <i type="int" name="IBSE">     0</i>
   <v type="int" name="KPOINT">    -1     0     0     0</v>
   <i type="logical" name="LTCTE"> F  </i>
   <i type="logical" name="LTETE"> F  </i>
   <i type="logical" name="LTRIPLET"> F  </i>
   <i type="logical" name="LFXCEPS"> F  </i>
   <i type="logical" name="LFXHEG"> F  </i>
   <i type="int" name="NATURALO">     2</i>
   <i type="logical" name="L2ORDER"> F  </i>
   <i type="logical" name="LMP2LT"> F  </i>
   <i type="logical" name="LUSEW"> F  </i>
   <i name="ENCUTGW">     -2.00000000</i>
   <i name="ENCUTGWSOFT">     -2.00000000</i>
   <i name="ENCUTLF">     -1.00000000</i>
   <i type="int" name="LMAXMP2">    -1</i>
   <i name="SCISSOR">      0.00000000</i>
   <i type="int" name="NOMEGA">     0</i>
   <i type="int" name="NOMEGAR">     0</i>
   <i type="int" name="NBANDSGW">    -1</i>
   <i type="int" name="NBANDSO">    -1</i>
   <i type="int" name="NBANDSV">    -1</i>
   <i type="int" name="NELM">   300</i>
   <i type="int" name="NELMHF">     1</i>
   <i type="int" name="DIM">     3</i>
   <i type="int" name="ANTIRES">     0</i>
   <i name="OMEGAMAX">    -30.00000000</i>
   <i name="OMEGAMIN">    -30.00000000</i>
   <i name="OMEGATL">   -200.00000000</i>
   <i type="int" name="OMEGAGRID">   140</i>
   <i name="CSHIFT">     -0.10000000</i>
   <i type="logical" name="SELFENERGY"> F  </i>
   <i type="logical" name="LSPECTRAL"> F  </i>
   <i type="logical" name="LSPECTRALGW"> F  </i>
   <i type="logical" name="LSINGLES"> F  </i>
   <i type="logical" name="LFERMIGW"> F  </i>
   <i type="logical" name="ODDONLYGW"> F  </i>
   <i type="logical" name="EVENONLYGW"> F  </i>
   <i type="int" name="NKREDLFX">     1</i>
   <i type="int" name="NKREDLFY">     1</i>
   <i type="int" name="NKREDLFZ">     1</i>
   <i type="int" name="MAXMEM">  2800</i>
   <i type="int" name="TELESCOPE">     0</i>
   <i type="int" name="TAUPAR">     1</i>
   <i type="int" name="OMEGAPAR">    -1</i>
   <i name="LAMBDA">      1.00000000</i>
  </separator>
  <separator name="External order field" >
   <i name="OFIELD_KAPPA">      0.00000000</i>
   <v name="OFIELD_K">      0.00000000      0.00000000      0.00000000</v>
   <i name="OFIELD_Q6_NEAR">      0.00000000</i>
   <i name="OFIELD_Q6_FAR">      0.00000000</i>
   <i name="OFIELD_A">      0.00000000</i>
  </separator>
 </parameters>
 <atominfo>
  <atoms>      15 </atoms>
  <types>       3 </types>
  <array name="atoms" >
   <dimension dim="1">ion</dimension>
   <field type="string">element</field>
   <field type="int">atomtype</field>
   <set>
    <rc><c>Cu</c><c>   1</c></rc>
    <rc><c>Cu</c><c>   1</c></rc>
    <rc><c>Cu</c><c>   1</c></rc>
    <rc><c>Cu</c><c>   1</c></rc>
    <rc><c>Cu</c><c>   1</c></rc>
    <rc><c>Cu</c><c>   1</c></rc>
    <rc><c>Cu</c><c>   1</c></rc>
    <rc><c>Cu</c><c>   1</c></rc>
    <rc><c>Cu</c><c>   1</c></rc>
    <rc><c>Cu</c><c>   1</c></rc>
    <rc><c>Cu</c><c>   1</c></rc>
    <rc><c>Cu</c><c>   1</c></rc>
    <rc><c>Cu</c><c>   1</c></rc>
    <rc><c>C </c><c>   2</c></rc>
    <rc><c>O </c><c>   3</c></rc>
   </set>
  </array>
  <array name="atomtypes" >
   <dimension dim="1">type</dimension>
   <field type="int">atomspertype</field>
   <field type="string">element</field>
   <field>mass</field>
   <field>valence</field>
   <field type="string">pseudopotential</field>
   <set>
    <rc><c>  13</c><c>Cu</c><c>     63.54600000</c><c>     11.00000000</c><c>  PAW_PBE Cu 22Jun2005                  </c></rc>
    <rc><c>   1</c><c>C </c><c>     12.01100000</c><c>      4.00000000</c><c>  PAW_PBE C 08Apr2002                   </c></rc>
    <rc><c>   1</c><c>O </c><c>     16.00000000</c><c>      6.00000000</c><c>  PAW_PBE O 08Apr2002                   </c></rc>
   </set>
  </array>
 </atominfo>
 <structure name="initialpos" >
  <crystal>
   <varray name="basis" >
    <v>      15.00000000       0.00000000       0.00000000 </v>
    <v>       0.00000000      15.00000000       0.00000000 </v>
    <v>       0.00000000       0.00000000      15.00000000 </v>
   </varray>
   <i name="volume">   3375.00000000 </i>
   <varray name="rec_basis" >
    <v>       0.06666667       0.00000000       0.00000000 </v>
    <v>       0.00000000       0.06666667       0.00000000 </v>
    <v>       0.00000000       0.00000000       0.06666667 </v>
   </varray>
  </crystal>
  <varray name="positions" >
   <v>       0.29336267       0.41897800       0.55099800 </v>
   <v>       0.37702000       0.54501200       0.49031333 </v>
   <v>       0.39119133       0.29141067       0.56091933 </v>
   <v>       0.53423733       0.50749200       0.48615067 </v>
   <v>       0.55219200       0.35269133       0.52651267 </v>
   <v>       0.44437467       0.43373267       0.61347467 </v>
   <v>       0.41978733       0.40149933       0.44859667 </v>
   <v>       0.22846267       0.57430867       0.54320933 </v>
   <v>       0.33612133       0.54776400       0.65842933 </v>
   <v>       0.35359267       0.67997333       0.56870267 </v>
   <v>       0.48449800       0.66400067       0.47775533 </v>
   <v>       0.61814333       0.47967200       0.61319200 </v>
   <v>       0.48758333       0.59262800       0.61584667 </v>
   <v>       0.73188000       0.48007000       0.64981800 </v>
   <v>       0.80852000       0.49396333       0.65036533 </v>
  </varray>
 </structure>
 <calculation>
  <scstep>
   <time name="dav">    7.79    7.80</time>
   <time name="total">    8.98    9.00</time>
   <energy>
    <i name="alphaZ">     41.16232785 </i>
    <i name="ewald">  16773.88177339 </i>
    <i name="hartreedc"> -33789.22906455 </i>
    <i name="XCdc">    623.98686797 </i>
    <i name="pawpsdc">  16421.75059358 </i>
    <i name="pawaedc"> -17800.06104309 </i>
    <i name="eentropy">      0.01827584 </i>
    <i name="bandstr">    186.59970617 </i>
    <i name="atom">  18662.21924712 </i>
    <i name="e_fr_energy">   1120.32868428 </i>
    <i name="e_wo_entrp">   1120.31040843 </i>
    <i name="e_0_energy">   1120.32259233 </i>
   </energy>
  </scstep>
  <scstep>
   <time name="dav">    7.69    7.69</time>
   <time name="total">    7.69    7.69</time>
   <energy>
    <i name="e_fr_energy">     87.48114711 </i>
    <i name="e_wo_entrp">     87.47534345 </i>
    <i name="e_0_energy">     87.47921256 </i>
   </energy>
  </scstep>
  <scstep>
   <time name="dav">   12.48   12.49</time>
   <time name="total">   12.48   12.49</time>
   <energy>
    <i name="e_fr_energy">    -33.43132247 </i>
    <i name="e_wo_entrp">    -33.44429111 </i>
    <i name="e_0_energy">    -33.43564535 </i>
   </energy>
  </scstep>
  <scstep>
   <time name="dav">   10.56   10.57</time>
   <time name="total">   10.56   10.57</time>
   <energy>
    <i name="e_fr_energy">    -56.06005776 </i>
    <i name="e_wo_entrp">    -56.07072930 </i>
    <i name="e_0_energy">    -56.06361494 </i>
   </energy>
  </scstep>
  <scstep>
   <time name="dav">   12.59   12.60</time>
   <time name="total">   13.32   13.32</time>
   <energy>
    <i name="e_fr_energy">    -57.80039737 </i>
    <i name="e_wo_entrp">    -57.80991680 </i>
    <i name="e_0_energy">    -57.80357052 </i>
   </energy>
  </scstep>
  <scstep>
   <time name="diag">    1.08    1.09</time>
   <time name="diis">    6.99    6.99</time>
   <time name="orth">    0.06    0.06</time>
   <time name="total">    9.97    9.97</time>
   <energy>
    <i name="e_fr_energy">    -56.97802909 </i>
    <i name="e_wo_entrp">    -56.98508228 </i>
    <i name="e_0_energy">    -56.98038016 </i>
   </energy>
  </scstep>
  <scstep>
   <time name="diag">    1.09    1.09</time>
   <time name="diis">    6.54    6.55</time>
   <time name="orth">    0.06    0.06</time>
   <time name="total">    9.53    9.53</time>
   <energy>
    <i name="e_fr_energy">    -49.36016179 </i>
    <i name="e_wo_entrp">    -49.36936686 </i>
    <i name="e_0_energy">    -49.36323014 </i>
   </energy>
  </scstep>
  <scstep>
   <time name="diag">    1.08    1.09</time>
   <time name="diis">    8.12    8.13</time>
   <time name="orth">    0.06    0.06</time>
   <time name="total">   11.11   11.12</time>
   <energy>
    <i name="e_fr_energy">    -49.08508255 </i>
    <i name="e_wo_entrp">    -49.09443025 </i>
    <i name="e_0_energy">    -49.08819845 </i>
   </energy>
  </scstep>
  <scstep>
   <time name="diag">    1.09    1.09</time>
   <time name="diis">    7.01    7.01</time>
   <time name="orth">    0.06    0.06</time>
   <time name="total">    9.99   10.00</time>
   <energy>
    <i name="e_fr_energy">    -49.05343997 </i>
    <i name="e_wo_entrp">    -49.06278409 </i>
    <i name="e_0_energy">    -49.05655468 </i>
   </energy>
  </scstep>
  <scstep>
   <time name="diag">    1.08    1.08</time>
   <time name="diis">    7.19    7.19</time>
   <time name="orth">    0.06    0.06</time>
   <time name="total">   10.18   10.18</time>
   <energy>
    <i name="e_fr_energy">    -48.99144043 </i>
    <i name="e_wo_entrp">    -49.00071563 </i>
    <i name="e_0_energy">    -48.99453216 </i>
   </energy>
  </scstep>
  <scstep>
   <time name="diag">    1.08    1.09</time>
   <time name="diis">    7.40    7.41</time>
   <time name="orth">    0.06    0.06</time>
   <time name="total">   10.39   10.40</time>
   <energy>
    <i name="e_fr_energy">    -48.98379165 </i>
    <i name="e_wo_entrp">    -48.99313314 </i>
    <i name="e_0_energy">    -48.98690548 </i>
   </energy>
  </scstep>
  <scstep>
   <time name="diag">    1.08    1.09</time>
   <time name="diis">    6.95    6.95</time>
   <time name="orth">    0.06    0.06</time>
   <time name="total">    9.94    9.94</time>
   <energy>
    <i name="e_fr_energy">    -48.98156149 </i>
    <i name="e_wo_entrp">    -48.99085034 </i>
    <i name="e_0_energy">    -48.98465777 </i>
   </energy>
  </scstep>
  <scstep>
   <time name="diag">    1.08    1.08</time>
   <time name="diis">    7.91    7.92</time>
   <time name="orth">    0.06    0.06</time>
   <time name="total">   10.90   10.91</time>
   <energy>
    <i name="e_fr_energy">    -48.98059045 </i>
    <i name="e_wo_entrp">    -48.98990464 </i>
    <i name="e_0_energy">    -48.98369518 </i>
   </energy>
  </scstep>
  <scstep>
   <time name="diag">    1.09    1.09</time>
   <time name="diis">    6.90    6.90</time>
   <time name="orth">    0.06    0.06</time>
   <time name="total">    9.88    9.89</time>
   <energy>
    <i name="e_fr_energy">    -48.98149011 </i>
    <i name="e_wo_entrp">    -48.99079073 </i>
    <i name="e_0_energy">    -48.98459032 </i>
   </energy>
  </scstep>
  <scstep>
   <time name="diag">    1.08    1.08</time>
   <time name="diis">    6.85    6.85</time>
   <time name="orth">    0.06    0.06</time>
   <time name="total">    9.84    9.84</time>
   <energy>
    <i name="e_fr_energy">    -48.98266183 </i>
    <i name="e_wo_entrp">    -48.99197228 </i>
    <i name="e_0_energy">    -48.98576532 </i>
   </energy>
  </scstep>
  <scstep>
   <time name="diag">    1.09    1.09</time>
   <time name="diis">    6.45    6.46</time>
   <time name="orth">    0.06    0.06</time>
   <time name="total">    9.44    9.45</time>
   <energy>
    <i name="e_fr_energy">    -48.98408955 </i>
    <i name="e_wo_entrp">    -48.99340761 </i>
    <i name="e_0_energy">    -48.98719557 </i>
   </energy>
  </scstep>
  <scstep>
   <time name="diag">    1.08    1.09</time>
   <time name="diis">    7.69    7.69</time>
   <time name="orth">    0.06    0.06</time>
   <time name="total">   10.69   10.69</time>
   <energy>
    <i name="e_fr_energy">    -48.98560692 </i>
    <i name="e_wo_entrp">    -48.99492628 </i>
    <i name="e_0_energy">    -48.98871337 </i>
   </energy>
  </scstep>
  <scstep>
   <time name="diag">    1.08    1.09</time>
   <time name="diis">    7.26    7.27</time>
   <time name="orth">    0.06    0.06</time>
   <time name="total">   10.26   10.27</time>
   <energy>
    <i name="e_fr_energy">    -48.98655001 </i>
    <i name="e_wo_entrp">    -48.99586861 </i>
    <i name="e_0_energy">    -48.98965621 </i>
   </energy>
  </scstep>
  <scstep>
   <time name="diag">    1.08    1.08</time>
   <time name="diis">    7.17    7.18</time>
   <time name="orth">    0.06    0.06</time>
   <time name="total">   10.17   10.18</time>
   <energy>
    <i name="e_fr_energy">    -48.98715887 </i>
    <i name="e_wo_entrp">    -48.99647829 </i>
    <i name="e_0_energy">    -48.99026534 </i>
   </energy>
  </scstep>
  <scstep>
   <time name="diag">    1.08    1.08</time>
   <time name="diis">    6.75    6.77</time>
   <time name="orth">    0.06    0.06</time>
   <time name="total">    9.75    9.77</time>
   <energy>
    <i name="e_fr_energy">    -48.98777668 </i>
    <i name="e_wo_entrp">    -48.99709408 </i>
    <i name="e_0_energy">    -48.99088248 </i>
   </energy>
  </scstep>
  <scstep>
   <time name="diag">    1.08    1.09</time>
   <time name="diis">    6.99    7.00</time>
   <time name="orth">    0.06    0.06</time>
   <time name="total">    9.99   10.00</time>
   <energy>
    <i name="e_fr_energy">    -48.98813722 </i>
    <i name="e_wo_entrp">    -48.99745482 </i>
    <i name="e_0_energy">    -48.99124309 </i>
   </energy>
  </scstep>
  <scstep>
   <time name="diag">    1.09    1.09</time>
   <time name="diis">    6.92    6.92</time>
   <time name="orth">    0.06    0.06</time>
   <time name="total">    9.92    9.92</time>
   <energy>
    <i name="e_fr_energy">    -48.98843885 </i>
    <i name="e_wo_entrp">    -48.99775675 </i>
    <i name="e_0_energy">    -48.99154482 </i>
   </energy>
  </scstep>
  <scstep>
   <time name="diag">    1.09    1.09</time>
   <time name="diis">    6.82    6.82</time>
   <time name="orth">    0.06    0.06</time>
   <time name="total">    9.82    9.82</time>
   <energy>
    <i name="e_fr_energy">    -48.98857715 </i>
    <i name="e_wo_entrp">    -48.99789506 </i>
    <i name="e_0_energy">    -48.99168312 </i>
   </energy>
  </scstep>
  <scstep>
   <time name="diag">    1.08    1.08</time>
   <time name="diis">    6.65    6.66</time>
   <time name="orth">    0.06    0.06</time>
   <time name="total">    9.66    9.66</time>
   <energy>
    <i name="e_fr_energy">    -48.98865745 </i>
    <i name="e_wo_entrp">    -48.99797544 </i>
    <i name="e_0_energy">    -48.99176345 </i>
   </energy>
  </scstep>
  <scstep>
   <time name="diag">    1.08    1.09</time>
   <time name="diis">    7.04    7.04</time>
   <time name="orth">    0.06    0.06</time>
   <time name="total">   10.05   10.05</time>
   <energy>
    <i name="e_fr_energy">    -48.98872920 </i>
    <i name="e_wo_entrp">    -48.99804717 </i>
    <i name="e_0_energy">    -48.99183519 </i>
   </energy>
  </scstep>
  <scstep>
   <time name="diag">    1.08    1.08</time>
   <time name="diis">    6.19    6.20</time>
   <time name="orth">    0.06    0.06</time>
   <time name="total">    9.20    9.21</time>
   <energy>
    <i name="e_fr_energy">    -48.98876305 </i>
    <i name="e_wo_entrp">    -48.99808096 </i>
    <i name="e_0_energy">    -48.99186902 </i>
   </energy>
  </scstep>
  <scstep>
   <time name="diag">    1.09    1.09</time>
   <time name="diis">    5.02    5.02</time>
   <time name="orth">    0.06    0.06</time>
   <time name="total">    8.03    8.04</time>
   <energy>
    <i name="e_fr_energy">    -48.98877378 </i>
    <i name="e_wo_entrp">    -48.99809172 </i>
    <i name="e_0_energy">    -48.99187976 </i>
   </energy>
  </scstep>
  <scstep>
   <time name="diag">    1.09    1.09</time>
   <time name="diis">    4.54    4.54</time>
   <time name="orth">    0.06    0.06</time>
   <time name="total">    7.55    7.56</time>
   <energy>
    <i name="e_fr_energy">    -48.98878062 </i>
    <i name="e_wo_entrp">    -48.99809860 </i>
    <i name="e_0_energy">    -48.99188661 </i>
   </energy>
  </scstep>
  <scstep>
   <time name="diag">    1.08    1.09</time>
   <time name="diis">    4.37    4.37</time>
   <time name="orth">    0.06    0.06</time>
   <time name="total">    7.38    7.39</time>
   <energy>
    <i name="e_fr_energy">    -48.98878505 </i>
    <i name="e_wo_entrp">    -48.99810306 </i>
    <i name="e_0_energy">    -48.99189106 </i>
   </energy>
  </scstep>
  <scstep>
   <time name="diag">    1.08    1.09</time>
   <time name="diis">    4.80    4.81</time>
   <time name="orth">    0.06    0.06</time>
   <time name="total">    7.83    7.83</time>
   <energy>
    <i name="e_fr_energy">    -48.98878632 </i>
    <i name="e_wo_entrp">    -48.99810431 </i>
    <i name="e_0_energy">    -48.99189232 </i>
   </energy>
  </scstep>
  <scstep>
   <time name="diag">    1.08    1.09</time>
   <time name="diis">    4.52    4.53</time>
   <time name="orth">    0.06    0.06</time>
   <time name="total">    7.57    7.57</time>
   <energy>
    <i name="e_fr_energy">    -48.98878715 </i>
    <i name="e_wo_entrp">    -48.99810516 </i>
    <i name="e_0_energy">    -48.99189315 </i>
   </energy>
  </scstep>
  <scstep>
   <time name="diag">    1.08    1.08</time>
   <time name="diis">    4.50    4.50</time>
   <time name="orth">    0.06    0.06</time>
   <time name="total">    7.54    7.54</time>
   <energy>
    <i name="e_fr_energy">    -48.98878799 </i>
    <i name="e_wo_entrp">    -48.99810600 </i>
    <i name="e_0_energy">    -48.99189399 </i>
   </energy>
  </scstep>
  <scstep>
   <time name="diag">    1.08    1.08</time>
   <time name="diis">    4.17    4.17</time>
   <time name="orth">    0.06    0.06</time>
   <time name="total">    7.22    7.22</time>
   <energy>
    <i name="e_fr_energy">    -48.98878848 </i>
    <i name="e_wo_entrp">    -48.99810649 </i>
    <i name="e_0_energy">    -48.99189448 </i>
   </energy>
  </scstep>
  <scstep>
   <time name="diag">    1.08    1.08</time>
   <time name="diis">    4.24    4.24</time>
   <time name="orth">    0.06    0.06</time>
   <time name="total">    7.29    7.30</time>
   <energy>
    <i name="e_fr_energy">    -48.98878888 </i>
    <i name="e_wo_entrp">    -48.99810689 </i>
    <i name="e_0_energy">    -48.99189489 </i>
   </energy>
  </scstep>
  <scstep>
   <time name="diag">    1.08    1.08</time>
   <time name="diis">    3.70    3.70</time>
   <time name="orth">    0.06    0.06</time>
   <time name="total">    6.76    6.76</time>
   <energy>
    <i name="e_fr_energy">    -48.98878908 </i>
    <i name="e_wo_entrp">    -48.99810708 </i>
    <i name="e_0_energy">    -48.99189508 </i>
   </energy>
  </scstep>
  <scstep>
   <time name="diag">    1.08    1.08</time>
   <time name="diis">    3.45    3.45</time>
   <time name="orth">    0.06    0.06</time>
   <time name="total">    6.51    6.52</time>
   <energy>
    <i name="e_fr_energy">    -48.98878931 </i>
    <i name="e_wo_entrp">    -48.99810731 </i>
    <i name="e_0_energy">    -48.99189531 </i>
   </energy>
  </scstep>
  <scstep>
   <time name="diag">    1.08    1.09</time>
   <time name="diis">    3.38    3.38</time>
   <time name="orth">    0.06    0.06</time>
   <time name="total">    5.71    5.71</time>
   <energy>
    <i name="alphaZ">     41.16232785 </i>
    <i name="ewald">  16773.88177339 </i>
    <i name="hartreedc"> -33744.69809519 </i>
    <i name="XCdc">    615.84059862 </i>
    <i name="pawpsdc">  17711.68429427 </i>
    <i name="pawaedc"> -19111.59678488 </i>
    <i name="eentropy">      0.00931800 </i>
    <i name="bandstr">   -997.49146858 </i>
    <i name="atom">  18662.21924712 </i>
    <i name="e_fr_energy">    -48.98878940 </i>
    <i name="e_wo_entrp">    -48.99810740 </i>
    <i name="e_0_energy">    -48.99189540 </i>
   </energy>
  </scstep>
  <structure>
   <crystal>
    <varray name="basis" >
     <v>      15.00000000       0.00000000       0.00000000 </v>
     <v>       0.00000000      15.00000000       0.00000000 </v>
     <v>       0.00000000       0.00000000      15.00000000 </v>
    </varray>
    <i name="volume">   3375.00000000 </i>
    <varray name="rec_basis" >
     <v>       0.06666667       0.00000000       0.00000000 </v>
     <v>       0.00000000       0.06666667       0.00000000 </v>
     <v>       0.00000000       0.00000000       0.06666667 </v>
    </varray>
   </crystal>
   <varray name="positions" >
    <v>       0.29336267       0.41897800       0.55099800 </v>
    <v>       0.37702000       0.54501200       0.49031333 </v>
    <v>       0.39119133       0.29141067       0.56091933 </v>
    <v>       0.53423733       0.50749200       0.48615067 </v>
    <v>       0.55219200       0.35269133       0.52651267 </v>
    <v>       0.44437467       0.43373267       0.61347467 </v>
    <v>       0.41978733       0.40149933       0.44859667 </v>
    <v>       0.22846267       0.57430867       0.54320933 </v>
    <v>       0.33612133       0.54776400       0.65842933 </v>
    <v>       0.35359267       0.67997333       0.56870267 </v>
    <v>       0.48449800       0.66400067       0.47775533 </v>
    <v>       0.61814333       0.47967200       0.61319200 </v>
    <v>       0.48758333       0.59262800       0.61584667 </v>
    <v>       0.73188000       0.48007000       0.64981800 </v>
    <v>       0.80852000       0.49396333       0.65036533 </v>
   </varray>
  </structure>
  <varray name="forces" >
   <v>      -0.26847453       0.24585601       0.14742700 </v>
   <v>      -0.27207554       0.34119493       0.06148737 </v>
   <v>       0.21861105      -0.13073147       0.01814375 </v>
   <v>       0.05930326       0.18278578      -0.36856909 </v>
   <v>      -0.04450888      -0.29805165       0.07556315 </v>
   <v>       0.34691684       0.12276621      -0.07369681 </v>
   <v>      -0.00536534      -0.46393088      -0.09386930 </v>
   <v>      -0.04424268      -0.10227115       0.08704707 </v>
   <v>       0.04711971      -0.22531308      -0.29954476 </v>
   <v>      -0.18339084       0.35836789       0.11926974 </v>
   <v>       0.21871748       0.26071904      -0.25296378 </v>
   <v>      -0.53451471      -0.20875018       0.08031036 </v>
   <v>       0.00770592      -0.22858355       0.27261251 </v>
   <v>       1.38289681       0.44415062       0.19780234 </v>
   <v>      -0.92869856      -0.29820851       0.02898045 </v>
  </varray>
  <varray name="stress" >
   <v>       0.26655681      -0.42821987       0.25483062 </v>
   <v>      -0.42821986       1.14881958      -0.14871817 </v>
   <v>       0.25483061      -0.14871817       0.35210345 </v>
  </varray>
  <energy>
   <i name="e_fr_energy">    -48.98878940 </i>
   <i name="e_wo_entrp">    -48.99189540 </i>
   <i name="e_0_energy">      0.00931800 </i>
  </energy>
  <time name="totalsc">  354.83  355.07</time>
  <eigenvalues>
   <array>
    <dimension dim="1">band</dimension>
    <dimension dim="2">kpoint</dimension>
    <dimension dim="3">spin</dimension>
    <field>eigene</field>
    <field>occ</field>
    <set>
     <set comment="spin 1">
      <set comment="kpoint 1">
       <r>  -28.1076    1.0000 </r>
       <r>  -13.7668    1.0000 </r>
       <r>  -11.2451    1.0000 </r>
       <r>  -10.8753    1.0000 </r>
       <r>  -10.7913    1.0000 </r>
       <r>  -10.2713    1.0000 </r>
       <r>   -8.7308    1.0000 </r>
       <r>   -8.3233    1.0000 </r>
       <r>   -7.8060    1.0000 </r>
       <r>   -7.6801    1.0000 </r>
       <r>   -7.5158    1.0000 </r>
       <r>   -7.4600    1.0000 </r>
       <r>   -7.4244    1.0000 </r>
       <r>   -7.2368    1.0000 </r>
       <r>   -7.1821    1.0000 </r>
       <r>   -7.0847    1.0000 </r>
       <r>   -6.8932    1.0000 </r>
       <r>   -6.8572    1.0000 </r>
       <r>   -6.8392    1.0000 </r>
       <r>   -6.7677    1.0000 </r>
       <r>   -6.7004    1.0000 </r>
       <r>   -6.6505    1.0000 </r>
       <r>   -6.6369    1.0000 </r>
       <r>   -6.5402    1.0000 </r>
       <r>   -6.5147    1.0000 </r>
       <r>   -6.4766    1.0000 </r>
       <r>   -6.4175    1.0000 </r>
       <r>   -6.4071    1.0000 </r>
       <r>   -6.3277    1.0000 </r>
       <r>   -6.3122    1.0000 </r>
       <r>   -6.2579    1.0000 </r>
       <r>   -6.1795    1.0000 </r>
       <r>   -6.1321    1.0000 </r>
       <r>   -6.1020    1.0000 </r>
       <r>   -6.0094    1.0000 </r>
       <r>   -5.9173    1.0000 </r>
       <r>   -5.8529    1.0000 </r>
       <r>   -5.7681    1.0000 </r>
       <r>   -5.7414    1.0000 </r>
       <r>   -5.6821    1.0000 </r>
       <r>   -5.6600    1.0000 </r>
       <r>   -5.6004    1.0000 </r>
       <r>   -5.5669    1.0000 </r>
       <r>   -5.5572    1.0000 </r>
       <r>   -5.5285    1.0000 </r>
       <r>   -5.4602    1.0000 </r>
       <r>   -5.4362    1.0000 </r>
       <r>   -5.4032    1.0000 </r>
       <r>   -5.3970    1.0000 </r>
       <r>   -5.3776    1.0000 </r>
       <r>   -5.3675    1.0000 </r>
       <r>   -5.3238    1.0000 </r>
       <r>   -5.3134    1.0000 </r>
       <r>   -5.2985    1.0000 </r>
       <r>   -5.2545    1.0000 </r>
       <r>   -5.2288    1.0000 </r>
       <r>   -5.2086    1.0000 </r>
       <r>   -5.1951    1.0000 </r>
       <r>   -5.1668    1.0000 </r>
       <r>   -5.1191    1.0000 </r>
       <r>   -5.1152    1.0000 </r>
       <r>   -5.0566    1.0000 </r>
       <r>   -5.0535    1.0000 </r>
       <r>   -5.0314    1.0000 </r>
       <r>   -4.9683    1.0000 </r>
       <r>   -4.9618    1.0000 </r>
       <r>   -4.9280    1.0000 </r>
       <r>   -4.9131    1.0000 </r>
       <r>   -4.9049    1.0000 </r>
       <r>   -4.8531    1.0000 </r>
       <r>   -4.8325    1.0000 </r>
       <r>   -4.8275    1.0000 </r>
       <r>   -4.7643    1.0000 </r>
       <r>   -4.5705    1.0000 </r>
       <r>   -4.2174    1.0000 </r>
       <r>   -4.1468    1.0000 </r>
       <r>   -3.5407    1.0000 </r>
       <r>   -3.0482   -0.0000 </r>
       <r>   -2.9350   -0.0000 </r>
       <r>   -2.5154   -0.0000 </r>
       <r>   -2.3015   -0.0000 </r>
       <r>   -1.9391   -0.0000 </r>
       <r>   -1.8800   -0.0000 </r>
       <r>   -1.7821   -0.0000 </r>
       <r>   -1.3701   -0.0000 </r>
       <r>   -1.0035   -0.0000 </r>
       <r>   -0.9436   -0.0000 </r>
       <r>   -0.7150    0.0000 </r>
       <r>   -0.3428    0.0000 </r>
       <r>   -0.2695    0.0000 </r>
       <r>   -0.1541    0.0000 </r>
       <r>    0.1088    0.0000 </r>
      </set>
     </set>
     <set comment="spin 2">
      <set comment="kpoint 1">
       <r>  -28.0747    1.0000 </r>
       <r>  -13.7082    1.0000 </r>
       <r>  -11.2026    1.0000 </r>
       <r>  -10.8552    1.0000 </r>
       <r>  -10.6900    1.0000 </r>
       <r>  -10.2261    1.0000 </r>
       <r>   -8.7102    1.0000 </r>
       <r>   -8.2754    1.0000 </r>
       <r>   -7.7628    1.0000 </r>
       <r>   -7.6628    1.0000 </r>
       <r>   -7.4916    1.0000 </r>
       <r>   -7.4236    1.0000 </r>
       <r>   -7.3761    1.0000 </r>
       <r>   -7.2054    1.0000 </r>
       <r>   -7.1537    1.0000 </r>
       <r>   -7.0527    1.0000 </r>
       <r>   -6.8645    1.0000 </r>
       <r>   -6.8345    1.0000 </r>
       <r>   -6.8072    1.0000 </r>
       <r>   -6.7494    1.0000 </r>
       <r>   -6.6773    1.0000 </r>
       <r>   -6.6267    1.0000 </r>
       <r>   -6.6131    1.0000 </r>
       <r>   -6.5129    1.0000 </r>
       <r>   -6.4877    1.0000 </r>
       <r>   -6.4461    1.0000 </r>
       <r>   -6.3948    1.0000 </r>
       <r>   -6.3813    1.0000 </r>
       <r>   -6.3024    1.0000 </r>
       <r>   -6.2886    1.0000 </r>
       <r>   -6.2376    1.0000 </r>
       <r>   -6.1574    1.0000 </r>
       <r>   -6.0985    1.0000 </r>
       <r>   -6.0811    1.0000 </r>
       <r>   -5.9853    1.0000 </r>
       <r>   -5.8905    1.0000 </r>
       <r>   -5.8295    1.0000 </r>
       <r>   -5.7378    1.0000 </r>
       <r>   -5.7239    1.0000 </r>
       <r>   -5.6566    1.0000 </r>
       <r>   -5.6350    1.0000 </r>
       <r>   -5.5750    1.0000 </r>
       <r>   -5.5382    1.0000 </r>
       <r>   -5.5304    1.0000 </r>
       <r>   -5.5028    1.0000 </r>
       <r>   -5.4367    1.0000 </r>
       <r>   -5.4043    1.0000 </r>
       <r>   -5.3743    1.0000 </r>
       <r>   -5.3666    1.0000 </r>
       <r>   -5.3561    1.0000 </r>
       <r>   -5.3433    1.0000 </r>
       <r>   -5.2942    1.0000 </r>
       <r>   -5.2921    1.0000 </r>
       <r>   -5.2746    1.0000 </r>
       <r>   -5.2289    1.0000 </r>
       <r>   -5.2048    1.0000 </r>
       <r>   -5.1867    1.0000 </r>
       <r>   -5.1745    1.0000 </r>
       <r>   -5.1434    1.0000 </r>
       <r>   -5.0985    1.0000 </r>
       <r>   -5.0862    1.0000 </r>
       <r>   -5.0346    1.0000 </r>
       <r>   -5.0278    1.0000 </r>
       <r>   -5.0100    1.0000 </r>
       <r>   -4.9386    1.0000 </r>
       <r>   -4.9374    1.0000 </r>
       <r>   -4.9073    1.0000 </r>
       <r>   -4.8877    1.0000 </r>
       <r>   -4.8573    1.0000 </r>
       <r>   -4.8243    1.0000 </r>
       <r>   -4.8065    1.0000 </r>
       <r>   -4.7951    1.0000 </r>
       <r>   -4.7348    1.0000 </r>
       <r>   -4.5290    1.0000 </r>
       <r>   -4.1600    1.0349 </r>
       <r>   -4.1026    0.9651 </r>
       <r>   -3.3365   -0.0000 </r>
       <r>   -2.9967   -0.0000 </r>
       <r>   -2.8814   -0.0000 </r>
       <r>   -2.4447   -0.0000 </r>
       <r>   -2.1887   -0.0000 </r>
       <r>   -1.9079   -0.0000 </r>
       <r>   -1.7957   -0.0000 </r>
       <r>   -1.7090   -0.0000 </r>
       <r>   -1.2551    0.0000 </r>
       <r>   -0.8996    0.0000 </r>
       <r>   -0.8689    0.0000 </r>
       <r>   -0.6232    0.0000 </r>
       <r>   -0.2516    0.0000 </r>
       <r>   -0.1935    0.0000 </r>
       <r>   -0.1008    0.0000 </r>
       <r>    0.1579    0.0000 </r>
      </set>
     </set>
    </set>
   </array>
  </eigenvalues>
  <separator name="orbital magnetization" >
   <v name="MAGDIPOLOUT">      0.00000000      0.00000000      0.00000000</v>
  </separator>
  <dos>
   <i name="efermi">     -4.03103128 </i>
   <total>
    <array>
     <dimension dim="1">gridpoints</dimension>
     <dimension dim="2">spin</dimension>
     <field>energy</field>
     <field>total</field>
     <field>integrated</field>
     <set>
      <set comment="spin 1">
       <r>   -29.5209     0.0000     0.0000 </r>
       <r>   -29.4172     0.0000     0.0000 </r>
       <r>   -29.3136     0.0000     0.0000 </r>
       <r>   -29.2100     0.0000     0.0000 </r>
       <r>   -29.1063     0.0000     0.0000 </r>
       <r>   -29.0027    -0.0000    -0.0000 </r>
       <r>   -28.8990    -0.0000    -0.0000 </r>
       <r>   -28.7954    -0.0000    -0.0000 </r>
       <r>   -28.6918    -0.0000    -0.0000 </r>
       <r>   -28.5881    -0.0000    -0.0000 </r>
       <r>   -28.4845    -0.0000    -0.0000 </r>
       <r>   -28.3808    -0.0074    -0.0008 </r>
       <r>   -28.2772    -0.3539    -0.0375 </r>
       <r>   -28.1736     1.4238     0.1101 </r>
       <r>   -28.0699    14.2832     1.5904 </r>
       <r>   -27.9663     4.5554     2.0626 </r>
       <r>   -27.8626    -0.5757     2.0029 </r>
       <r>   -27.7590    -0.0278     2.0000 </r>
       <r>   -27.6554    -0.0001     2.0000 </r>
       <r>   -27.5517    -0.0000     2.0000 </r>
       <r>   -27.4481    -0.0000     2.0000 </r>
       <r>   -27.3444     0.0000     2.0000 </r>
       <r>   -27.2408     0.0000     2.0000 </r>
       <r>   -27.1371     0.0000     2.0000 </r>
       <r>   -27.0335     0.0000     2.0000 </r>
       <r>   -26.9299     0.0000     2.0000 </r>
       <r>   -26.8262     0.0000     2.0000 </r>
       <r>   -26.7226     0.0000     2.0000 </r>
       <r>   -26.6189     0.0000     2.0000 </r>
       <r>   -26.5153     0.0000     2.0000 </r>
       <r>   -26.4117     0.0000     2.0000 </r>
       <r>   -26.3080     0.0000     2.0000 </r>
       <r>   -26.2044     0.0000     2.0000 </r>
       <r>   -26.1007     0.0000     2.0000 </r>
       <r>   -25.9971     0.0000     2.0000 </r>
       <r>   -25.8935     0.0000     2.0000 </r>
       <r>   -25.7898     0.0000     2.0000 </r>
       <r>   -25.6862     0.0000     2.0000 </r>
       <r>   -25.5825     0.0000     2.0000 </r>
       <r>   -25.4789     0.0000     2.0000 </r>
       <r>   -25.3753     0.0000     2.0000 </r>
       <r>   -25.2716     0.0000     2.0000 </r>
       <r>   -25.1680     0.0000     2.0000 </r>
       <r>   -25.0643     0.0000     2.0000 </r>
       <r>   -24.9607     0.0000     2.0000 </r>
       <r>   -24.8571     0.0000     2.0000 </r>
       <r>   -24.7534     0.0000     2.0000 </r>
       <r>   -24.6498     0.0000     2.0000 </r>
       <r>   -24.5461     0.0000     2.0000 </r>
       <r>   -24.4425     0.0000     2.0000 </r>
       <r>   -24.3389     0.0000     2.0000 </r>
       <r>   -24.2352     0.0000     2.0000 </r>
       <r>   -24.1316     0.0000     2.0000 </r>
       <r>   -24.0279     0.0000     2.0000 </r>
       <r>   -23.9243     0.0000     2.0000 </r>
       <r>   -23.8207     0.0000     2.0000 </r>
       <r>   -23.7170     0.0000     2.0000 </r>
       <r>   -23.6134     0.0000     2.0000 </r>
       <r>   -23.5097     0.0000     2.0000 </r>
       <r>   -23.4061     0.0000     2.0000 </r>
       <r>   -23.3025     0.0000     2.0000 </r>
       <r>   -23.1988     0.0000     2.0000 </r>
       <r>   -23.0952     0.0000     2.0000 </r>
       <r>   -22.9915     0.0000     2.0000 </r>
       <r>   -22.8879     0.0000     2.0000 </r>
       <r>   -22.7843     0.0000     2.0000 </r>
       <r>   -22.6806     0.0000     2.0000 </r>
       <r>   -22.5770     0.0000     2.0000 </r>
       <r>   -22.4733     0.0000     2.0000 </r>
       <r>   -22.3697     0.0000     2.0000 </r>
       <r>   -22.2661     0.0000     2.0000 </r>
       <r>   -22.1624     0.0000     2.0000 </r>
       <r>   -22.0588     0.0000     2.0000 </r>
       <r>   -21.9551     0.0000     2.0000 </r>
       <r>   -21.8515     0.0000     2.0000 </r>
       <r>   -21.7479     0.0000     2.0000 </r>
       <r>   -21.6442     0.0000     2.0000 </r>
       <r>   -21.5406     0.0000     2.0000 </r>
       <r>   -21.4369     0.0000     2.0000 </r>
       <r>   -21.3333     0.0000     2.0000 </r>
       <r>   -21.2297     0.0000     2.0000 </r>
       <r>   -21.1260     0.0000     2.0000 </r>
       <r>   -21.0224     0.0000     2.0000 </r>
       <r>   -20.9187     0.0000     2.0000 </r>
       <r>   -20.8151     0.0000     2.0000 </r>
       <r>   -20.7115     0.0000     2.0000 </r>
       <r>   -20.6078     0.0000     2.0000 </r>
       <r>   -20.5042     0.0000     2.0000 </r>
       <r>   -20.4005     0.0000     2.0000 </r>
       <r>   -20.2969     0.0000     2.0000 </r>
       <r>   -20.1933     0.0000     2.0000 </r>
       <r>   -20.0896     0.0000     2.0000 </r>
       <r>   -19.9860     0.0000     2.0000 </r>
       <r>   -19.8823     0.0000     2.0000 </r>
       <r>   -19.7787     0.0000     2.0000 </r>
       <r>   -19.6751     0.0000     2.0000 </r>
       <r>   -19.5714     0.0000     2.0000 </r>
       <r>   -19.4678     0.0000     2.0000 </r>
       <r>   -19.3641     0.0000     2.0000 </r>
       <r>   -19.2605     0.0000     2.0000 </r>
       <r>   -19.1569     0.0000     2.0000 </r>
       <r>   -19.0532     0.0000     2.0000 </r>
       <r>   -18.9496     0.0000     2.0000 </r>
       <r>   -18.8459     0.0000     2.0000 </r>
       <r>   -18.7423     0.0000     2.0000 </r>
       <r>   -18.6386     0.0000     2.0000 </r>
       <r>   -18.5350     0.0000     2.0000 </r>
       <r>   -18.4314     0.0000     2.0000 </r>
       <r>   -18.3277     0.0000     2.0000 </r>
       <r>   -18.2241     0.0000     2.0000 </r>
       <r>   -18.1204     0.0000     2.0000 </r>
       <r>   -18.0168     0.0000     2.0000 </r>
       <r>   -17.9132     0.0000     2.0000 </r>
       <r>   -17.8095     0.0000     2.0000 </r>
       <r>   -17.7059     0.0000     2.0000 </r>
       <r>   -17.6022     0.0000     2.0000 </r>
       <r>   -17.4986     0.0000     2.0000 </r>
       <r>   -17.3950     0.0000     2.0000 </r>
       <r>   -17.2913     0.0000     2.0000 </r>
       <r>   -17.1877     0.0000     2.0000 </r>
       <r>   -17.0840     0.0000     2.0000 </r>
       <r>   -16.9804     0.0000     2.0000 </r>
       <r>   -16.8768     0.0000     2.0000 </r>
       <r>   -16.7731     0.0000     2.0000 </r>
       <r>   -16.6695     0.0000     2.0000 </r>
       <r>   -16.5658     0.0000     2.0000 </r>
       <r>   -16.4622     0.0000     2.0000 </r>
       <r>   -16.3586     0.0000     2.0000 </r>
       <r>   -16.2549     0.0000     2.0000 </r>
       <r>   -16.1513     0.0000     2.0000 </r>
       <r>   -16.0476     0.0000     2.0000 </r>
       <r>   -15.9440     0.0000     2.0000 </r>
       <r>   -15.8404     0.0000     2.0000 </r>
       <r>   -15.7367     0.0000     2.0000 </r>
       <r>   -15.6331     0.0000     2.0000 </r>
       <r>   -15.5294     0.0000     2.0000 </r>
       <r>   -15.4258     0.0000     2.0000 </r>
       <r>   -15.3222     0.0000     2.0000 </r>
       <r>   -15.2185     0.0000     2.0000 </r>
       <r>   -15.1149     0.0000     2.0000 </r>
       <r>   -15.0112     0.0000     2.0000 </r>
       <r>   -14.9076     0.0000     2.0000 </r>
       <r>   -14.8040     0.0000     2.0000 </r>
       <r>   -14.7003     0.0000     2.0000 </r>
       <r>   -14.5967    -0.0000     2.0000 </r>
       <r>   -14.4930    -0.0000     2.0000 </r>
       <r>   -14.3894    -0.0000     2.0000 </r>
       <r>   -14.2858    -0.0000     2.0000 </r>
       <r>   -14.1821    -0.0000     2.0000 </r>
       <r>   -14.0785    -0.0009     1.9999 </r>
       <r>   -13.9748    -0.1169     1.9878 </r>
       <r>   -13.8712    -0.4446     1.9417 </r>
       <r>   -13.7676    10.0802     2.9864 </r>
       <r>   -13.6639    10.3167     4.0557 </r>
       <r>   -13.5603    -0.4126     4.0129 </r>
       <r>   -13.4566    -0.1234     4.0001 </r>
       <r>   -13.3530    -0.0010     4.0000 </r>
       <r>   -13.2494    -0.0000     4.0000 </r>
       <r>   -13.1457    -0.0000     4.0000 </r>
       <r>   -13.0421     0.0000     4.0000 </r>
       <r>   -12.9384     0.0000     4.0000 </r>
       <r>   -12.8348     0.0000     4.0000 </r>
       <r>   -12.7312     0.0000     4.0000 </r>
       <r>   -12.6275     0.0000     4.0000 </r>
       <r>   -12.5239     0.0000     4.0000 </r>
       <r>   -12.4202     0.0000     4.0000 </r>
       <r>   -12.3166     0.0000     4.0000 </r>
       <r>   -12.2130     0.0000     4.0000 </r>
       <r>   -12.1093    -0.0000     4.0000 </r>
       <r>   -12.0057    -0.0000     4.0000 </r>
       <r>   -11.9020    -0.0000     4.0000 </r>
       <r>   -11.7984    -0.0000     4.0000 </r>
       <r>   -11.6948    -0.0000     4.0000 </r>
       <r>   -11.5911    -0.0001     4.0000 </r>
       <r>   -11.4875    -0.0311     3.9968 </r>
       <r>   -11.3838    -0.5909     3.9355 </r>
       <r>   -11.2802     4.9173     4.4452 </r>
       <r>   -11.1766    14.1291     5.9095 </r>
       <r>   -11.0729     1.0413     6.0174 </r>
       <r>   -10.9693    -0.7963     5.9349 </r>
       <r>   -10.8656    12.3460     7.2144 </r>
       <r>   -10.7620    22.4458     9.5407 </r>
       <r>   -10.6583     5.1737    10.0769 </r>
       <r>   -10.5547    -0.7061    10.0037 </r>
       <r>   -10.4511    -0.3158     9.9710 </r>
       <r>   -10.3474     0.6738    10.0408 </r>
       <r>   -10.2438    13.5592    11.4461 </r>
       <r>   -10.1401     6.0089    12.0689 </r>
       <r>   -10.0365    -0.6216    12.0045 </r>
       <r>    -9.9329    -0.0428    12.0000 </r>
       <r>    -9.8292    -0.0002    12.0000 </r>
       <r>    -9.7256    -0.0000    12.0000 </r>
       <r>    -9.6219    -0.0000    12.0000 </r>
       <r>    -9.5183    -0.0000    12.0000 </r>
       <r>    -9.4147    -0.0000    12.0000 </r>
       <r>    -9.3110    -0.0000    12.0000 </r>
       <r>    -9.2074    -0.0000    12.0000 </r>
       <r>    -9.1037    -0.0000    12.0000 </r>
       <r>    -9.0001    -0.0090    11.9991 </r>
       <r>    -8.8965    -0.3858    11.9591 </r>
       <r>    -8.7928     1.7642    12.1419 </r>
       <r>    -8.6892    14.4628    13.6409 </r>
       <r>    -8.5855     4.0260    14.0581 </r>
       <r>    -8.4819    -0.9951    13.9550 </r>
       <r>    -8.3783     2.4417    14.2080 </r>
       <r>    -8.2746    14.6447    15.7258 </r>
       <r>    -8.1710     3.1586    16.0532 </r>
       <r>    -8.0673    -0.5094    16.0004 </r>
       <r>    -7.9637    -0.4735    15.9513 </r>
       <r>    -7.8601     2.2813    16.1877 </r>
       <r>    -7.7564    15.2786    17.7712 </r>
       <r>    -7.6528    15.7545    19.4040 </r>
       <r>    -7.5491    10.0851    20.4492 </r>
       <r>    -7.4455    32.4000    23.8072 </r>
       <r>    -7.3419    21.0530    25.9891 </r>
       <r>    -7.2382    11.2348    27.1535 </r>
       <r>    -7.1346    27.7076    30.0251 </r>
       <r>    -7.0309    16.4191    31.7268 </r>
       <r>    -6.9273     7.6437    32.5190 </r>
       <r>    -6.8237    41.1024    36.7789 </r>
       <r>    -6.7200    36.8908    40.6022 </r>
       <r>    -6.6164    40.8918    44.8403 </r>
       <r>    -6.5127    39.4418    48.9280 </r>
       <r>    -6.4091    49.4990    54.0581 </r>
       <r>    -6.3055    45.9513    58.8205 </r>
       <r>    -6.2018    36.5363    62.6072 </r>
       <r>    -6.0982    38.5563    66.6031 </r>
       <r>    -5.9945    26.6611    69.3663 </r>
       <r>    -5.8909    23.2501    71.7759 </r>
       <r>    -5.7873    29.0397    74.7856 </r>
       <r>    -5.6836    43.1089    79.2535 </r>
       <r>    -5.5800    54.2224    84.8731 </r>
       <r>    -5.4763    57.4223    90.8243 </r>
       <r>    -5.3727    80.2364    99.1401 </r>
       <r>    -5.2691    89.4228   108.4079 </r>
       <r>    -5.1654    78.8579   116.5807 </r>
       <r>    -5.0618    70.1488   123.8510 </r>
       <r>    -4.9581    71.0204   131.2115 </r>
       <r>    -4.8545    83.4777   139.8632 </r>
       <r>    -4.7509    52.9395   145.3498 </r>
       <r>    -4.6472     7.9882   146.1777 </r>
       <r>    -4.5436    12.2408   147.4464 </r>
       <r>    -4.4399     5.9366   148.0617 </r>
       <r>    -4.3363    -1.4445   147.9120 </r>
       <r>    -4.2327     7.9759   148.7386 </r>
       <r>    -4.1290    24.8386   151.3129 </r>
       <r>    -4.0254     7.5117   152.0914 </r>
       <r>    -3.9217    -0.8161   152.0068 </r>
       <r>    -3.8181    -0.0712   151.9994 </r>
       <r>    -3.7145    -0.3209   151.9661 </r>
       <r>    -3.6108     1.0905   152.0792 </r>
       <r>    -3.5072    14.0282   153.5331 </r>
       <r>    -3.4035     5.1377   154.0655 </r>
       <r>    -3.2999    -0.6196   154.0013 </r>
       <r>    -3.1963    -0.5762   153.9416 </r>
       <r>    -3.0926     3.2266   154.2760 </r>
       <r>    -2.9890    17.1289   156.0512 </r>
       <r>    -2.8853    16.6842   157.7804 </r>
       <r>    -2.7817     2.6232   158.0523 </r>
       <r>    -2.6781    -0.9092   157.9580 </r>
       <r>    -2.5744     2.0231   158.1677 </r>
       <r>    -2.4708    14.2059   159.6400 </r>
       <r>    -2.3671     5.1123   160.1699 </r>
       <r>    -2.2635    13.7739   161.5974 </r>
       <r>    -2.1598     4.4055   162.0540 </r>
       <r>    -2.0562    -1.4828   161.9003 </r>
       <r>    -1.9526     8.6913   162.8011 </r>
       <r>    -1.8489    27.2525   165.6255 </r>
       <r>    -1.7453    19.6798   167.6652 </r>
       <r>    -1.6416     3.8717   168.0664 </r>
       <r>    -1.5380    -0.9874   167.9641 </r>
       <r>    -1.4344     1.5380   168.1235 </r>
       <r>    -1.3307    14.3670   169.6125 </r>
       <r>    -1.2271     4.2586   170.0538 </r>
       <r>    -1.1234    -1.4552   169.9030 </r>
       <r>    -1.0198     8.3519   170.7686 </r>
       <r>    -0.9162    25.8016   173.4427 </r>
       <r>    -0.8125     5.8155   174.0454 </r>
       <r>    -0.7089    10.2585   175.1086 </r>
       <r>    -0.6052     9.2159   176.0638 </r>
       <r>    -0.5016    -1.0214   175.9579 </r>
       <r>    -0.3980     1.6895   176.1330 </r>
       <r>    -0.2943    20.4582   178.2533 </r>
       <r>    -0.1907    21.2084   180.4513 </r>
       <r>    -0.0870    14.0645   181.9090 </r>
       <r>     0.0166     0.9425   182.0067 </r>
       <r>     0.1202    11.4378   183.1921 </r>
       <r>     0.2239     8.4613   184.0690 </r>
       <r>     0.3275    -0.5854   184.0084 </r>
       <r>     0.4312    -0.0801   184.0001 </r>
       <r>     0.5348    -0.0005   184.0000 </r>
       <r>     0.6384    -0.0000   184.0000 </r>
       <r>     0.7421    -0.0000   184.0000 </r>
       <r>     0.8457     0.0000   184.0000 </r>
       <r>     0.9494     0.0000   184.0000 </r>
       <r>     1.0530     0.0000   184.0000 </r>
       <r>     1.1566     0.0000   184.0000 </r>
       <r>     1.2603     0.0000   184.0000 </r>
       <r>     1.3639     0.0000   184.0000 </r>
       <r>     1.4676     0.0000   184.0000 </r>
       <r>     1.5712     0.0000   184.0000 </r>
      </set>
      <set comment="spin 2">
       <r>   -29.5209     0.0000     0.0000 </r>
       <r>   -29.4172     0.0000     0.0000 </r>
       <r>   -29.3136     0.0000     0.0000 </r>
       <r>   -29.2100     0.0000     0.0000 </r>
       <r>   -29.1063     0.0000     0.0000 </r>
       <r>   -29.0027     0.0000     0.0000 </r>
       <r>   -28.8990    -0.0000    -0.0000 </r>
       <r>   -28.7954    -0.0000    -0.0000 </r>
       <r>   -28.6918    -0.0000    -0.0000 </r>
       <r>   -28.5881    -0.0000    -0.0000 </r>
       <r>   -28.4845    -0.0000    -0.0000 </r>
       <r>   -28.3808    -0.0013    -0.0001 </r>
       <r>   -28.2772    -0.1411    -0.0148 </r>
       <r>   -28.1736    -0.3182    -0.0477 </r>
       <r>   -28.0699    10.8948     1.0814 </r>
       <r>   -27.9663     9.4774     2.0636 </r>
       <r>   -27.8626    -0.5117     2.0106 </r>
       <r>   -27.7590    -0.1016     2.0001 </r>
       <r>   -27.6554    -0.0007     2.0000 </r>
       <r>   -27.5517    -0.0000     2.0000 </r>
       <r>   -27.4481    -0.0000     2.0000 </r>
       <r>   -27.3444     0.0000     2.0000 </r>
       <r>   -27.2408     0.0000     2.0000 </r>
       <r>   -27.1371     0.0000     2.0000 </r>
       <r>   -27.0335     0.0000     2.0000 </r>
       <r>   -26.9299     0.0000     2.0000 </r>
       <r>   -26.8262     0.0000     2.0000 </r>
       <r>   -26.7226     0.0000     2.0000 </r>
       <r>   -26.6189     0.0000     2.0000 </r>
       <r>   -26.5153     0.0000     2.0000 </r>
       <r>   -26.4117     0.0000     2.0000 </r>
       <r>   -26.3080     0.0000     2.0000 </r>
       <r>   -26.2044     0.0000     2.0000 </r>
       <r>   -26.1007     0.0000     2.0000 </r>
       <r>   -25.9971     0.0000     2.0000 </r>
       <r>   -25.8935     0.0000     2.0000 </r>
       <r>   -25.7898     0.0000     2.0000 </r>
       <r>   -25.6862     0.0000     2.0000 </r>
       <r>   -25.5825     0.0000     2.0000 </r>
       <r>   -25.4789     0.0000     2.0000 </r>
       <r>   -25.3753     0.0000     2.0000 </r>
       <r>   -25.2716     0.0000     2.0000 </r>
       <r>   -25.1680     0.0000     2.0000 </r>
       <r>   -25.0643     0.0000     2.0000 </r>
       <r>   -24.9607     0.0000     2.0000 </r>
       <r>   -24.8571     0.0000     2.0000 </r>
       <r>   -24.7534     0.0000     2.0000 </r>
       <r>   -24.6498     0.0000     2.0000 </r>
       <r>   -24.5461     0.0000     2.0000 </r>
       <r>   -24.4425     0.0000     2.0000 </r>
       <r>   -24.3389     0.0000     2.0000 </r>
       <r>   -24.2352     0.0000     2.0000 </r>
       <r>   -24.1316     0.0000     2.0000 </r>
       <r>   -24.0279     0.0000     2.0000 </r>
       <r>   -23.9243     0.0000     2.0000 </r>
       <r>   -23.8207     0.0000     2.0000 </r>
       <r>   -23.7170     0.0000     2.0000 </r>
       <r>   -23.6134     0.0000     2.0000 </r>
       <r>   -23.5097     0.0000     2.0000 </r>
       <r>   -23.4061     0.0000     2.0000 </r>
       <r>   -23.3025     0.0000     2.0000 </r>
       <r>   -23.1988     0.0000     2.0000 </r>
       <r>   -23.0952     0.0000     2.0000 </r>
       <r>   -22.9915     0.0000     2.0000 </r>
       <r>   -22.8879     0.0000     2.0000 </r>
       <r>   -22.7843     0.0000     2.0000 </r>
       <r>   -22.6806     0.0000     2.0000 </r>
       <r>   -22.5770     0.0000     2.0000 </r>
       <r>   -22.4733     0.0000     2.0000 </r>
       <r>   -22.3697     0.0000     2.0000 </r>
       <r>   -22.2661     0.0000     2.0000 </r>
       <r>   -22.1624     0.0000     2.0000 </r>
       <r>   -22.0588     0.0000     2.0000 </r>
       <r>   -21.9551     0.0000     2.0000 </r>
       <r>   -21.8515     0.0000     2.0000 </r>
       <r>   -21.7479     0.0000     2.0000 </r>
       <r>   -21.6442     0.0000     2.0000 </r>
       <r>   -21.5406     0.0000     2.0000 </r>
       <r>   -21.4369     0.0000     2.0000 </r>
       <r>   -21.3333     0.0000     2.0000 </r>
       <r>   -21.2297     0.0000     2.0000 </r>
       <r>   -21.1260     0.0000     2.0000 </r>
       <r>   -21.0224     0.0000     2.0000 </r>
       <r>   -20.9187     0.0000     2.0000 </r>
       <r>   -20.8151     0.0000     2.0000 </r>
       <r>   -20.7115     0.0000     2.0000 </r>
       <r>   -20.6078     0.0000     2.0000 </r>
       <r>   -20.5042     0.0000     2.0000 </r>
       <r>   -20.4005     0.0000     2.0000 </r>
       <r>   -20.2969     0.0000     2.0000 </r>
       <r>   -20.1933     0.0000     2.0000 </r>
       <r>   -20.0896     0.0000     2.0000 </r>
       <r>   -19.9860     0.0000     2.0000 </r>
       <r>   -19.8823     0.0000     2.0000 </r>
       <r>   -19.7787     0.0000     2.0000 </r>
       <r>   -19.6751     0.0000     2.0000 </r>
       <r>   -19.5714     0.0000     2.0000 </r>
       <r>   -19.4678     0.0000     2.0000 </r>
       <r>   -19.3641     0.0000     2.0000 </r>
       <r>   -19.2605     0.0000     2.0000 </r>
       <r>   -19.1569     0.0000     2.0000 </r>
       <r>   -19.0532     0.0000     2.0000 </r>
       <r>   -18.9496     0.0000     2.0000 </r>
       <r>   -18.8459     0.0000     2.0000 </r>
       <r>   -18.7423     0.0000     2.0000 </r>
       <r>   -18.6386     0.0000     2.0000 </r>
       <r>   -18.5350     0.0000     2.0000 </r>
       <r>   -18.4314     0.0000     2.0000 </r>
       <r>   -18.3277     0.0000     2.0000 </r>
       <r>   -18.2241     0.0000     2.0000 </r>
       <r>   -18.1204     0.0000     2.0000 </r>
       <r>   -18.0168     0.0000     2.0000 </r>
       <r>   -17.9132     0.0000     2.0000 </r>
       <r>   -17.8095     0.0000     2.0000 </r>
       <r>   -17.7059     0.0000     2.0000 </r>
       <r>   -17.6022     0.0000     2.0000 </r>
       <r>   -17.4986     0.0000     2.0000 </r>
       <r>   -17.3950     0.0000     2.0000 </r>
       <r>   -17.2913     0.0000     2.0000 </r>
       <r>   -17.1877     0.0000     2.0000 </r>
       <r>   -17.0840     0.0000     2.0000 </r>
       <r>   -16.9804     0.0000     2.0000 </r>
       <r>   -16.8768     0.0000     2.0000 </r>
       <r>   -16.7731     0.0000     2.0000 </r>
       <r>   -16.6695     0.0000     2.0000 </r>
       <r>   -16.5658     0.0000     2.0000 </r>
       <r>   -16.4622     0.0000     2.0000 </r>
       <r>   -16.3586     0.0000     2.0000 </r>
       <r>   -16.2549     0.0000     2.0000 </r>
       <r>   -16.1513     0.0000     2.0000 </r>
       <r>   -16.0476     0.0000     2.0000 </r>
       <r>   -15.9440     0.0000     2.0000 </r>
       <r>   -15.8404     0.0000     2.0000 </r>
       <r>   -15.7367     0.0000     2.0000 </r>
       <r>   -15.6331     0.0000     2.0000 </r>
       <r>   -15.5294     0.0000     2.0000 </r>
       <r>   -15.4258     0.0000     2.0000 </r>
       <r>   -15.3222     0.0000     2.0000 </r>
       <r>   -15.2185     0.0000     2.0000 </r>
       <r>   -15.1149     0.0000     2.0000 </r>
       <r>   -15.0112     0.0000     2.0000 </r>
       <r>   -14.9076     0.0000     2.0000 </r>
       <r>   -14.8040     0.0000     2.0000 </r>
       <r>   -14.7003     0.0000     2.0000 </r>
       <r>   -14.5967    -0.0000     2.0000 </r>
       <r>   -14.4930    -0.0000     2.0000 </r>
       <r>   -14.3894    -0.0000     2.0000 </r>
       <r>   -14.2858    -0.0000     2.0000 </r>
       <r>   -14.1821    -0.0000     2.0000 </r>
       <r>   -14.0785    -0.0000     2.0000 </r>
       <r>   -13.9748    -0.0103     1.9989 </r>
       <r>   -13.8712    -0.4081     1.9566 </r>
       <r>   -13.7676     2.0175     2.1657 </r>
       <r>   -13.6639    14.5543     3.6741 </r>
       <r>   -13.5603     3.6955     4.0571 </r>
       <r>   -13.4566    -0.5305     4.0022 </r>
       <r>   -13.3530    -0.0208     4.0000 </r>
       <r>   -13.2494    -0.0001     4.0000 </r>
       <r>   -13.1457    -0.0000     4.0000 </r>
       <r>   -13.0421    -0.0000     4.0000 </r>
       <r>   -12.9384     0.0000     4.0000 </r>
       <r>   -12.8348     0.0000     4.0000 </r>
       <r>   -12.7312     0.0000     4.0000 </r>
       <r>   -12.6275     0.0000     4.0000 </r>
       <r>   -12.5239     0.0000     4.0000 </r>
       <r>   -12.4202     0.0000     4.0000 </r>
       <r>   -12.3166     0.0000     4.0000 </r>
       <r>   -12.2130     0.0000     4.0000 </r>
       <r>   -12.1093     0.0000     4.0000 </r>
       <r>   -12.0057    -0.0000     4.0000 </r>
       <r>   -11.9020    -0.0000     4.0000 </r>
       <r>   -11.7984    -0.0000     4.0000 </r>
       <r>   -11.6948    -0.0000     4.0000 </r>
       <r>   -11.5911    -0.0000     4.0000 </r>
       <r>   -11.4875    -0.0041     3.9996 </r>
       <r>   -11.3838    -0.2651     3.9721 </r>
       <r>   -11.2802     0.5836     4.0326 </r>
       <r>   -11.1766    13.4277     5.4242 </r>
       <r>   -11.0729     6.1424     6.0608 </r>
       <r>   -10.9693    -1.2079     5.9356 </r>
       <r>   -10.8656     8.2565     6.7914 </r>
       <r>   -10.7620    12.6261     8.0999 </r>
       <r>   -10.6583    13.7525     9.5252 </r>
       <r>   -10.5547     5.2255    10.0668 </r>
       <r>   -10.4511    -0.6721     9.9972 </r>
       <r>   -10.3474    -0.6564     9.9291 </r>
       <r>   -10.2438     7.4900    10.7054 </r>
       <r>   -10.1401    12.5627    12.0074 </r>
       <r>   -10.0365     0.1415    12.0221 </r>
       <r>    -9.9329    -0.2103    12.0003 </r>
       <r>    -9.8292    -0.0026    12.0000 </r>
       <r>    -9.7256    -0.0000    12.0000 </r>
       <r>    -9.6219    -0.0000    12.0000 </r>
       <r>    -9.5183    -0.0000    12.0000 </r>
       <r>    -9.4147    -0.0000    12.0000 </r>
       <r>    -9.3110    -0.0000    12.0000 </r>
       <r>    -9.2074    -0.0000    12.0000 </r>
       <r>    -9.1037    -0.0000    12.0000 </r>
       <r>    -9.0001    -0.0031    11.9997 </r>
       <r>    -8.8965    -0.2309    11.9757 </r>
       <r>    -8.7928     0.3007    12.0069 </r>
       <r>    -8.6892    12.9260    13.3466 </r>
       <r>    -8.5855     6.9868    14.0707 </r>
       <r>    -8.4819    -0.7503    13.9929 </r>
       <r>    -8.3783    -0.4690    13.9443 </r>
       <r>    -8.2746    10.3100    15.0128 </r>
       <r>    -8.1710    10.0867    16.0582 </r>
       <r>    -8.0673    -0.4452    16.0121 </r>
       <r>    -7.9637    -0.2672    15.9844 </r>
       <r>    -7.8601    -0.4436    15.9384 </r>
       <r>    -7.7564    10.9400    17.0722 </r>
       <r>    -7.6528    20.3708    19.1835 </r>
       <r>    -7.5491     9.3781    20.1554 </r>
       <r>    -7.4455    21.8846    22.4235 </r>
       <r>    -7.3419    29.6650    25.4980 </r>
       <r>    -7.2382    10.0712    26.5418 </r>
       <r>    -7.1346    26.1881    29.2559 </r>
       <r>    -7.0309    20.6569    31.3968 </r>
       <r>    -6.9273     6.5700    32.0777 </r>
       <r>    -6.8237    33.1220    35.5105 </r>
       <r>    -6.7200    41.8492    39.8478 </r>
       <r>    -6.6164    39.0224    43.8921 </r>
       <r>    -6.5127    36.7934    47.7054 </r>
       <r>    -6.4091    48.9072    52.7741 </r>
       <r>    -6.3055    48.1779    57.7673 </r>
       <r>    -6.2018    39.5654    61.8678 </r>
       <r>    -6.0982    35.7432    65.5723 </r>
       <r>    -5.9945    31.6917    68.8568 </r>
       <r>    -5.8909    21.7835    71.1145 </r>
       <r>    -5.7873    27.6651    73.9817 </r>
       <r>    -5.6836    39.8258    78.1092 </r>
       <r>    -5.5800    50.1687    83.3087 </r>
       <r>    -5.4763    57.9825    89.3180 </r>
       <r>    -5.3727    70.0741    96.5805 </r>
       <r>    -5.2691    94.6382   106.3889 </r>
       <r>    -5.1654    81.5479   114.8405 </r>
       <r>    -5.0618    71.3885   122.2392 </r>
       <r>    -4.9581    67.6768   129.2533 </r>
       <r>    -4.8545    78.1566   137.3534 </r>
       <r>    -4.7509    67.6667   144.3664 </r>
       <r>    -4.6472    16.6853   146.0957 </r>
       <r>    -4.5436     6.6160   146.7814 </r>
       <r>    -4.4399    11.9434   148.0192 </r>
       <r>    -4.3363    -0.3427   147.9837 </r>
       <r>    -4.2327     0.0907   147.9931 </r>
       <r>    -4.1290    20.0045   150.0664 </r>
       <r>    -4.0254    18.9674   152.0321 </r>
       <r>    -3.9217    -0.0006   152.0321 </r>
       <r>    -3.8181    -0.3052   152.0004 </r>
       <r>    -3.7145    -0.0043   152.0000 </r>
       <r>    -3.6108    -0.0070   151.9993 </r>
       <r>    -3.5072    -0.3453   151.9635 </r>
       <r>    -3.4035     1.3353   152.1019 </r>
       <r>    -3.2999    14.2224   153.5759 </r>
       <r>    -3.1963     4.5463   154.0471 </r>
       <r>    -3.0926    -0.9235   153.9514 </r>
       <r>    -2.9890    10.7695   155.0675 </r>
       <r>    -2.8853    18.6440   156.9998 </r>
       <r>    -2.7817    10.2217   158.0592 </r>
       <r>    -2.6781    -0.4773   158.0097 </r>
       <r>    -2.5744    -0.7623   157.9307 </r>
       <r>    -2.4708     6.2085   158.5741 </r>
       <r>    -2.3671    13.1493   159.9369 </r>
       <r>    -2.2635     1.3523   160.0771 </r>
       <r>    -2.1598    13.3923   161.4650 </r>
       <r>    -2.0562     5.2577   162.0100 </r>
       <r>    -1.9526     2.5442   162.2736 </r>
       <r>    -1.8489    16.5852   163.9925 </r>
       <r>    -1.7453    21.4615   166.2168 </r>
       <r>    -1.6416    16.7568   167.9535 </r>
       <r>    -1.5380     0.8096   168.0374 </r>
       <r>    -1.4344    -0.6374   167.9713 </r>
       <r>    -1.3307     0.6990   168.0438 </r>
       <r>    -1.2271    13.6022   169.4535 </r>
       <r>    -1.1234     5.8510   170.0599 </r>
       <r>    -1.0198    -1.7442   169.8791 </r>
       <r>    -0.9162    10.9450   171.0135 </r>
       <r>    -0.8125    26.8443   173.7956 </r>
       <r>    -0.7089     2.5629   174.0612 </r>
       <r>    -0.6052    11.9582   175.3006 </r>
       <r>    -0.5016     7.4089   176.0685 </r>
       <r>    -0.3980    -1.2974   175.9340 </r>
       <r>    -0.2943     3.2754   176.2735 </r>
       <r>    -0.1907    25.0860   178.8734 </r>
       <r>    -0.0870    23.7021   181.3299 </r>
       <r>     0.0166     6.6575   182.0199 </r>
       <r>     0.1202     3.8350   182.4173 </r>
       <r>     0.2239    14.2088   183.8899 </r>
       <r>     0.3275     1.4234   184.0375 </r>
       <r>     0.4312    -0.3539   184.0008 </r>
       <r>     0.5348    -0.0074   184.0000 </r>
       <r>     0.6384    -0.0000   184.0000 </r>
       <r>     0.7421    -0.0000   184.0000 </r>
       <r>     0.8457    -0.0000   184.0000 </r>
       <r>     0.9494     0.0000   184.0000 </r>
       <r>     1.0530     0.0000   184.0000 </r>
       <r>     1.1566     0.0000   184.0000 </r>
       <r>     1.2603     0.0000   184.0000 </r>
       <r>     1.3639     0.0000   184.0000 </r>
       <r>     1.4676     0.0000   184.0000 </r>
       <r>     1.5712     0.0000   184.0000 </r>
      </set>
     </set>
    </array>
   </total>
  </dos>
 </calculation>
 <structure name="finalpos" >
  <crystal>
   <varray name="basis" >
    <v>      15.00000000       0.00000000       0.00000000 </v>
    <v>       0.00000000      15.00000000       0.00000000 </v>
    <v>       0.00000000       0.00000000      15.00000000 </v>
   </varray>
   <i name="volume">   3375.00000000 </i>
   <varray name="rec_basis" >
    <v>       0.06666667       0.00000000       0.00000000 </v>
    <v>       0.00000000       0.06666667       0.00000000 </v>
    <v>       0.00000000       0.00000000       0.06666667 </v>
   </varray>
  </crystal>
  <varray name="positions" >
   <v>       0.29336267       0.41897800       0.55099800 </v>
   <v>       0.37702000       0.54501200       0.49031333 </v>
   <v>       0.39119133       0.29141067       0.56091933 </v>
   <v>       0.53423733       0.50749200       0.48615067 </v>
   <v>       0.55219200       0.35269133       0.52651267 </v>
   <v>       0.44437467       0.43373267       0.61347467 </v>
   <v>       0.41978733       0.40149933       0.44859667 </v>
   <v>       0.22846267       0.57430867       0.54320933 </v>
   <v>       0.33612133       0.54776400       0.65842933 </v>
   <v>       0.35359267       0.67997333       0.56870267 </v>
   <v>       0.48449800       0.66400067       0.47775533 </v>
   <v>       0.61814333       0.47967200       0.61319200 </v>
   <v>       0.48758333       0.59262800       0.61584667 </v>
   <v>       0.73188000       0.48007000       0.64981800 </v>
   <v>       0.80852000       0.49396333       0.65036533 </v>
  </varray>
 </structure>
</modeling>
