<?xml version="1.0" encoding="ISO-8859-1"?>
<modeling>
 <generator>
  <i name="program" type="string">vasp </i>
  <i name="version" type="string">5.4.4.18Apr17-6-g9f103f2a35  </i>
  <i name="subversion" type="string">(build May 08 2019 13:49:07) complex            parallel </i>
  <i name="platform" type="string">LinuxIFC </i>
  <i name="date" type="string">2019 11 13 </i>
  <i name="time" type="string">12:56:35 </i>
 </generator>
 <incar>
  <i type="string" name="SYSTEM"> CuCO</i>
  <i type="int" name="ISTART">     0</i>
  <i type="string" name="PREC">accurate</i>
  <i type="string" name="ALGO"> Fast</i>
  <i type="int" name="ISPIN">     2</i>
  <i type="int" name="INIWAV">     1</i>
  <i type="int" name="NELM">   300</i>
  <i type="int" name="NELMIN">     3</i>
  <i type="int" name="IBRION">    -1</i>
  <i name="EDIFF">      0.00000010</i>
  <i name="EDIFFG">     -0.00100000</i>
  <i type="int" name="NSW">     0</i>
  <i type="int" name="ISYM">     0</i>
  <i name="ENCUT">    600.00000000</i>
  <i name="NUPDOWN">      1.00000000</i>
  <i type="logical" name="LREAL"> F  </i>
  <i type="int" name="ISMEAR">     1</i>
  <i name="SIGMA">      0.10000000</i>
  <i name="KSPACING">      0.50000000</i>
  <i type="logical" name="KGAMMA"> F  </i>
  <i type="logical" name="LWAVE"> F  </i>
  <i type="logical" name="LCHARG"> F  </i>
  <v type="int" name="KPOINT_BSE">    -1     0     0     0</v>
  <i type="int" name="NELM">   300</i>
  <i type="string" name="GGA"> PE</i>
 </incar>
 <structure name="primitive_cell" >
  <crystal>
   <varray name="basis" >
    <v>      15.00000000       0.00000000       0.00000000 </v>
    <v>       0.00000000      15.00000000       0.00000000 </v>
    <v>       0.00000000       0.00000000      15.00000000 </v>
   </varray>
   <i name="volume">   3375.00000000 </i>
   <varray name="rec_basis" >
    <v>       0.06666667       0.00000000       0.00000000 </v>
    <v>       0.00000000       0.06666667       0.00000000 </v>
    <v>       0.00000000       0.00000000       0.06666667 </v>
   </varray>
  </crystal>
  <varray name="positions" >
   <v>       0.28845533       0.41717000      -0.44252200 </v>
   <v>       0.44159267       0.43607933      -0.38561133 </v>
   <v>       0.37426533      -0.45149467       0.49979467 </v>
   <v>       0.22392267      -0.42940800      -0.45975400 </v>
   <v>       0.40171067       0.28984800      -0.44799933 </v>
   <v>       0.41576933       0.40422133       0.44197467 </v>
   <v>       0.32557933      -0.44677800      -0.34248333 </v>
   <v>       0.48884400      -0.41742533      -0.38103000 </v>
   <v>      -0.45241467       0.35509933      -0.46804333 </v>
   <v>      -0.46626667      -0.49902067       0.47538733 </v>
   <v>       0.35625533      -0.31896667      -0.42212800 </v>
   <v>       0.48733867      -0.34232867       0.48040667 </v>
   <v>      -0.37047267       0.48573067      -0.39385667 </v>
   <v>      -0.25308000       0.49366867      -0.35657000 </v>
   <v>      -0.17900000      -0.49068067      -0.34497667 </v>
  </varray>
 </structure>
 <varray name="primitive_index" >
  <v type="int" >        1 </v>
  <v type="int" >        6 </v>
  <v type="int" >        2 </v>
  <v type="int" >        8 </v>
  <v type="int" >        3 </v>
  <v type="int" >        7 </v>
  <v type="int" >        9 </v>
  <v type="int" >       13 </v>
  <v type="int" >        5 </v>
  <v type="int" >        4 </v>
  <v type="int" >       10 </v>
  <v type="int" >       11 </v>
  <v type="int" >       12 </v>
  <v type="int" >       14 </v>
  <v type="int" >       15 </v>
 </varray>
 <kpoints>
  <generation param="Monkhorst-Pack">
   <v type="int" name="divisions">       1        1        1 </v>
   <v name="usershift">      0.00000000       0.00000000       0.00000000 </v>
   <v name="genvec1">      1.00000000       0.00000000       0.00000000 </v>
   <v name="genvec2">      0.00000000       1.00000000       0.00000000 </v>
   <v name="genvec3">      0.00000000       0.00000000       1.00000000 </v>
   <v name="shift">      0.00000000       0.00000000       0.00000000 </v>
  </generation>
  <varray name="kpointlist" >
   <v>       0.00000000       0.00000000       0.00000000 </v>
  </varray>
  <varray name="weights" >
   <v>       1.00000000 </v>
  </varray>
 </kpoints>
 <parameters>
  <separator name="general" >
   <i type="string" name="SYSTEM">CuCO</i>
   <i type="logical" name="LCOMPAT"> F  </i>
  </separator>
  <separator name="electronic" >
   <i type="string" name="PREC">accura</i>
   <i name="ENMAX">    600.00000000</i>
   <i name="ENAUG">    644.87300000</i>
   <i name="EDIFF">      0.00000010</i>
   <i type="int" name="IALGO">    68</i>
   <i type="int" name="IWAVPR">    10</i>
   <i type="int" name="NBANDS">    92</i>
   <i name="NELECT">    153.00000000</i>
   <i type="int" name="TURBO">     0</i>
   <i type="int" name="IRESTART">     0</i>
   <i type="int" name="NREBOOT">     0</i>
   <i type="int" name="NMIN">     0</i>
   <i name="EREF">      0.00000000</i>
   <separator name="electronic smearing" >
    <i type="int" name="ISMEAR">     1</i>
    <i name="SIGMA">      0.10000000</i>
    <i name="KSPACING">      0.50000000</i>
    <i type="logical" name="KGAMMA"> F  </i>
   </separator>
   <separator name="electronic projectors" >
    <i type="logical" name="LREAL"> F  </i>
    <v name="ROPT">      0.00000000      0.00000000      0.00000000</v>
    <i type="int" name="LMAXPAW">  -100</i>
    <i type="int" name="LMAXMIX">     2</i>
    <i type="logical" name="NLSPLINE"> F  </i>
   </separator>
   <separator name="electronic startup" >
    <i type="int" name="ISTART">     0</i>
    <i type="int" name="ICHARG">     2</i>
    <i type="int" name="INIWAV">     1</i>
   </separator>
   <separator name="electronic spin" >
    <i type="int" name="ISPIN">     2</i>
    <i type="logical" name="LNONCOLLINEAR"> F  </i>
    <v name="MAGMOM">      0.06666667      0.06666667      0.06666667      0.06666667      0.06666667      0.06666667      0.06666667      0.06666667      0.06666667      0.06666667      0.06666667      0.06666667      0.06666667      0.06666667      0.06666667</v>
    <i name="NUPDOWN">      1.00000000</i>
    <i type="logical" name="LSORBIT"> F  </i>
    <v name="SAXIS">      0.00000000      0.00000000      1.00000000</v>
    <i type="logical" name="LSPIRAL"> F  </i>
    <v name="QSPIRAL">      0.00000000      0.00000000      0.00000000</v>
    <i type="logical" name="LZEROZ"> F  </i>
   </separator>
   <separator name="electronic exchange-correlation" >
    <i type="logical" name="LASPH"> F  </i>
    <i type="logical" name="LMETAGGA"> F  </i>
   </separator>
   <separator name="electronic convergence" >
    <i type="int" name="NELM">   300</i>
    <i type="int" name="NELMDL">    -5</i>
    <i type="int" name="NELMIN">     3</i>
    <i name="ENINI">    600.00000000</i>
    <separator name="electronic convergence detail" >
     <i type="logical" name="LDIAG"> T  </i>
     <i type="logical" name="LSUBROT"> F  </i>
     <i name="WEIMIN">      0.00000000</i>
     <i name="EBREAK">      0.00000000</i>
     <i name="DEPER">      0.30000000</i>
     <i type="int" name="NRMM">     4</i>
     <i name="TIME">      0.40000000</i>
    </separator>
   </separator>
   <separator name="electronic mixer" >
    <i name="AMIX">      0.40000000</i>
    <i name="BMIX">      1.00000000</i>
    <i name="AMIN">      0.10000000</i>
    <i name="AMIX_MAG">      1.60000000</i>
    <i name="BMIX_MAG">      1.00000000</i>
    <separator name="electronic mixer details" >
     <i type="int" name="IMIX">     4</i>
     <i type="logical" name="MIXFIRST"> F  </i>
     <i type="int" name="MAXMIX">   -45</i>
     <i name="WC">    100.00000000</i>
     <i type="int" name="INIMIX">     1</i>
     <i type="int" name="MIXPRE">     1</i>
     <i type="int" name="MREMOVE">     5</i>
    </separator>
   </separator>
   <separator name="electronic dipolcorrection" >
    <i type="logical" name="LDIPOL"> F  </i>
    <i type="logical" name="LMONO"> F  </i>
    <i type="int" name="IDIPOL">     0</i>
    <i name="EPSILON">      1.00000000</i>
    <v name="DIPOL">   -100.00000000   -100.00000000   -100.00000000</v>
    <i name="EFIELD">      0.00000000</i>
   </separator>
  </separator>
  <separator name="grids" >
   <i type="int" name="NGX">   120</i>
   <i type="int" name="NGY">   120</i>
   <i type="int" name="NGZ">   120</i>
   <i type="int" name="NGXF">   240</i>
   <i type="int" name="NGYF">   240</i>
   <i type="int" name="NGZF">   240</i>
   <i type="logical" name="ADDGRID"> F  </i>
  </separator>
  <separator name="ionic" >
   <i type="int" name="NSW">     0</i>
   <i type="int" name="IBRION">    -1</i>
   <i type="int" name="MDALGO">     0</i>
   <i type="int" name="ISIF">     2</i>
   <i name="PSTRESS">      0.00000000</i>
   <i name="EDIFFG">     -0.00100000</i>
   <i type="int" name="NFREE">     0</i>
   <i name="POTIM">      0.50000000</i>
   <i name="SMASS">     -3.00000000</i>
   <i name="SCALEE">      1.00000000</i>
  </separator>
  <separator name="ionic md" >
   <i name="TEBEG">      0.00010000</i>
   <i name="TEEND">      0.00010000</i>
   <i type="int" name="NBLOCK">     1</i>
   <i type="int" name="KBLOCK">     1</i>
   <i type="int" name="NPACO">   256</i>
   <i name="APACO">     16.00000000</i>
  </separator>
  <separator name="symmetry" >
   <i type="int" name="ISYM">     0</i>
   <i name="SYMPREC">      0.00001000</i>
  </separator>
  <separator name="dos" >
   <i type="int" name="LORBIT">     0</i>
   <v name="RWIGS">     -1.00000000     -1.00000000     -1.00000000</v>
   <i type="int" name="NEDOS">   301</i>
   <i name="EMIN">     10.00000000</i>
   <i name="EMAX">    -10.00000000</i>
   <i name="EFERMI">      0.00000000</i>
  </separator>
  <separator name="writing" >
   <i type="int" name="NWRITE">     2</i>
   <i type="logical" name="LWAVE"> F  </i>
   <i type="logical" name="LDOWNSAMPLE"> F  </i>
   <i type="logical" name="LCHARG"> F  </i>
   <i type="logical" name="LPARD"> F  </i>
   <i type="logical" name="LVTOT"> F  </i>
   <i type="logical" name="LVHAR"> F  </i>
   <i type="logical" name="LELF"> F  </i>
   <i type="logical" name="LOPTICS"> F  </i>
   <v name="STM">      0.00000000      0.00000000      0.00000000      0.00000000      0.00000000      0.00000000      0.00000000</v>
  </separator>
  <separator name="performance" >
   <i type="int" name="NPAR">     4</i>
   <i type="int" name="NSIM">     4</i>
   <i type="int" name="NBLK">    -1</i>
   <i type="logical" name="LPLANE"> T  </i>
   <i type="logical" name="LSCALAPACK"> T  </i>
   <i type="logical" name="LSCAAWARE"> F  </i>
   <i type="logical" name="LSCALU"> F  </i>
   <i type="logical" name="LASYNC"> F  </i>
   <i type="logical" name="LORBITALREAL"> F  </i>
  </separator>
  <separator name="miscellaneous" >
   <i type="int" name="IDIOT">     3</i>
   <i type="int" name="ISPECIAL">     0</i>
   <i type="logical" name="LMUSIC"> F  </i>
   <v name="POMASS">     63.54600000     12.01100000     16.00000000</v>
   <v name="DARWINR">      0.00000000      0.00000000      0.00000000</v>
   <v name="DARWINV">      1.00000000      1.00000000      1.00000000</v>
   <i type="logical" name="LCORR"> T  </i>
  </separator>
  <i type="logical" name="GGA_COMPAT"> T  </i>
  <i type="logical" name="LBERRY"> F  </i>
  <i type="int" name="ICORELEVEL">     0</i>
  <i type="logical" name="LDAU"> F  </i>
  <i type="int" name="I_CONSTRAINED_M">     0</i>
  <separator name="electronic exchange-correlation" >
   <i type="string" name="GGA">PE</i>
   <i type="int" name="VOSKOWN">     0</i>
   <i type="logical" name="LHFCALC"> F  </i>
   <i type="string" name="PRECFOCK"></i>
   <i type="logical" name="LSYMGRAD"> F  </i>
   <i type="logical" name="LHFONE"> F  </i>
   <i type="logical" name="LRHFCALC"> F  </i>
   <i type="logical" name="LTHOMAS"> F  </i>
   <i type="logical" name="LMODELHF"> F  </i>
   <i name="ENCUT4O">     -1.00000000</i>
   <i type="int" name="EXXOEP">     0</i>
   <i type="int" name="FOURORBIT">     0</i>
   <i name="AEXX">      0.00000000</i>
   <i name="HFALPHA">      0.00000000</i>
   <i name="MCALPHA">      0.00000000</i>
   <i name="ALDAX">      1.00000000</i>
   <i name="AGGAX">      1.00000000</i>
   <i name="ALDAC">      1.00000000</i>
   <i name="AGGAC">      1.00000000</i>
   <i type="int" name="NKREDX">     1</i>
   <i type="int" name="NKREDY">     1</i>
   <i type="int" name="NKREDZ">     1</i>
   <i type="logical" name="SHIFTRED"> F  </i>
   <i type="logical" name="ODDONLY"> F  </i>
   <i type="logical" name="EVENONLY"> F  </i>
   <i type="int" name="LMAXFOCK">     0</i>
   <i type="int" name="NMAXFOCKAE">     0</i>
   <i type="logical" name="LFOCKAEDFT"> F  </i>
   <i name="HFSCREEN">      0.00000000</i>
   <i name="HFSCREENC">      0.00000000</i>
   <i type="int" name="NBANDSGWLOW">     0</i>
  </separator>
  <separator name="vdW DFT" >
   <i type="logical" name="LUSE_VDW"> F  </i>
   <i name="Zab_VDW">     -0.84910000</i>
   <i name="PARAM1">      0.12340000</i>
   <i name="PARAM2">      1.00000000</i>
   <i name="PARAM3">      0.00000000</i>
  </separator>
  <separator name="model GW" >
   <i type="int" name="MODEL_GW">     0</i>
   <i name="MODEL_EPS0">    135.00000000</i>
   <i name="MODEL_ALPHA">      1.00000000</i>
  </separator>
  <separator name="linear response parameters" >
   <i type="logical" name="LEPSILON"> F  </i>
   <i type="logical" name="LRPA"> F  </i>
   <i type="logical" name="LNABLA"> F  </i>
   <i type="logical" name="LVEL"> F  </i>
   <i type="int" name="KINTER">     0</i>
   <i name="CSHIFT">      0.10000000</i>
   <i name="OMEGAMAX">     -1.00000000</i>
   <i name="DEG_THRESHOLD">      0.00200000</i>
   <i name="RTIME">     -0.10000000</i>
   <i name="WPLASMAI">      0.00000000</i>
   <v name="DFIELD">      0.00000000      0.00000000      0.00000000</v>
   <v name="WPLASMA">      0.00000000      0.00000000      0.00000000      0.00000000      0.00000000      0.00000000      0.00000000      0.00000000      0.00000000</v>
  </separator>
  <separator name="orbital magnetization" >
   <i type="logical" name="NUCIND"> F  </i>
   <v name="MAGPOS">      0.00000000      0.00000000      0.00000000</v>
   <i type="logical" name="LNICSALL"> T  </i>
   <i type="logical" name="ORBITALMAG"> F  </i>
   <i type="logical" name="LMAGBLOCH"> F  </i>
   <i type="logical" name="LCHIMAG"> F  </i>
   <i type="logical" name="LGAUGE"> T  </i>
   <i type="int" name="MAGATOM">     0</i>
   <v name="MAGDIPOL">      0.00000000      0.00000000      0.00000000</v>
   <v name="AVECCONST">      0.00000000      0.00000000      0.00000000</v>
  </separator>
  <separator name="response functions" >
   <i type="logical" name="LADDER"> F  </i>
   <i type="logical" name="LRPAFORCE"> F  </i>
   <i type="logical" name="LFXC"> F  </i>
   <i type="logical" name="LHARTREE"> T  </i>
   <i type="int" name="IBSE">     0</i>
   <v type="int" name="KPOINT">    -1     0     0     0</v>
   <i type="logical" name="LTCTE"> F  </i>
   <i type="logical" name="LTETE"> F  </i>
   <i type="logical" name="LTRIPLET"> F  </i>
   <i type="logical" name="LFXCEPS"> F  </i>
   <i type="logical" name="LFXHEG"> F  </i>
   <i type="int" name="NATURALO">     2</i>
   <i type="logical" name="L2ORDER"> F  </i>
   <i type="logical" name="LMP2LT"> F  </i>
   <i type="logical" name="LUSEW"> F  </i>
   <i name="ENCUTGW">     -2.00000000</i>
   <i name="ENCUTGWSOFT">     -2.00000000</i>
   <i name="ENCUTLF">     -1.00000000</i>
   <i type="int" name="LMAXMP2">    -1</i>
   <i name="SCISSOR">      0.00000000</i>
   <i type="int" name="NOMEGA">     0</i>
   <i type="int" name="NOMEGAR">     0</i>
   <i type="int" name="NBANDSGW">    -1</i>
   <i type="int" name="NBANDSO">    -1</i>
   <i type="int" name="NBANDSV">    -1</i>
   <i type="int" name="NELM">   300</i>
   <i type="int" name="NELMHF">     1</i>
   <i type="int" name="DIM">     3</i>
   <i type="int" name="ANTIRES">     0</i>
   <i name="OMEGAMAX">    -30.00000000</i>
   <i name="OMEGAMIN">    -30.00000000</i>
   <i name="OMEGATL">   -200.00000000</i>
   <i type="int" name="OMEGAGRID">   140</i>
   <i name="CSHIFT">     -0.10000000</i>
   <i type="logical" name="SELFENERGY"> F  </i>
   <i type="logical" name="LSPECTRAL"> F  </i>
   <i type="logical" name="LSPECTRALGW"> F  </i>
   <i type="logical" name="LSINGLES"> F  </i>
   <i type="logical" name="LFERMIGW"> F  </i>
   <i type="logical" name="ODDONLYGW"> F  </i>
   <i type="logical" name="EVENONLYGW"> F  </i>
   <i type="int" name="NKREDLFX">     1</i>
   <i type="int" name="NKREDLFY">     1</i>
   <i type="int" name="NKREDLFZ">     1</i>
   <i type="int" name="MAXMEM">  2800</i>
   <i type="int" name="TELESCOPE">     0</i>
   <i type="int" name="TAUPAR">     1</i>
   <i type="int" name="OMEGAPAR">    -1</i>
   <i name="LAMBDA">      1.00000000</i>
  </separator>
  <separator name="External order field" >
   <i name="OFIELD_KAPPA">      0.00000000</i>
   <v name="OFIELD_K">      0.00000000      0.00000000      0.00000000</v>
   <i name="OFIELD_Q6_NEAR">      0.00000000</i>
   <i name="OFIELD_Q6_FAR">      0.00000000</i>
   <i name="OFIELD_A">      0.00000000</i>
  </separator>
 </parameters>
 <atominfo>
  <atoms>      15 </atoms>
  <types>       3 </types>
  <array name="atoms" >
   <dimension dim="1">ion</dimension>
   <field type="string">element</field>
   <field type="int">atomtype</field>
   <set>
    <rc><c>Cu</c><c>   1</c></rc>
    <rc><c>Cu</c><c>   1</c></rc>
    <rc><c>Cu</c><c>   1</c></rc>
    <rc><c>Cu</c><c>   1</c></rc>
    <rc><c>Cu</c><c>   1</c></rc>
    <rc><c>Cu</c><c>   1</c></rc>
    <rc><c>Cu</c><c>   1</c></rc>
    <rc><c>Cu</c><c>   1</c></rc>
    <rc><c>Cu</c><c>   1</c></rc>
    <rc><c>Cu</c><c>   1</c></rc>
    <rc><c>Cu</c><c>   1</c></rc>
    <rc><c>Cu</c><c>   1</c></rc>
    <rc><c>Cu</c><c>   1</c></rc>
    <rc><c>C </c><c>   2</c></rc>
    <rc><c>O </c><c>   3</c></rc>
   </set>
  </array>
  <array name="atomtypes" >
   <dimension dim="1">type</dimension>
   <field type="int">atomspertype</field>
   <field type="string">element</field>
   <field>mass</field>
   <field>valence</field>
   <field type="string">pseudopotential</field>
   <set>
    <rc><c>  13</c><c>Cu</c><c>     63.54600000</c><c>     11.00000000</c><c>  PAW_PBE Cu 22Jun2005                  </c></rc>
    <rc><c>   1</c><c>C </c><c>     12.01100000</c><c>      4.00000000</c><c>  PAW_PBE C 08Apr2002                   </c></rc>
    <rc><c>   1</c><c>O </c><c>     16.00000000</c><c>      6.00000000</c><c>  PAW_PBE O 08Apr2002                   </c></rc>
   </set>
  </array>
 </atominfo>
 <structure name="initialpos" >
  <crystal>
   <varray name="basis" >
    <v>      15.00000000       0.00000000       0.00000000 </v>
    <v>       0.00000000      15.00000000       0.00000000 </v>
    <v>       0.00000000       0.00000000      15.00000000 </v>
   </varray>
   <i name="volume">   3375.00000000 </i>
   <varray name="rec_basis" >
    <v>       0.06666667       0.00000000       0.00000000 </v>
    <v>       0.00000000       0.06666667       0.00000000 </v>
    <v>       0.00000000       0.00000000       0.06666667 </v>
   </varray>
  </crystal>
  <varray name="positions" >
   <v>       0.28845533       0.41717000       0.55747800 </v>
   <v>       0.37426533       0.54850533       0.49979467 </v>
   <v>       0.40171067       0.28984800       0.55200067 </v>
   <v>       0.53373333       0.50097933       0.47538733 </v>
   <v>       0.54758533       0.35509933       0.53195667 </v>
   <v>       0.44159267       0.43607933       0.61438867 </v>
   <v>       0.41576933       0.40422133       0.44197467 </v>
   <v>       0.22392267       0.57059200       0.54024600 </v>
   <v>       0.32557933       0.55322200       0.65751667 </v>
   <v>       0.35625533       0.68103333       0.57787200 </v>
   <v>       0.48733867       0.65767133       0.48040667 </v>
   <v>       0.62952733       0.48573067       0.60614333 </v>
   <v>       0.48884400       0.58257467       0.61897000 </v>
   <v>       0.74692000       0.49366867       0.64343000 </v>
   <v>       0.82100000       0.50931933       0.65502333 </v>
  </varray>
 </structure>
 <calculation>
  <scstep>
   <time name="dav">    7.56    7.57</time>
   <time name="total">    8.78    8.79</time>
   <energy>
    <i name="alphaZ">     41.16232785 </i>
    <i name="ewald">  16435.57899747 </i>
    <i name="hartreedc"> -33454.50322698 </i>
    <i name="XCdc">    623.63267601 </i>
    <i name="pawpsdc">  16421.75059358 </i>
    <i name="pawaedc"> -17800.06104309 </i>
    <i name="eentropy">      0.00128253 </i>
    <i name="bandstr">    190.68546935 </i>
    <i name="atom">  18662.21924712 </i>
    <i name="e_fr_energy">   1120.46632383 </i>
    <i name="e_wo_entrp">   1120.46504130 </i>
    <i name="e_0_energy">   1120.46589632 </i>
   </energy>
  </scstep>
  <scstep>
   <time name="dav">    7.38    7.39</time>
   <time name="total">    7.38    7.39</time>
   <energy>
    <i name="e_fr_energy">     87.75442963 </i>
    <i name="e_wo_entrp">     87.74862549 </i>
    <i name="e_0_energy">     87.75249492 </i>
   </energy>
  </scstep>
  <scstep>
   <time name="dav">   11.29   11.30</time>
   <time name="total">   11.29   11.30</time>
   <energy>
    <i name="e_fr_energy">    -33.23194562 </i>
    <i name="e_wo_entrp">    -33.24613187 </i>
    <i name="e_0_energy">    -33.23667437 </i>
   </energy>
  </scstep>
  <scstep>
   <time name="dav">   10.14   10.15</time>
   <time name="total">   10.14   10.15</time>
   <energy>
    <i name="e_fr_energy">    -55.50853727 </i>
    <i name="e_wo_entrp">    -55.51753567 </i>
    <i name="e_0_energy">    -55.51153674 </i>
   </energy>
  </scstep>
  <scstep>
   <time name="dav">   12.15   12.16</time>
   <time name="total">   12.87   12.88</time>
   <energy>
    <i name="e_fr_energy">    -57.09383507 </i>
    <i name="e_wo_entrp">    -57.10427612 </i>
    <i name="e_0_energy">    -57.09731542 </i>
   </energy>
  </scstep>
  <scstep>
   <time name="diag">    1.09    1.09</time>
   <time name="diis">    6.77    6.78</time>
   <time name="orth">    0.06    0.06</time>
   <time name="total">    9.76    9.77</time>
   <energy>
    <i name="e_fr_energy">    -56.17165720 </i>
    <i name="e_wo_entrp">    -56.18014021 </i>
    <i name="e_0_energy">    -56.17448487 </i>
   </energy>
  </scstep>
  <scstep>
   <time name="diag">    1.09    1.09</time>
   <time name="diis">    6.20    6.21</time>
   <time name="orth">    0.06    0.06</time>
   <time name="total">    9.24    9.25</time>
   <energy>
    <i name="e_fr_energy">    -49.06816056 </i>
    <i name="e_wo_entrp">    -49.07747477 </i>
    <i name="e_0_energy">    -49.07126530 </i>
   </energy>
  </scstep>
  <scstep>
   <time name="diag">    1.09    1.09</time>
   <time name="diis">    6.86    6.87</time>
   <time name="orth">    0.06    0.06</time>
   <time name="total">    9.92    9.92</time>
   <energy>
    <i name="e_fr_energy">    -48.83968368 </i>
    <i name="e_wo_entrp">    -48.84892028 </i>
    <i name="e_0_energy">    -48.84276255 </i>
   </energy>
  </scstep>
  <scstep>
   <time name="diag">    1.10    1.10</time>
   <time name="diis">    6.77    6.77</time>
   <time name="orth">    0.06    0.06</time>
   <time name="total">    9.82    9.83</time>
   <energy>
    <i name="e_fr_energy">    -48.78683327 </i>
    <i name="e_wo_entrp">    -48.79606202 </i>
    <i name="e_0_energy">    -48.78990952 </i>
   </energy>
  </scstep>
  <scstep>
   <time name="diag">    1.09    1.10</time>
   <time name="diis">    6.86    6.86</time>
   <time name="orth">    0.06    0.06</time>
   <time name="total">    9.92    9.92</time>
   <energy>
    <i name="e_fr_energy">    -48.71873372 </i>
    <i name="e_wo_entrp">    -48.72801810 </i>
    <i name="e_0_energy">    -48.72182851 </i>
   </energy>
  </scstep>
  <scstep>
   <time name="diag">    1.09    1.09</time>
   <time name="diis">    6.85    6.85</time>
   <time name="orth">    0.06    0.06</time>
   <time name="total">    9.87    9.88</time>
   <energy>
    <i name="e_fr_energy">    -48.70594411 </i>
    <i name="e_wo_entrp">    -48.71512120 </i>
    <i name="e_0_energy">    -48.70900314 </i>
   </energy>
  </scstep>
  <scstep>
   <time name="diag">    1.10    1.10</time>
   <time name="diis">    6.84    6.84</time>
   <time name="orth">    0.06    0.06</time>
   <time name="total">    9.88    9.89</time>
   <energy>
    <i name="e_fr_energy">    -48.70307863 </i>
    <i name="e_wo_entrp">    -48.71230383 </i>
    <i name="e_0_energy">    -48.70615370 </i>
   </energy>
  </scstep>
  <scstep>
   <time name="diag">    1.09    1.10</time>
   <time name="diis">    7.23    7.23</time>
   <time name="orth">    0.06    0.06</time>
   <time name="total">   10.26   10.27</time>
   <energy>
    <i name="e_fr_energy">    -48.70190353 </i>
    <i name="e_wo_entrp">    -48.71112256 </i>
    <i name="e_0_energy">    -48.70497654 </i>
   </energy>
  </scstep>
  <scstep>
   <time name="diag">    1.10    1.10</time>
   <time name="diis">    6.46    6.46</time>
   <time name="orth">    0.06    0.06</time>
   <time name="total">    9.49    9.50</time>
   <energy>
    <i name="e_fr_energy">    -48.70297460 </i>
    <i name="e_wo_entrp">    -48.71218998 </i>
    <i name="e_0_energy">    -48.70604639 </i>
   </energy>
  </scstep>
  <scstep>
   <time name="diag">    1.09    1.10</time>
   <time name="diis">    7.15    7.16</time>
   <time name="orth">    0.06    0.06</time>
   <time name="total">   10.18   10.19</time>
   <energy>
    <i name="e_fr_energy">    -48.70424132 </i>
    <i name="e_wo_entrp">    -48.71346239 </i>
    <i name="e_0_energy">    -48.70731501 </i>
   </energy>
  </scstep>
  <scstep>
   <time name="diag">    1.10    1.10</time>
   <time name="diis">    6.54    6.54</time>
   <time name="orth">    0.06    0.06</time>
   <time name="total">    9.57    9.57</time>
   <energy>
    <i name="e_fr_energy">    -48.70585271 </i>
    <i name="e_wo_entrp">    -48.71505793 </i>
    <i name="e_0_energy">    -48.70892112 </i>
   </energy>
  </scstep>
  <scstep>
   <time name="diag">    1.10    1.10</time>
   <time name="diis">    6.53    6.53</time>
   <time name="orth">    0.06    0.06</time>
   <time name="total">    9.56    9.57</time>
   <energy>
    <i name="e_fr_energy">    -48.70755366 </i>
    <i name="e_wo_entrp">    -48.71675809 </i>
    <i name="e_0_energy">    -48.71062180 </i>
   </energy>
  </scstep>
  <scstep>
   <time name="diag">    1.10    1.10</time>
   <time name="diis">    6.66    6.68</time>
   <time name="orth">    0.06    0.06</time>
   <time name="total">    9.70    9.73</time>
   <energy>
    <i name="e_fr_energy">    -48.70846996 </i>
    <i name="e_wo_entrp">    -48.71767370 </i>
    <i name="e_0_energy">    -48.71153787 </i>
   </energy>
  </scstep>
  <scstep>
   <time name="diag">    1.09    1.09</time>
   <time name="diis">    7.96    7.96</time>
   <time name="orth">    0.06    0.06</time>
   <time name="total">   10.99   11.00</time>
   <energy>
    <i name="e_fr_energy">    -48.70926191 </i>
    <i name="e_wo_entrp">    -48.71846774 </i>
    <i name="e_0_energy">    -48.71233052 </i>
   </energy>
  </scstep>
  <scstep>
   <time name="diag">    1.09    1.10</time>
   <time name="diis">    6.75    6.75</time>
   <time name="orth">    0.06    0.06</time>
   <time name="total">    9.79    9.79</time>
   <energy>
    <i name="e_fr_energy">    -48.70979892 </i>
    <i name="e_wo_entrp">    -48.71900590 </i>
    <i name="e_0_energy">    -48.71286791 </i>
   </energy>
  </scstep>
  <scstep>
   <time name="diag">    1.09    1.10</time>
   <time name="diis">    6.65    6.65</time>
   <time name="orth">    0.06    0.06</time>
   <time name="total">    9.69    9.69</time>
   <energy>
    <i name="e_fr_energy">    -48.71019544 </i>
    <i name="e_wo_entrp">    -48.71940323 </i>
    <i name="e_0_energy">    -48.71326470 </i>
   </energy>
  </scstep>
  <scstep>
   <time name="diag">    1.09    1.09</time>
   <time name="diis">    6.44    6.45</time>
   <time name="orth">    0.06    0.06</time>
   <time name="total">    9.48    9.49</time>
   <energy>
    <i name="e_fr_energy">    -48.71043547 </i>
    <i name="e_wo_entrp">    -48.71964178 </i>
    <i name="e_0_energy">    -48.71350424 </i>
   </energy>
  </scstep>
  <scstep>
   <time name="diag">    1.09    1.10</time>
   <time name="diis">    6.69    6.69</time>
   <time name="orth">    0.06    0.06</time>
   <time name="total">    9.73    9.74</time>
   <energy>
    <i name="e_fr_energy">    -48.71054341 </i>
    <i name="e_wo_entrp">    -48.71974982 </i>
    <i name="e_0_energy">    -48.71361221 </i>
   </energy>
  </scstep>
  <scstep>
   <time name="diag">    1.10    1.10</time>
   <time name="diis">    6.62    6.63</time>
   <time name="orth">    0.06    0.06</time>
   <time name="total">    9.67    9.68</time>
   <energy>
    <i name="e_fr_energy">    -48.71065787 </i>
    <i name="e_wo_entrp">    -48.71986437 </i>
    <i name="e_0_energy">    -48.71372670 </i>
   </energy>
  </scstep>
  <scstep>
   <time name="diag">    1.09    1.09</time>
   <time name="diis">    6.35    6.35</time>
   <time name="orth">    0.06    0.06</time>
   <time name="total">    9.40    9.41</time>
   <energy>
    <i name="e_fr_energy">    -48.71071555 </i>
    <i name="e_wo_entrp">    -48.71992218 </i>
    <i name="e_0_energy">    -48.71378442 </i>
   </energy>
  </scstep>
  <scstep>
   <time name="diag">    1.09    1.10</time>
   <time name="diis">    6.13    6.13</time>
   <time name="orth">    0.06    0.06</time>
   <time name="total">    9.18    9.18</time>
   <energy>
    <i name="e_fr_energy">    -48.71074312 </i>
    <i name="e_wo_entrp">    -48.71994964 </i>
    <i name="e_0_energy">    -48.71381196 </i>
   </energy>
  </scstep>
  <scstep>
   <time name="diag">    1.10    1.10</time>
   <time name="diis">    4.91    4.93</time>
   <time name="orth">    0.06    0.06</time>
   <time name="total">    7.96    7.98</time>
   <energy>
    <i name="e_fr_energy">    -48.71075556 </i>
    <i name="e_wo_entrp">    -48.71996210 </i>
    <i name="e_0_energy">    -48.71382441 </i>
   </energy>
  </scstep>
  <scstep>
   <time name="diag">    1.10    1.10</time>
   <time name="diis">    4.24    4.24</time>
   <time name="orth">    0.06    0.06</time>
   <time name="total">    7.30    7.30</time>
   <energy>
    <i name="e_fr_energy">    -48.71076167 </i>
    <i name="e_wo_entrp">    -48.71996822 </i>
    <i name="e_0_energy">    -48.71383052 </i>
   </energy>
  </scstep>
  <scstep>
   <time name="diag">    1.09    1.10</time>
   <time name="diis">    4.40    4.40</time>
   <time name="orth">    0.06    0.06</time>
   <time name="total">    7.46    7.47</time>
   <energy>
    <i name="e_fr_energy">    -48.71076444 </i>
    <i name="e_wo_entrp">    -48.71997101 </i>
    <i name="e_0_energy">    -48.71383330 </i>
   </energy>
  </scstep>
  <scstep>
   <time name="diag">    1.09    1.09</time>
   <time name="diis">    4.48    4.49</time>
   <time name="orth">    0.06    0.06</time>
   <time name="total">    7.54    7.55</time>
   <energy>
    <i name="e_fr_energy">    -48.71076597 </i>
    <i name="e_wo_entrp">    -48.71997255 </i>
    <i name="e_0_energy">    -48.71383483 </i>
   </energy>
  </scstep>
  <scstep>
   <time name="diag">    1.09    1.09</time>
   <time name="diis">    4.27    4.27</time>
   <time name="orth">    0.06    0.06</time>
   <time name="total">    7.34    7.35</time>
   <energy>
    <i name="e_fr_energy">    -48.71076671 </i>
    <i name="e_wo_entrp">    -48.71997329 </i>
    <i name="e_0_energy">    -48.71383557 </i>
   </energy>
  </scstep>
  <scstep>
   <time name="diag">    1.09    1.09</time>
   <time name="diis">    4.41    4.42</time>
   <time name="orth">    0.06    0.06</time>
   <time name="total">    7.49    7.50</time>
   <energy>
    <i name="e_fr_energy">    -48.71076735 </i>
    <i name="e_wo_entrp">    -48.71997392 </i>
    <i name="e_0_energy">    -48.71383620 </i>
   </energy>
  </scstep>
  <scstep>
   <time name="diag">    1.09    1.09</time>
   <time name="diis">    4.43    4.43</time>
   <time name="orth">    0.06    0.06</time>
   <time name="total">    7.52    7.52</time>
   <energy>
    <i name="e_fr_energy">    -48.71076790 </i>
    <i name="e_wo_entrp">    -48.71997448 </i>
    <i name="e_0_energy">    -48.71383676 </i>
   </energy>
  </scstep>
  <scstep>
   <time name="diag">    1.09    1.10</time>
   <time name="diis">    3.84    3.84</time>
   <time name="orth">    0.06    0.06</time>
   <time name="total">    6.94    6.94</time>
   <energy>
    <i name="e_fr_energy">    -48.71076831 </i>
    <i name="e_wo_entrp">    -48.71997489 </i>
    <i name="e_0_energy">    -48.71383717 </i>
   </energy>
  </scstep>
  <scstep>
   <time name="diag">    1.09    1.09</time>
   <time name="diis">    3.83    3.83</time>
   <time name="orth">    0.06    0.06</time>
   <time name="total">    6.93    6.94</time>
   <energy>
    <i name="e_fr_energy">    -48.71076856 </i>
    <i name="e_wo_entrp">    -48.71997514 </i>
    <i name="e_0_energy">    -48.71383742 </i>
   </energy>
  </scstep>
  <scstep>
   <time name="diag">    1.09    1.09</time>
   <time name="diis">    3.51    3.52</time>
   <time name="orth">    0.06    0.06</time>
   <time name="total">    6.62    6.63</time>
   <energy>
    <i name="e_fr_energy">    -48.71076873 </i>
    <i name="e_wo_entrp">    -48.71997531 </i>
    <i name="e_0_energy">    -48.71383759 </i>
   </energy>
  </scstep>
  <scstep>
   <time name="diag">    1.09    1.10</time>
   <time name="diis">    3.49    3.49</time>
   <time name="orth">    0.06    0.06</time>
   <time name="total">    6.59    6.60</time>
   <energy>
    <i name="e_fr_energy">    -48.71076883 </i>
    <i name="e_wo_entrp">    -48.71997541 </i>
    <i name="e_0_energy">    -48.71383769 </i>
   </energy>
  </scstep>
  <scstep>
   <time name="diag">    1.09    1.10</time>
   <time name="diis">    3.25    3.25</time>
   <time name="orth">    0.06    0.06</time>
   <time name="total">    5.58    5.59</time>
   <energy>
    <i name="alphaZ">     41.16232785 </i>
    <i name="ewald">  16435.57899747 </i>
    <i name="hartreedc"> -33414.82519569 </i>
    <i name="XCdc">    615.64067414 </i>
    <i name="pawpsdc">  17681.64340978 </i>
    <i name="pawaedc"> -19080.70829452 </i>
    <i name="eentropy">      0.00920658 </i>
    <i name="bandstr">   -989.43114158 </i>
    <i name="atom">  18662.21924712 </i>
    <i name="e_fr_energy">    -48.71076886 </i>
    <i name="e_wo_entrp">    -48.71997544 </i>
    <i name="e_0_energy">    -48.71383772 </i>
   </energy>
  </scstep>
  <structure>
   <crystal>
    <varray name="basis" >
     <v>      15.00000000       0.00000000       0.00000000 </v>
     <v>       0.00000000      15.00000000       0.00000000 </v>
     <v>       0.00000000       0.00000000      15.00000000 </v>
    </varray>
    <i name="volume">   3375.00000000 </i>
    <varray name="rec_basis" >
     <v>       0.06666667       0.00000000       0.00000000 </v>
     <v>       0.00000000       0.06666667       0.00000000 </v>
     <v>       0.00000000       0.00000000       0.06666667 </v>
    </varray>
   </crystal>
   <varray name="positions" >
    <v>       0.28845533       0.41717000       0.55747800 </v>
    <v>       0.37426533       0.54850533       0.49979467 </v>
    <v>       0.40171067       0.28984800       0.55200067 </v>
    <v>       0.53373333       0.50097933       0.47538733 </v>
    <v>       0.54758533       0.35509933       0.53195667 </v>
    <v>       0.44159267       0.43607933       0.61438867 </v>
    <v>       0.41576933       0.40422133       0.44197467 </v>
    <v>       0.22392267       0.57059200       0.54024600 </v>
    <v>       0.32557933       0.55322200       0.65751667 </v>
    <v>       0.35625533       0.68103333       0.57787200 </v>
    <v>       0.48733867       0.65767133       0.48040667 </v>
    <v>       0.62952733       0.48573067       0.60614333 </v>
    <v>       0.48884400       0.58257467       0.61897000 </v>
    <v>       0.74692000       0.49366867       0.64343000 </v>
    <v>       0.82100000       0.50931933       0.65502333 </v>
   </varray>
  </structure>
  <varray name="forces" >
   <v>       0.27133193       0.15187027      -0.09874989 </v>
   <v>       0.05576719      -0.41896078      -0.36736909 </v>
   <v>      -0.27383511       0.04440324       0.16316680 </v>
   <v>       0.11372791       0.58848480       0.38580892 </v>
   <v>       0.36688549      -0.30464543      -0.11005037 </v>
   <v>      -0.08667076      -0.35698814      -0.12216185 </v>
   <v>      -0.28565093      -0.28800683       0.30148128 </v>
   <v>      -0.22901396       0.05832883       0.04310756 </v>
   <v>       0.39412057      -0.74718526       0.14006884 </v>
   <v>      -0.00458190       0.71084766      -0.15584376 </v>
   <v>       0.14808781       0.31013143      -0.03284714 </v>
   <v>      -0.20698326      -0.20983781      -0.16179864 </v>
   <v>       0.08636888       0.38157784       0.00269458 </v>
   <v>      -0.97476695       0.03245162      -0.02472199 </v>
   <v>       0.62521308       0.04752856       0.03721474 </v>
  </varray>
  <varray name="stress" >
   <v>      -0.48945135       0.47677341       0.08635268 </v>
   <v>       0.47677341       1.56723238      -0.48661937 </v>
   <v>       0.08635267      -0.48661936      -0.36339457 </v>
  </varray>
  <energy>
   <i name="e_fr_energy">    -48.71076886 </i>
   <i name="e_wo_entrp">    -48.71383772 </i>
   <i name="e_0_energy">      0.00920658 </i>
  </energy>
  <time name="totalsc">  351.62  351.94</time>
  <eigenvalues>
   <array>
    <dimension dim="1">band</dimension>
    <dimension dim="2">kpoint</dimension>
    <dimension dim="3">spin</dimension>
    <field>eigene</field>
    <field>occ</field>
    <set>
     <set comment="spin 1">
      <set comment="kpoint 1">
       <r>  -28.7104    1.0000 </r>
       <r>  -13.9010    1.0000 </r>
       <r>  -11.3997    1.0000 </r>
       <r>  -11.3064    1.0000 </r>
       <r>  -11.1217    1.0000 </r>
       <r>  -10.1794    1.0000 </r>
       <r>   -8.6490    1.0000 </r>
       <r>   -8.1852    1.0000 </r>
       <r>   -7.7183    1.0000 </r>
       <r>   -7.5429    1.0000 </r>
       <r>   -7.4799    1.0000 </r>
       <r>   -7.3067    1.0000 </r>
       <r>   -7.1956    1.0000 </r>
       <r>   -7.1481    1.0000 </r>
       <r>   -7.0560    1.0000 </r>
       <r>   -6.9793    1.0000 </r>
       <r>   -6.8037    1.0000 </r>
       <r>   -6.7191    1.0000 </r>
       <r>   -6.6851    1.0000 </r>
       <r>   -6.6174    1.0000 </r>
       <r>   -6.5897    1.0000 </r>
       <r>   -6.5526    1.0000 </r>
       <r>   -6.5448    1.0000 </r>
       <r>   -6.4544    1.0000 </r>
       <r>   -6.4004    1.0000 </r>
       <r>   -6.3568    1.0000 </r>
       <r>   -6.3476    1.0000 </r>
       <r>   -6.2868    1.0000 </r>
       <r>   -6.2381    1.0000 </r>
       <r>   -6.2206    1.0000 </r>
       <r>   -6.1692    1.0000 </r>
       <r>   -6.1528    1.0000 </r>
       <r>   -6.1010    1.0000 </r>
       <r>   -6.0222    1.0000 </r>
       <r>   -6.0002    1.0000 </r>
       <r>   -5.8862    1.0000 </r>
       <r>   -5.8357    1.0000 </r>
       <r>   -5.7118    1.0000 </r>
       <r>   -5.6664    1.0000 </r>
       <r>   -5.6375    1.0000 </r>
       <r>   -5.5874    1.0000 </r>
       <r>   -5.5590    1.0000 </r>
       <r>   -5.5018    1.0000 </r>
       <r>   -5.4882    1.0000 </r>
       <r>   -5.4165    1.0000 </r>
       <r>   -5.4120    1.0000 </r>
       <r>   -5.3769    1.0000 </r>
       <r>   -5.3496    1.0000 </r>
       <r>   -5.3288    1.0000 </r>
       <r>   -5.2944    1.0000 </r>
       <r>   -5.2598    1.0000 </r>
       <r>   -5.2491    1.0000 </r>
       <r>   -5.2290    1.0000 </r>
       <r>   -5.1958    1.0000 </r>
       <r>   -5.1762    1.0000 </r>
       <r>   -5.1525    1.0000 </r>
       <r>   -5.1403    1.0000 </r>
       <r>   -5.1288    1.0000 </r>
       <r>   -5.0818    1.0000 </r>
       <r>   -5.0445    1.0000 </r>
       <r>   -5.0397    1.0000 </r>
       <r>   -5.0275    1.0000 </r>
       <r>   -4.9672    1.0000 </r>
       <r>   -4.9617    1.0000 </r>
       <r>   -4.9232    1.0000 </r>
       <r>   -4.8949    1.0000 </r>
       <r>   -4.8765    1.0000 </r>
       <r>   -4.8637    1.0000 </r>
       <r>   -4.8518    1.0000 </r>
       <r>   -4.8044    1.0000 </r>
       <r>   -4.7914    1.0000 </r>
       <r>   -4.7554    1.0000 </r>
       <r>   -4.7078    1.0000 </r>
       <r>   -4.5161    1.0000 </r>
       <r>   -4.1453    1.0000 </r>
       <r>   -4.0868    1.0000 </r>
       <r>   -3.5204    1.0000 </r>
       <r>   -3.0245   -0.0000 </r>
       <r>   -2.9410   -0.0000 </r>
       <r>   -2.4956   -0.0000 </r>
       <r>   -2.3299   -0.0000 </r>
       <r>   -1.9013   -0.0000 </r>
       <r>   -1.8118   -0.0000 </r>
       <r>   -1.7044   -0.0000 </r>
       <r>   -1.4396   -0.0000 </r>
       <r>   -1.0903   -0.0000 </r>
       <r>   -0.9431   -0.0000 </r>
       <r>   -0.7181   -0.0000 </r>
       <r>   -0.3841    0.0000 </r>
       <r>   -0.2299    0.0000 </r>
       <r>    0.0011    0.0000 </r>
       <r>    0.0820    0.0000 </r>
      </set>
     </set>
     <set comment="spin 2">
      <set comment="kpoint 1">
       <r>  -28.6923    1.0000 </r>
       <r>  -13.8667    1.0000 </r>
       <r>  -11.3657    1.0000 </r>
       <r>  -11.2953    1.0000 </r>
       <r>  -11.0652    1.0000 </r>
       <r>  -10.1359    1.0000 </r>
       <r>   -8.6254    1.0000 </r>
       <r>   -8.1417    1.0000 </r>
       <r>   -7.6705    1.0000 </r>
       <r>   -7.5202    1.0000 </r>
       <r>   -7.4442    1.0000 </r>
       <r>   -7.2680    1.0000 </r>
       <r>   -7.1602    1.0000 </r>
       <r>   -7.1206    1.0000 </r>
       <r>   -7.0196    1.0000 </r>
       <r>   -6.9513    1.0000 </r>
       <r>   -6.7792    1.0000 </r>
       <r>   -6.6900    1.0000 </r>
       <r>   -6.6518    1.0000 </r>
       <r>   -6.5987    1.0000 </r>
       <r>   -6.5676    1.0000 </r>
       <r>   -6.5323    1.0000 </r>
       <r>   -6.5160    1.0000 </r>
       <r>   -6.4314    1.0000 </r>
       <r>   -6.3726    1.0000 </r>
       <r>   -6.3285    1.0000 </r>
       <r>   -6.3219    1.0000 </r>
       <r>   -6.2631    1.0000 </r>
       <r>   -6.2116    1.0000 </r>
       <r>   -6.1920    1.0000 </r>
       <r>   -6.1430    1.0000 </r>
       <r>   -6.1307    1.0000 </r>
       <r>   -6.0789    1.0000 </r>
       <r>   -5.9874    1.0000 </r>
       <r>   -5.9758    1.0000 </r>
       <r>   -5.8608    1.0000 </r>
       <r>   -5.8042    1.0000 </r>
       <r>   -5.6907    1.0000 </r>
       <r>   -5.6432    1.0000 </r>
       <r>   -5.6131    1.0000 </r>
       <r>   -5.5621    1.0000 </r>
       <r>   -5.5281    1.0000 </r>
       <r>   -5.4781    1.0000 </r>
       <r>   -5.4630    1.0000 </r>
       <r>   -5.3899    1.0000 </r>
       <r>   -5.3850    1.0000 </r>
       <r>   -5.3486    1.0000 </r>
       <r>   -5.3175    1.0000 </r>
       <r>   -5.3020    1.0000 </r>
       <r>   -5.2606    1.0000 </r>
       <r>   -5.2392    1.0000 </r>
       <r>   -5.2222    1.0000 </r>
       <r>   -5.2035    1.0000 </r>
       <r>   -5.1713    1.0000 </r>
       <r>   -5.1521    1.0000 </r>
       <r>   -5.1333    1.0000 </r>
       <r>   -5.1095    1.0000 </r>
       <r>   -5.1004    1.0000 </r>
       <r>   -5.0569    1.0000 </r>
       <r>   -5.0201    1.0000 </r>
       <r>   -5.0106    1.0000 </r>
       <r>   -5.0034    1.0000 </r>
       <r>   -4.9464    1.0000 </r>
       <r>   -4.9253    1.0000 </r>
       <r>   -4.8938    1.0000 </r>
       <r>   -4.8716    1.0000 </r>
       <r>   -4.8490    1.0000 </r>
       <r>   -4.8240    1.0000 </r>
       <r>   -4.8234    1.0000 </r>
       <r>   -4.7705    1.0000 </r>
       <r>   -4.7540    1.0000 </r>
       <r>   -4.7246    1.0000 </r>
       <r>   -4.6783    1.0000 </r>
       <r>   -4.4702    1.0000 </r>
       <r>   -4.0821    1.0320 </r>
       <r>   -4.0458    0.9680 </r>
       <r>   -3.3254   -0.0000 </r>
       <r>   -2.9701   -0.0000 </r>
       <r>   -2.8856   -0.0000 </r>
       <r>   -2.4350   -0.0000 </r>
       <r>   -2.2352   -0.0000 </r>
       <r>   -1.8668   -0.0000 </r>
       <r>   -1.7281   -0.0000 </r>
       <r>   -1.6418   -0.0000 </r>
       <r>   -1.3344   -0.0000 </r>
       <r>   -0.9371    0.0000 </r>
       <r>   -0.8869    0.0000 </r>
       <r>   -0.6478    0.0000 </r>
       <r>   -0.2704    0.0000 </r>
       <r>   -0.1693    0.0000 </r>
       <r>    0.0640    0.0000 </r>
       <r>    0.1364    0.0000 </r>
      </set>
     </set>
    </set>
   </array>
  </eigenvalues>
  <separator name="orbital magnetization" >
   <v name="MAGDIPOLOUT">      0.00000000      0.00000000      0.00000000</v>
  </separator>
  <dos>
   <i name="efermi">     -3.97340795 </i>
   <total>
    <array>
     <dimension dim="1">gridpoints</dimension>
     <dimension dim="2">spin</dimension>
     <field>energy</field>
     <field>total</field>
     <field>integrated</field>
     <set>
      <set comment="spin 1">
       <r>   -30.1527     0.0000     0.0000 </r>
       <r>   -30.0470     0.0000     0.0000 </r>
       <r>   -29.9412     0.0000     0.0000 </r>
       <r>   -29.8354     0.0000     0.0000 </r>
       <r>   -29.7296     0.0000     0.0000 </r>
       <r>   -29.6239     0.0000     0.0000 </r>
       <r>   -29.5181    -0.0000    -0.0000 </r>
       <r>   -29.4123    -0.0000    -0.0000 </r>
       <r>   -29.3066    -0.0000    -0.0000 </r>
       <r>   -29.2008    -0.0000    -0.0000 </r>
       <r>   -29.0950    -0.0000    -0.0000 </r>
       <r>   -28.9892    -0.0055    -0.0006 </r>
       <r>   -28.8835    -0.3202    -0.0345 </r>
       <r>   -28.7777     1.2688     0.0997 </r>
       <r>   -28.6719    14.1903     1.6007 </r>
       <r>   -28.5662     4.3450     2.0603 </r>
       <r>   -28.4604    -0.5478     2.0023 </r>
       <r>   -28.3546    -0.0218     2.0000 </r>
       <r>   -28.2488    -0.0001     2.0000 </r>
       <r>   -28.1431    -0.0000     2.0000 </r>
       <r>   -28.0373    -0.0000     2.0000 </r>
       <r>   -27.9315     0.0000     2.0000 </r>
       <r>   -27.8257     0.0000     2.0000 </r>
       <r>   -27.7200     0.0000     2.0000 </r>
       <r>   -27.6142     0.0000     2.0000 </r>
       <r>   -27.5084     0.0000     2.0000 </r>
       <r>   -27.4027     0.0000     2.0000 </r>
       <r>   -27.2969     0.0000     2.0000 </r>
       <r>   -27.1911     0.0000     2.0000 </r>
       <r>   -27.0853     0.0000     2.0000 </r>
       <r>   -26.9796     0.0000     2.0000 </r>
       <r>   -26.8738     0.0000     2.0000 </r>
       <r>   -26.7680     0.0000     2.0000 </r>
       <r>   -26.6623     0.0000     2.0000 </r>
       <r>   -26.5565     0.0000     2.0000 </r>
       <r>   -26.4507     0.0000     2.0000 </r>
       <r>   -26.3449     0.0000     2.0000 </r>
       <r>   -26.2392     0.0000     2.0000 </r>
       <r>   -26.1334     0.0000     2.0000 </r>
       <r>   -26.0276     0.0000     2.0000 </r>
       <r>   -25.9219     0.0000     2.0000 </r>
       <r>   -25.8161     0.0000     2.0000 </r>
       <r>   -25.7103     0.0000     2.0000 </r>
       <r>   -25.6045     0.0000     2.0000 </r>
       <r>   -25.4988     0.0000     2.0000 </r>
       <r>   -25.3930     0.0000     2.0000 </r>
       <r>   -25.2872     0.0000     2.0000 </r>
       <r>   -25.1815     0.0000     2.0000 </r>
       <r>   -25.0757     0.0000     2.0000 </r>
       <r>   -24.9699     0.0000     2.0000 </r>
       <r>   -24.8641     0.0000     2.0000 </r>
       <r>   -24.7584     0.0000     2.0000 </r>
       <r>   -24.6526     0.0000     2.0000 </r>
       <r>   -24.5468     0.0000     2.0000 </r>
       <r>   -24.4411     0.0000     2.0000 </r>
       <r>   -24.3353     0.0000     2.0000 </r>
       <r>   -24.2295     0.0000     2.0000 </r>
       <r>   -24.1237     0.0000     2.0000 </r>
       <r>   -24.0180     0.0000     2.0000 </r>
       <r>   -23.9122     0.0000     2.0000 </r>
       <r>   -23.8064     0.0000     2.0000 </r>
       <r>   -23.7007     0.0000     2.0000 </r>
       <r>   -23.5949     0.0000     2.0000 </r>
       <r>   -23.4891     0.0000     2.0000 </r>
       <r>   -23.3833     0.0000     2.0000 </r>
       <r>   -23.2776     0.0000     2.0000 </r>
       <r>   -23.1718     0.0000     2.0000 </r>
       <r>   -23.0660     0.0000     2.0000 </r>
       <r>   -22.9603     0.0000     2.0000 </r>
       <r>   -22.8545     0.0000     2.0000 </r>
       <r>   -22.7487     0.0000     2.0000 </r>
       <r>   -22.6429     0.0000     2.0000 </r>
       <r>   -22.5372     0.0000     2.0000 </r>
       <r>   -22.4314     0.0000     2.0000 </r>
       <r>   -22.3256     0.0000     2.0000 </r>
       <r>   -22.2199     0.0000     2.0000 </r>
       <r>   -22.1141     0.0000     2.0000 </r>
       <r>   -22.0083     0.0000     2.0000 </r>
       <r>   -21.9025     0.0000     2.0000 </r>
       <r>   -21.7968     0.0000     2.0000 </r>
       <r>   -21.6910     0.0000     2.0000 </r>
       <r>   -21.5852     0.0000     2.0000 </r>
       <r>   -21.4795     0.0000     2.0000 </r>
       <r>   -21.3737     0.0000     2.0000 </r>
       <r>   -21.2679     0.0000     2.0000 </r>
       <r>   -21.1621     0.0000     2.0000 </r>
       <r>   -21.0564     0.0000     2.0000 </r>
       <r>   -20.9506     0.0000     2.0000 </r>
       <r>   -20.8448     0.0000     2.0000 </r>
       <r>   -20.7391     0.0000     2.0000 </r>
       <r>   -20.6333     0.0000     2.0000 </r>
       <r>   -20.5275     0.0000     2.0000 </r>
       <r>   -20.4217     0.0000     2.0000 </r>
       <r>   -20.3160     0.0000     2.0000 </r>
       <r>   -20.2102     0.0000     2.0000 </r>
       <r>   -20.1044     0.0000     2.0000 </r>
       <r>   -19.9987     0.0000     2.0000 </r>
       <r>   -19.8929     0.0000     2.0000 </r>
       <r>   -19.7871     0.0000     2.0000 </r>
       <r>   -19.6813     0.0000     2.0000 </r>
       <r>   -19.5756     0.0000     2.0000 </r>
       <r>   -19.4698     0.0000     2.0000 </r>
       <r>   -19.3640     0.0000     2.0000 </r>
       <r>   -19.2583     0.0000     2.0000 </r>
       <r>   -19.1525     0.0000     2.0000 </r>
       <r>   -19.0467     0.0000     2.0000 </r>
       <r>   -18.9409     0.0000     2.0000 </r>
       <r>   -18.8352     0.0000     2.0000 </r>
       <r>   -18.7294     0.0000     2.0000 </r>
       <r>   -18.6236     0.0000     2.0000 </r>
       <r>   -18.5179     0.0000     2.0000 </r>
       <r>   -18.4121     0.0000     2.0000 </r>
       <r>   -18.3063     0.0000     2.0000 </r>
       <r>   -18.2005     0.0000     2.0000 </r>
       <r>   -18.0948     0.0000     2.0000 </r>
       <r>   -17.9890     0.0000     2.0000 </r>
       <r>   -17.8832     0.0000     2.0000 </r>
       <r>   -17.7775     0.0000     2.0000 </r>
       <r>   -17.6717     0.0000     2.0000 </r>
       <r>   -17.5659     0.0000     2.0000 </r>
       <r>   -17.4601     0.0000     2.0000 </r>
       <r>   -17.3544     0.0000     2.0000 </r>
       <r>   -17.2486     0.0000     2.0000 </r>
       <r>   -17.1428     0.0000     2.0000 </r>
       <r>   -17.0371     0.0000     2.0000 </r>
       <r>   -16.9313     0.0000     2.0000 </r>
       <r>   -16.8255     0.0000     2.0000 </r>
       <r>   -16.7197     0.0000     2.0000 </r>
       <r>   -16.6140     0.0000     2.0000 </r>
       <r>   -16.5082     0.0000     2.0000 </r>
       <r>   -16.4024     0.0000     2.0000 </r>
       <r>   -16.2967     0.0000     2.0000 </r>
       <r>   -16.1909     0.0000     2.0000 </r>
       <r>   -16.0851     0.0000     2.0000 </r>
       <r>   -15.9793     0.0000     2.0000 </r>
       <r>   -15.8736     0.0000     2.0000 </r>
       <r>   -15.7678     0.0000     2.0000 </r>
       <r>   -15.6620     0.0000     2.0000 </r>
       <r>   -15.5563     0.0000     2.0000 </r>
       <r>   -15.4505     0.0000     2.0000 </r>
       <r>   -15.3447     0.0000     2.0000 </r>
       <r>   -15.2389     0.0000     2.0000 </r>
       <r>   -15.1332     0.0000     2.0000 </r>
       <r>   -15.0274     0.0000     2.0000 </r>
       <r>   -14.9216     0.0000     2.0000 </r>
       <r>   -14.8159     0.0000     2.0000 </r>
       <r>   -14.7101    -0.0000     2.0000 </r>
       <r>   -14.6043    -0.0000     2.0000 </r>
       <r>   -14.4985    -0.0000     2.0000 </r>
       <r>   -14.3928    -0.0000     2.0000 </r>
       <r>   -14.2870    -0.0000     2.0000 </r>
       <r>   -14.1812    -0.0051     1.9995 </r>
       <r>   -14.0755    -0.3096     1.9667 </r>
       <r>   -13.9697     1.1609     2.0895 </r>
       <r>   -13.8639    14.1127     3.5822 </r>
       <r>   -13.7581     4.5301     4.0614 </r>
       <r>   -13.6524    -0.5570     4.0025 </r>
       <r>   -13.5466    -0.0232     4.0000 </r>
       <r>   -13.4408    -0.0001     4.0000 </r>
       <r>   -13.3351    -0.0000     4.0000 </r>
       <r>   -13.2293    -0.0000     4.0000 </r>
       <r>   -13.1235     0.0000     4.0000 </r>
       <r>   -13.0177     0.0000     4.0000 </r>
       <r>   -12.9120     0.0000     4.0000 </r>
       <r>   -12.8062     0.0000     4.0000 </r>
       <r>   -12.7004     0.0000     4.0000 </r>
       <r>   -12.5947     0.0000     4.0000 </r>
       <r>   -12.4889     0.0000     4.0000 </r>
       <r>   -12.3831     0.0000     4.0000 </r>
       <r>   -12.2773    -0.0000     4.0000 </r>
       <r>   -12.1716    -0.0000     4.0000 </r>
       <r>   -12.0658    -0.0000     4.0000 </r>
       <r>   -11.9600    -0.0000     4.0000 </r>
       <r>   -11.8543    -0.0000     4.0000 </r>
       <r>   -11.7485    -0.0001     4.0000 </r>
       <r>   -11.6427    -0.0299     3.9968 </r>
       <r>   -11.5369    -0.6391     3.9292 </r>
       <r>   -11.4312     4.6851     4.4248 </r>
       <r>   -11.3254    20.7482     6.6193 </r>
       <r>   -11.2196    12.9968     7.9940 </r>
       <r>   -11.1139    10.9532     9.1526 </r>
       <r>   -11.0081     8.6584    10.0684 </r>
       <r>   -10.9023    -0.5696    10.0081 </r>
       <r>   -10.7965    -0.0766    10.0000 </r>
       <r>   -10.6908    -0.0004    10.0000 </r>
       <r>   -10.5850    -0.0000    10.0000 </r>
       <r>   -10.4792    -0.0018     9.9998 </r>
       <r>   -10.3735    -0.1803     9.9807 </r>
       <r>   -10.2677     0.0236     9.9832 </r>
       <r>   -10.1619    12.3585    11.2904 </r>
       <r>   -10.0561     7.3789    12.0709 </r>
       <r>    -9.9504    -0.6172    12.0056 </r>
       <r>    -9.8446    -0.0529    12.0000 </r>
       <r>    -9.7388    -0.0002    12.0000 </r>
       <r>    -9.6330    -0.0000    12.0000 </r>
       <r>    -9.5273    -0.0000    12.0000 </r>
       <r>    -9.4215    -0.0000    12.0000 </r>
       <r>    -9.3157    -0.0000    12.0000 </r>
       <r>    -9.2100    -0.0000    12.0000 </r>
       <r>    -9.1042    -0.0000    12.0000 </r>
       <r>    -8.9984    -0.0001    12.0000 </r>
       <r>    -8.8926    -0.0288    11.9969 </r>
       <r>    -8.7869    -0.5858    11.9350 </r>
       <r>    -8.6811     5.2083    12.4859 </r>
       <r>    -8.5753    13.7838    13.9438 </r>
       <r>    -8.4696     0.8043    14.0289 </r>
       <r>    -8.3638    -0.5527    13.9704 </r>
       <r>    -8.2580     0.8619    14.0616 </r>
       <r>    -8.1522    13.8463    15.5261 </r>
       <r>    -8.0465     5.0889    16.0644 </r>
       <r>    -7.9407    -0.6497    15.9957 </r>
       <r>    -7.8349    -0.6214    15.9299 </r>
       <r>    -7.7292     8.1431    16.7913 </r>
       <r>    -7.6234    11.3774    17.9947 </r>
       <r>    -7.5176    17.3282    19.8275 </r>
       <r>    -7.4118    19.6452    21.9054 </r>
       <r>    -7.3061     9.7160    22.9331 </r>
       <r>    -7.2003    20.9729    25.1514 </r>
       <r>    -7.0945    28.5478    28.1709 </r>
       <r>    -6.9888    24.6157    30.7746 </r>
       <r>    -6.8830    11.9650    32.0401 </r>
       <r>    -6.7772    13.9246    33.5130 </r>
       <r>    -6.6714    33.8075    37.0888 </r>
       <r>    -6.5657    51.9886    42.5877 </r>
       <r>    -6.4599    42.3107    47.0630 </r>
       <r>    -6.3541    43.3506    51.6483 </r>
       <r>    -6.2484    51.2984    57.0742 </r>
       <r>    -6.1426    55.3151    62.9249 </r>
       <r>    -6.0368    40.1009    67.1665 </r>
       <r>    -5.9310    29.2389    70.2591 </r>
       <r>    -5.8253    25.2616    72.9311 </r>
       <r>    -5.7195    20.3929    75.0881 </r>
       <r>    -5.6137    44.7172    79.8179 </r>
       <r>    -5.5080    50.8673    85.1982 </r>
       <r>    -5.4022    56.5766    91.1823 </r>
       <r>    -5.2964    73.3708    98.9429 </r>
       <r>    -5.1906    85.2690   107.9619 </r>
       <r>    -5.0849    87.3720   117.2034 </r>
       <r>    -4.9791    74.8712   125.1226 </r>
       <r>    -4.8733    82.1757   133.8145 </r>
       <r>    -4.7676    79.1869   142.1902 </r>
       <r>    -4.6618    34.6413   145.8543 </r>
       <r>    -4.5560     5.6997   146.4571 </r>
       <r>    -4.4502    13.5513   147.8905 </r>
       <r>    -4.3445     1.2027   148.0177 </r>
       <r>    -4.2387    -0.9859   147.9134 </r>
       <r>    -4.1329    15.1058   149.5112 </r>
       <r>    -4.0272    22.6492   151.9068 </r>
       <r>    -3.9214     1.3356   152.0481 </r>
       <r>    -3.8156    -0.4482   152.0006 </r>
       <r>    -3.7098    -0.2153   151.9779 </r>
       <r>    -3.6041     0.2299   152.0022 </r>
       <r>    -3.4983    12.8726   153.3637 </r>
       <r>    -3.3925     6.6781   154.0701 </r>
       <r>    -3.2868    -0.6311   154.0033 </r>
       <r>    -3.1810    -0.5321   153.9471 </r>
       <r>    -3.0752     2.2461   154.1846 </r>
       <r>    -2.9694    20.3105   156.3329 </r>
       <r>    -2.8637    15.8677   158.0113 </r>
       <r>    -2.7579     0.1421   158.0263 </r>
       <r>    -2.6521    -0.7121   157.9510 </r>
       <r>    -2.5464     2.7555   158.2424 </r>
       <r>    -2.4406    14.0333   159.7267 </r>
       <r>    -2.3348    11.6745   160.9616 </r>
       <r>    -2.2290    10.3182   162.0529 </r>
       <r>    -2.1233    -0.4497   162.0054 </r>
       <r>    -2.0175    -0.8340   161.9172 </r>
       <r>    -1.9117     7.9894   162.7622 </r>
       <r>    -1.8060    21.9635   165.0853 </r>
       <r>    -1.7002    19.5434   167.1525 </r>
       <r>    -1.5944     8.2323   168.0232 </r>
       <r>    -1.4886     2.4287   168.2801 </r>
       <r>    -1.3829    14.4610   169.8097 </r>
       <r>    -1.2771     1.9873   170.0199 </r>
       <r>    -1.1713    -0.0938   170.0099 </r>
       <r>    -1.0656    12.5182   171.3340 </r>
       <r>    -0.9598    13.7414   172.7875 </r>
       <r>    -0.8540    11.0607   173.9574 </r>
       <r>    -0.7482     5.4496   174.5338 </r>
       <r>    -0.6425    13.4343   175.9547 </r>
       <r>    -0.5367     0.1885   175.9747 </r>
       <r>    -0.4309     2.8929   176.2807 </r>
       <r>    -0.3252    14.2848   177.7916 </r>
       <r>    -0.2194    13.4200   179.2111 </r>
       <r>    -0.1136     7.3006   179.9832 </r>
       <r>    -0.0078     8.0418   180.8338 </r>
       <r>     0.0979    23.4050   183.3094 </r>
       <r>     0.2037     7.3383   184.0856 </r>
       <r>     0.3095    -0.7519   184.0061 </r>
       <r>     0.4152    -0.0572   184.0000 </r>
       <r>     0.5210    -0.0002   184.0000 </r>
       <r>     0.6268    -0.0000   184.0000 </r>
       <r>     0.7326    -0.0000   184.0000 </r>
       <r>     0.8383     0.0000   184.0000 </r>
       <r>     0.9441     0.0000   184.0000 </r>
       <r>     1.0499     0.0000   184.0000 </r>
       <r>     1.1556     0.0000   184.0000 </r>
       <r>     1.2614     0.0000   184.0000 </r>
       <r>     1.3672     0.0000   184.0000 </r>
       <r>     1.4730     0.0000   184.0000 </r>
       <r>     1.5787     0.0000   184.0000 </r>
      </set>
      <set comment="spin 2">
       <r>   -30.1527     0.0000     0.0000 </r>
       <r>   -30.0470     0.0000     0.0000 </r>
       <r>   -29.9412     0.0000     0.0000 </r>
       <r>   -29.8354     0.0000     0.0000 </r>
       <r>   -29.7296     0.0000     0.0000 </r>
       <r>   -29.6239     0.0000     0.0000 </r>
       <r>   -29.5181    -0.0000    -0.0000 </r>
       <r>   -29.4123    -0.0000    -0.0000 </r>
       <r>   -29.3066    -0.0000    -0.0000 </r>
       <r>   -29.2008    -0.0000    -0.0000 </r>
       <r>   -29.0950    -0.0000    -0.0000 </r>
       <r>   -28.9892    -0.0021    -0.0002 </r>
       <r>   -28.8835    -0.1969    -0.0211 </r>
       <r>   -28.7777     0.1504    -0.0051 </r>
       <r>   -28.6719    12.6912     1.3372 </r>
       <r>   -28.5662     6.9328     2.0705 </r>
       <r>   -28.4604    -0.6195     2.0050 </r>
       <r>   -28.3546    -0.0471     2.0000 </r>
       <r>   -28.2488    -0.0002     2.0000 </r>
       <r>   -28.1431    -0.0000     2.0000 </r>
       <r>   -28.0373    -0.0000     2.0000 </r>
       <r>   -27.9315     0.0000     2.0000 </r>
       <r>   -27.8257     0.0000     2.0000 </r>
       <r>   -27.7200     0.0000     2.0000 </r>
       <r>   -27.6142     0.0000     2.0000 </r>
       <r>   -27.5084     0.0000     2.0000 </r>
       <r>   -27.4027     0.0000     2.0000 </r>
       <r>   -27.2969     0.0000     2.0000 </r>
       <r>   -27.1911     0.0000     2.0000 </r>
       <r>   -27.0853     0.0000     2.0000 </r>
       <r>   -26.9796     0.0000     2.0000 </r>
       <r>   -26.8738     0.0000     2.0000 </r>
       <r>   -26.7680     0.0000     2.0000 </r>
       <r>   -26.6623     0.0000     2.0000 </r>
       <r>   -26.5565     0.0000     2.0000 </r>
       <r>   -26.4507     0.0000     2.0000 </r>
       <r>   -26.3449     0.0000     2.0000 </r>
       <r>   -26.2392     0.0000     2.0000 </r>
       <r>   -26.1334     0.0000     2.0000 </r>
       <r>   -26.0276     0.0000     2.0000 </r>
       <r>   -25.9219     0.0000     2.0000 </r>
       <r>   -25.8161     0.0000     2.0000 </r>
       <r>   -25.7103     0.0000     2.0000 </r>
       <r>   -25.6045     0.0000     2.0000 </r>
       <r>   -25.4988     0.0000     2.0000 </r>
       <r>   -25.3930     0.0000     2.0000 </r>
       <r>   -25.2872     0.0000     2.0000 </r>
       <r>   -25.1815     0.0000     2.0000 </r>
       <r>   -25.0757     0.0000     2.0000 </r>
       <r>   -24.9699     0.0000     2.0000 </r>
       <r>   -24.8641     0.0000     2.0000 </r>
       <r>   -24.7584     0.0000     2.0000 </r>
       <r>   -24.6526     0.0000     2.0000 </r>
       <r>   -24.5468     0.0000     2.0000 </r>
       <r>   -24.4411     0.0000     2.0000 </r>
       <r>   -24.3353     0.0000     2.0000 </r>
       <r>   -24.2295     0.0000     2.0000 </r>
       <r>   -24.1237     0.0000     2.0000 </r>
       <r>   -24.0180     0.0000     2.0000 </r>
       <r>   -23.9122     0.0000     2.0000 </r>
       <r>   -23.8064     0.0000     2.0000 </r>
       <r>   -23.7007     0.0000     2.0000 </r>
       <r>   -23.5949     0.0000     2.0000 </r>
       <r>   -23.4891     0.0000     2.0000 </r>
       <r>   -23.3833     0.0000     2.0000 </r>
       <r>   -23.2776     0.0000     2.0000 </r>
       <r>   -23.1718     0.0000     2.0000 </r>
       <r>   -23.0660     0.0000     2.0000 </r>
       <r>   -22.9603     0.0000     2.0000 </r>
       <r>   -22.8545     0.0000     2.0000 </r>
       <r>   -22.7487     0.0000     2.0000 </r>
       <r>   -22.6429     0.0000     2.0000 </r>
       <r>   -22.5372     0.0000     2.0000 </r>
       <r>   -22.4314     0.0000     2.0000 </r>
       <r>   -22.3256     0.0000     2.0000 </r>
       <r>   -22.2199     0.0000     2.0000 </r>
       <r>   -22.1141     0.0000     2.0000 </r>
       <r>   -22.0083     0.0000     2.0000 </r>
       <r>   -21.9025     0.0000     2.0000 </r>
       <r>   -21.7968     0.0000     2.0000 </r>
       <r>   -21.6910     0.0000     2.0000 </r>
       <r>   -21.5852     0.0000     2.0000 </r>
       <r>   -21.4795     0.0000     2.0000 </r>
       <r>   -21.3737     0.0000     2.0000 </r>
       <r>   -21.2679     0.0000     2.0000 </r>
       <r>   -21.1621     0.0000     2.0000 </r>
       <r>   -21.0564     0.0000     2.0000 </r>
       <r>   -20.9506     0.0000     2.0000 </r>
       <r>   -20.8448     0.0000     2.0000 </r>
       <r>   -20.7391     0.0000     2.0000 </r>
       <r>   -20.6333     0.0000     2.0000 </r>
       <r>   -20.5275     0.0000     2.0000 </r>
       <r>   -20.4217     0.0000     2.0000 </r>
       <r>   -20.3160     0.0000     2.0000 </r>
       <r>   -20.2102     0.0000     2.0000 </r>
       <r>   -20.1044     0.0000     2.0000 </r>
       <r>   -19.9987     0.0000     2.0000 </r>
       <r>   -19.8929     0.0000     2.0000 </r>
       <r>   -19.7871     0.0000     2.0000 </r>
       <r>   -19.6813     0.0000     2.0000 </r>
       <r>   -19.5756     0.0000     2.0000 </r>
       <r>   -19.4698     0.0000     2.0000 </r>
       <r>   -19.3640     0.0000     2.0000 </r>
       <r>   -19.2583     0.0000     2.0000 </r>
       <r>   -19.1525     0.0000     2.0000 </r>
       <r>   -19.0467     0.0000     2.0000 </r>
       <r>   -18.9409     0.0000     2.0000 </r>
       <r>   -18.8352     0.0000     2.0000 </r>
       <r>   -18.7294     0.0000     2.0000 </r>
       <r>   -18.6236     0.0000     2.0000 </r>
       <r>   -18.5179     0.0000     2.0000 </r>
       <r>   -18.4121     0.0000     2.0000 </r>
       <r>   -18.3063     0.0000     2.0000 </r>
       <r>   -18.2005     0.0000     2.0000 </r>
       <r>   -18.0948     0.0000     2.0000 </r>
       <r>   -17.9890     0.0000     2.0000 </r>
       <r>   -17.8832     0.0000     2.0000 </r>
       <r>   -17.7775     0.0000     2.0000 </r>
       <r>   -17.6717     0.0000     2.0000 </r>
       <r>   -17.5659     0.0000     2.0000 </r>
       <r>   -17.4601     0.0000     2.0000 </r>
       <r>   -17.3544     0.0000     2.0000 </r>
       <r>   -17.2486     0.0000     2.0000 </r>
       <r>   -17.1428     0.0000     2.0000 </r>
       <r>   -17.0371     0.0000     2.0000 </r>
       <r>   -16.9313     0.0000     2.0000 </r>
       <r>   -16.8255     0.0000     2.0000 </r>
       <r>   -16.7197     0.0000     2.0000 </r>
       <r>   -16.6140     0.0000     2.0000 </r>
       <r>   -16.5082     0.0000     2.0000 </r>
       <r>   -16.4024     0.0000     2.0000 </r>
       <r>   -16.2967     0.0000     2.0000 </r>
       <r>   -16.1909     0.0000     2.0000 </r>
       <r>   -16.0851     0.0000     2.0000 </r>
       <r>   -15.9793     0.0000     2.0000 </r>
       <r>   -15.8736     0.0000     2.0000 </r>
       <r>   -15.7678     0.0000     2.0000 </r>
       <r>   -15.6620     0.0000     2.0000 </r>
       <r>   -15.5563     0.0000     2.0000 </r>
       <r>   -15.4505     0.0000     2.0000 </r>
       <r>   -15.3447     0.0000     2.0000 </r>
       <r>   -15.2389     0.0000     2.0000 </r>
       <r>   -15.1332     0.0000     2.0000 </r>
       <r>   -15.0274     0.0000     2.0000 </r>
       <r>   -14.9216     0.0000     2.0000 </r>
       <r>   -14.8159     0.0000     2.0000 </r>
       <r>   -14.7101    -0.0000     2.0000 </r>
       <r>   -14.6043    -0.0000     2.0000 </r>
       <r>   -14.4985    -0.0000     2.0000 </r>
       <r>   -14.3928    -0.0000     2.0000 </r>
       <r>   -14.2870    -0.0000     2.0000 </r>
       <r>   -14.1812    -0.0008     1.9999 </r>
       <r>   -14.0755    -0.1119     1.9881 </r>
       <r>   -13.9697    -0.4162     1.9441 </r>
       <r>   -13.8639    10.4257     3.0468 </r>
       <r>   -13.7581     9.6145     4.0637 </r>
       <r>   -13.6524    -0.5099     4.0098 </r>
       <r>   -13.5466    -0.0921     4.0001 </r>
       <r>   -13.4408    -0.0005     4.0000 </r>
       <r>   -13.3351    -0.0000     4.0000 </r>
       <r>   -13.2293    -0.0000     4.0000 </r>
       <r>   -13.1235     0.0000     4.0000 </r>
       <r>   -13.0177     0.0000     4.0000 </r>
       <r>   -12.9120     0.0000     4.0000 </r>
       <r>   -12.8062     0.0000     4.0000 </r>
       <r>   -12.7004     0.0000     4.0000 </r>
       <r>   -12.5947     0.0000     4.0000 </r>
       <r>   -12.4889     0.0000     4.0000 </r>
       <r>   -12.3831     0.0000     4.0000 </r>
       <r>   -12.2773     0.0000     4.0000 </r>
       <r>   -12.1716    -0.0000     4.0000 </r>
       <r>   -12.0658    -0.0000     4.0000 </r>
       <r>   -11.9600    -0.0000     4.0000 </r>
       <r>   -11.8543    -0.0000     4.0000 </r>
       <r>   -11.7485    -0.0000     4.0000 </r>
       <r>   -11.6427    -0.0061     3.9994 </r>
       <r>   -11.5369    -0.3663     3.9606 </r>
       <r>   -11.4312     0.8256     4.0479 </r>
       <r>   -11.3254    19.7688     6.1389 </r>
       <r>   -11.2196    17.2514     7.9636 </r>
       <r>   -11.1139     3.2269     8.3049 </r>
       <r>   -11.0081    14.2666     9.8139 </r>
       <r>   -10.9023     2.1700    10.0434 </r>
       <r>   -10.7965    -0.4017    10.0010 </r>
       <r>   -10.6908    -0.0091    10.0000 </r>
       <r>   -10.5850    -0.0000    10.0000 </r>
       <r>   -10.4792    -0.0001    10.0000 </r>
       <r>   -10.3735    -0.0374     9.9960 </r>
       <r>   -10.2677    -0.6108     9.9314 </r>
       <r>   -10.1619     6.0944    10.5760 </r>
       <r>   -10.0561    13.2635    11.9789 </r>
       <r>    -9.9504     0.4335    12.0248 </r>
       <r>    -9.8446    -0.2315    12.0003 </r>
       <r>    -9.7388    -0.0028    12.0000 </r>
       <r>    -9.6330    -0.0000    12.0000 </r>
       <r>    -9.5273    -0.0000    12.0000 </r>
       <r>    -9.4215    -0.0000    12.0000 </r>
       <r>    -9.3157    -0.0000    12.0000 </r>
       <r>    -9.2100    -0.0000    12.0000 </r>
       <r>    -9.1042    -0.0000    12.0000 </r>
       <r>    -8.9984    -0.0000    12.0000 </r>
       <r>    -8.8926    -0.0098    11.9990 </r>
       <r>    -8.7869    -0.4132    11.9553 </r>
       <r>    -8.6811     2.3144    12.2001 </r>
       <r>    -8.5753    14.5645    13.7406 </r>
       <r>    -8.4696     2.9253    14.0500 </r>
       <r>    -8.3638    -0.5292    13.9940 </r>
       <r>    -8.2580    -0.6017    13.9304 </r>
       <r>    -8.1522     8.4385    14.8229 </r>
       <r>    -8.0465    11.4966    16.0389 </r>
       <r>    -7.9407    -0.2302    16.0146 </r>
       <r>    -7.8349    -0.5347    15.9580 </r>
       <r>    -7.7292     1.9051    16.1595 </r>
       <r>    -7.6234    13.8207    17.6214 </r>
       <r>    -7.5176    14.4630    19.1511 </r>
       <r>    -7.4118    22.3877    21.5191 </r>
       <r>    -7.3061     8.2749    22.3944 </r>
       <r>    -7.2003    17.7805    24.2750 </r>
       <r>    -7.0945    28.9227    27.3342 </r>
       <r>    -6.9888    25.2143    30.0012 </r>
       <r>    -6.8830    17.9100    31.8956 </r>
       <r>    -6.7772     9.8840    32.9410 </r>
       <r>    -6.6714    28.2868    35.9329 </r>
       <r>    -6.5657    50.6042    41.2854 </r>
       <r>    -6.4599    47.0632    46.2634 </r>
       <r>    -6.3541    37.9363    50.2759 </r>
       <r>    -6.2484    51.4276    55.7155 </r>
       <r>    -6.1426    55.8333    61.6211 </r>
       <r>    -6.0368    43.4137    66.2130 </r>
       <r>    -5.9310    31.7923    69.5757 </r>
       <r>    -5.8253    24.8890    72.2083 </r>
       <r>    -5.7195    21.7181    74.5055 </r>
       <r>    -5.6137    38.2597    78.5523 </r>
       <r>    -5.5080    50.3681    83.8798 </r>
       <r>    -5.4022    52.6816    89.4520 </r>
       <r>    -5.2964    69.0064    96.7509 </r>
       <r>    -5.1906    84.3903   105.6770 </r>
       <r>    -5.0849    89.1801   115.1097 </r>
       <r>    -4.9791    76.5314   123.2045 </r>
       <r>    -4.8733    75.3239   131.1717 </r>
       <r>    -4.7676    83.0562   139.9566 </r>
       <r>    -4.6618    50.9412   145.3448 </r>
       <r>    -4.5560     7.4383   146.1315 </r>
       <r>    -4.4502    11.4012   147.3374 </r>
       <r>    -4.3445     6.9174   148.0691 </r>
       <r>    -4.2387    -1.2605   147.9358 </r>
       <r>    -4.1329     2.8654   148.2389 </r>
       <r>    -4.0272    27.0705   151.1022 </r>
       <r>    -3.9214     9.5876   152.1163 </r>
       <r>    -3.8156    -1.0383   152.0064 </r>
       <r>    -3.7098    -0.0606   152.0000 </r>
       <r>    -3.6041    -0.0058   151.9994 </r>
       <r>    -3.4983    -0.3218   151.9654 </r>
       <r>    -3.3925     1.2848   152.1013 </r>
       <r>    -3.2868    14.2003   153.6033 </r>
       <r>    -3.1810     4.2120   154.0488 </r>
       <r>    -3.0752    -1.2087   153.9209 </r>
       <r>    -2.9694    10.3236   155.0129 </r>
       <r>    -2.8637    22.7885   157.4232 </r>
       <r>    -2.7579     6.2153   158.0806 </r>
       <r>    -2.6521    -0.8011   157.9959 </r>
       <r>    -2.5464    -0.5910   157.9334 </r>
       <r>    -2.4406     9.0630   158.8920 </r>
       <r>    -2.3348    10.4871   160.0012 </r>
       <r>    -2.2290    10.5556   161.1177 </r>
       <r>    -2.1233     8.9594   162.0654 </r>
       <r>    -2.0175    -1.0563   161.9536 </r>
       <r>    -1.9117     3.1882   162.2909 </r>
       <r>    -1.8060    14.6141   163.8366 </r>
       <r>    -1.7002    17.3160   165.6682 </r>
       <r>    -1.5944    19.9453   167.7778 </r>
       <r>    -1.4886     2.1443   168.0046 </r>
       <r>    -1.3829     2.5919   168.2788 </r>
       <r>    -1.2771    14.5276   169.8154 </r>
       <r>    -1.1713     2.1075   170.0383 </r>
       <r>    -1.0656    -1.2964   169.9012 </r>
       <r>    -0.9598     7.4391   170.6880 </r>
       <r>    -0.8540    26.6459   173.5064 </r>
       <r>    -0.7482     5.0064   174.0359 </r>
       <r>    -0.6425    10.0002   175.0937 </r>
       <r>    -0.5367     9.1856   176.0652 </r>
       <r>    -0.4309    -0.9763   175.9620 </r>
       <r>    -0.3252     1.8674   176.1595 </r>
       <r>    -0.2194    17.4841   178.0088 </r>
       <r>    -0.1136    17.0780   179.8152 </r>
       <r>    -0.0078     2.2569   180.0539 </r>
       <r>     0.0979    17.8344   181.9403 </r>
       <r>     0.2037    19.1330   183.9640 </r>
       <r>     0.3095     0.6929   184.0373 </r>
       <r>     0.4152    -0.3468   184.0006 </r>
       <r>     0.5210    -0.0056   184.0000 </r>
       <r>     0.6268    -0.0000   184.0000 </r>
       <r>     0.7326    -0.0000   184.0000 </r>
       <r>     0.8383    -0.0000   184.0000 </r>
       <r>     0.9441     0.0000   184.0000 </r>
       <r>     1.0499     0.0000   184.0000 </r>
       <r>     1.1556     0.0000   184.0000 </r>
       <r>     1.2614     0.0000   184.0000 </r>
       <r>     1.3672     0.0000   184.0000 </r>
       <r>     1.4730     0.0000   184.0000 </r>
       <r>     1.5787     0.0000   184.0000 </r>
      </set>
     </set>
    </array>
   </total>
  </dos>
 </calculation>
 <structure name="finalpos" >
  <crystal>
   <varray name="basis" >
    <v>      15.00000000       0.00000000       0.00000000 </v>
    <v>       0.00000000      15.00000000       0.00000000 </v>
    <v>       0.00000000       0.00000000      15.00000000 </v>
   </varray>
   <i name="volume">   3375.00000000 </i>
   <varray name="rec_basis" >
    <v>       0.06666667       0.00000000       0.00000000 </v>
    <v>       0.00000000       0.06666667       0.00000000 </v>
    <v>       0.00000000       0.00000000       0.06666667 </v>
   </varray>
  </crystal>
  <varray name="positions" >
   <v>       0.28845533       0.41717000       0.55747800 </v>
   <v>       0.37426533       0.54850533       0.49979467 </v>
   <v>       0.40171067       0.28984800       0.55200067 </v>
   <v>       0.53373333       0.50097933       0.47538733 </v>
   <v>       0.54758533       0.35509933       0.53195667 </v>
   <v>       0.44159267       0.43607933       0.61438867 </v>
   <v>       0.41576933       0.40422133       0.44197467 </v>
   <v>       0.22392267       0.57059200       0.54024600 </v>
   <v>       0.32557933       0.55322200       0.65751667 </v>
   <v>       0.35625533       0.68103333       0.57787200 </v>
   <v>       0.48733867       0.65767133       0.48040667 </v>
   <v>       0.62952733       0.48573067       0.60614333 </v>
   <v>       0.48884400       0.58257467       0.61897000 </v>
   <v>       0.74692000       0.49366867       0.64343000 </v>
   <v>       0.82100000       0.50931933       0.65502333 </v>
  </varray>
 </structure>
</modeling>
