 vasp.5.4.4.18Apr17-6-g9f103f2a35 (build May 08 2019 13:49:07) complex          
  
 executed on             LinuxIFC date 2019.11.13  12:43:51
 running on   24 total cores
 distrk:  each k-point on   24 cores,    1 groups
 distr:  one band on NCORES_PER_BAND=   6 cores,    4 groups


--------------------------------------------------------------------------------------------------------


 INCAR:
 POTCAR:    PAW_PBE Cu 22Jun2005                  
 POTCAR:    PAW_PBE C 08Apr2002                   
 POTCAR:    PAW_PBE O 08Apr2002                   
 POTCAR:    PAW_PBE Cu 22Jun2005                  
   VRHFIN =Cu: d10 p1                                                           
   LEXCH  = PE                                                                  
   EATOM  =  1390.9808 eV,  102.2342 Ry                                         
                                                                                
   TITEL  = PAW_PBE Cu 22Jun2005                                                
   LULTRA =        F    use ultrasoft PP ?                                      
   IUNSCR =        1    unscreen: 0-lin 1-nonlin 2-no                           
   RPACOR =    2.000    partial core radius                                     
   POMASS =   63.546; ZVAL   =   11.000    mass and valenz                      
   RCORE  =    2.300    outmost cutoff radius                                   
   RWIGS  =    2.200; RWIGS  =    1.164    wigner-seitz radius (au A)           
   ENMAX  =  295.446; ENMIN  =  221.585 eV                                      
   ICORE  =        3    local potential                                         
   LCOR   =        T    correct aug charges                                     
   LPAW   =        T    paw PP                                                  
   EAUG   =  586.980                                                            
   DEXC   =    0.000                                                            
   RMAX   =    2.344    core radius for proj-oper                               
   RAUG   =    1.300    factor for augmentation sphere                          
   RDEP   =    2.302    radius for radial grids                                 
   RDEPT  =    1.771    core radius for aug-charge                              
                                                                                
   Atomic configuration                                                         
    9 entries                                                                   
     n  l   j            E        occ.                                          
     1  0  0.50     -8850.2468   2.0000                                         
     2  0  0.50     -1062.3498   2.0000                                         
     2  1  1.50      -916.8226   6.0000                                         
     3  0  0.50      -114.6929   2.0000                                         
     3  1  1.50       -72.1325   6.0000                                         
     3  2  2.50        -5.0394  10.0000                                         
     4  0  0.50        -4.6097   1.0000                                         
     4  1  0.50        -4.0817   0.0000                                         
     4  3  2.50        -1.3606   0.0000                                         
   Description                                                                  
     l       E           TYP  RCUT    TYP  RCUT                                 
     2     -5.0393973     23  2.200                                             
     2     10.8846608     23  2.200                                             
     0     -4.6097109     23  2.200                                             
     0      8.2520465     23  2.200                                             
     1     -2.7211652     23  2.200                                             
     1     21.7055443     23  2.200                                             
     3      2.7211652     23  2.300                                             
  local pseudopotential read in
  partial core-charges read in
  partial kinetic energy density read in
  atomic valenz-charges read in
  non local Contribution for L=           2  read in
    real space projection operators read in
  non local Contribution for L=           2  read in
    real space projection operators read in
  non local Contribution for L=           0  read in
    real space projection operators read in
  non local Contribution for L=           0  read in
    real space projection operators read in
  non local Contribution for L=           1  read in
    real space projection operators read in
  non local Contribution for L=           1  read in
    real space projection operators read in
    PAW grid and wavefunctions read in
 
   number of l-projection  operators is LMAX  =           6
   number of lm-projection operators is LMMAX =          18
 
 POTCAR:    PAW_PBE C 08Apr2002                   
   VRHFIN =C: s2p2                                                              
   LEXCH  = PE                                                                  
   EATOM  =   147.1560 eV,   10.8157 Ry                                         
                                                                                
   TITEL  = PAW_PBE C 08Apr2002                                                 
   LULTRA =        F    use ultrasoft PP ?                                      
   IUNSCR =        1    unscreen: 0-lin 1-nonlin 2-no                           
   RPACOR =    1.200    partial core radius                                     
   POMASS =   12.011; ZVAL   =    4.000    mass and valenz                      
   RCORE  =    1.500    outmost cutoff radius                                   
   RWIGS  =    1.630; RWIGS  =    0.863    wigner-seitz radius (au A)           
   ENMAX  =  400.000; ENMIN  =  300.000 eV                                      
   ICORE  =        2    local potential                                         
   LCOR   =        T    correct aug charges                                     
   LPAW   =        T    paw PP                                                  
   EAUG   =  644.873                                                            
   DEXC   =    0.000                                                            
   RMAX   =    1.529    core radius for proj-oper                               
   RAUG   =    1.300    factor for augmentation sphere                          
   RDEP   =    1.501    radius for radial grids                                 
   RDEPT  =    1.300    core radius for aug-charge                              
                                                                                
   Atomic configuration                                                         
    4 entries                                                                   
     n  l   j            E        occ.                                          
     1  0  0.50      -273.3789   2.0000                                         
     2  0  0.50       -13.7508   2.0000                                         
     2  1  0.50        -5.2854   2.0000                                         
     3  2  1.50        -5.4423   0.0000                                         
   Description                                                                  
     l       E           TYP  RCUT    TYP  RCUT                                 
     0    -13.7508458     23  1.200                                             
     0     -8.2022199     23  1.200                                             
     1     -5.2854383     23  1.500                                             
     1     34.0145650     23  1.500                                             
     2     -5.4423304      7  1.500                                             
  local pseudopotential read in
  partial core-charges read in
  partial kinetic energy density read in
  atomic valenz-charges read in
  non local Contribution for L=           0  read in
    real space projection operators read in
  non local Contribution for L=           0  read in
    real space projection operators read in
  non local Contribution for L=           1  read in
    real space projection operators read in
  non local Contribution for L=           1  read in
    real space projection operators read in
    PAW grid and wavefunctions read in
 
   number of l-projection  operators is LMAX  =           4
   number of lm-projection operators is LMMAX =           8
 
 POTCAR:    PAW_PBE O 08Apr2002                   
   VRHFIN =O: s2p4                                                              
   LEXCH  = PE                                                                  
   EATOM  =   432.3788 eV,   31.7789 Ry                                         
                                                                                
   TITEL  = PAW_PBE O 08Apr2002                                                 
   LULTRA =        F    use ultrasoft PP ?                                      
   IUNSCR =        1    unscreen: 0-lin 1-nonlin 2-no                           
   RPACOR =    1.200    partial core radius                                     
   POMASS =   16.000; ZVAL   =    6.000    mass and valenz                      
   RCORE  =    1.520    outmost cutoff radius                                   
   RWIGS  =    1.550; RWIGS  =    0.820    wigner-seitz radius (au A)           
   ENMAX  =  400.000; ENMIN  =  300.000 eV                                      
   ICORE  =        2    local potential                                         
   LCOR   =        T    correct aug charges                                     
   LPAW   =        T    paw PP                                                  
   EAUG   =  605.392                                                            
   DEXC   =    0.000                                                            
   RMAX   =    1.553    core radius for proj-oper                               
   RAUG   =    1.300    factor for augmentation sphere                          
   RDEP   =    1.550    radius for radial grids                                 
   RDEPT  =    1.329    core radius for aug-charge                              
                                                                                
   Atomic configuration                                                         
    4 entries                                                                   
     n  l   j            E        occ.                                          
     1  0  0.50      -514.6923   2.0000                                         
     2  0  0.50       -23.9615   2.0000                                         
     2  1  0.50        -9.0305   4.0000                                         
     3  2  1.50        -9.5241   0.0000                                         
   Description                                                                  
     l       E           TYP  RCUT    TYP  RCUT                                 
     0    -23.9615318     23  1.200                                             
     0     -9.5240782     23  1.200                                             
     1     -9.0304911     23  1.520                                             
     1      8.1634956     23  1.520                                             
     2     -9.5240782      7  1.500                                             
  local pseudopotential read in
  partial core-charges read in
  partial kinetic energy density read in
  kinetic energy density of atom read in
  atomic valenz-charges read in
  non local Contribution for L=           0  read in
    real space projection operators read in
  non local Contribution for L=           0  read in
    real space projection operators read in
  non local Contribution for L=           1  read in
    real space projection operators read in
  non local Contribution for L=           1  read in
    real space projection operators read in
    PAW grid and wavefunctions read in
 
   number of l-projection  operators is LMAX  =           4
   number of lm-projection operators is LMMAX =           8
 
  PAW_PBE Cu 22Jun2005                  :
 energy of atom  1       EATOM=-1390.9808
 kinetic energy error for atom=    0.0033 (will be added to EATOM!!)
  PAW_PBE C 08Apr2002                   :
 energy of atom  2       EATOM= -147.1560
 kinetic energy error for atom=    0.0057 (will be added to EATOM!!)
  PAW_PBE O 08Apr2002                   :
 energy of atom  3       EATOM= -432.3788
 kinetic energy error for atom=    0.0168 (will be added to EATOM!!)
 
 
 POSCAR: Cu13 C1 O1                              
  positions in cartesian coordinates
  No initial velocities read in
 exchange correlation table for  LEXCH =        8
   RHO(1)=    0.500       N(1)  =     2000
   RHO(2)=  100.500       N(2)  =     4000
 


--------------------------------------------------------------------------------------------------------


 ion  position               nearest neighbor table
   1  0.283  0.410  0.562-   3 2.46   6 2.46   9 2.51   8 2.52   2 2.65   7 2.65
   2  0.374  0.548  0.499-  10 2.33   9 2.36   7 2.36   8 2.41  11 2.45  13 2.49   4 2.50   6 2.58
                             1 2.65
   3  0.398  0.293  0.555-   6 2.30   7 2.34   5 2.43   1 2.46
   4  0.534  0.507  0.484-  12 2.33   7 2.36  13 2.41   5 2.42  11 2.44   2 2.50   6 2.60
   5  0.546  0.350  0.522-   7 2.35   6 2.39   4 2.42   3 2.43
   6  0.439  0.431  0.607-   9 2.29   3 2.30   5 2.39   7 2.42  13 2.44   1 2.46   2 2.58   4 2.60

   7  0.419  0.405  0.449-   3 2.34   5 2.35   2 2.36   4 2.36   6 2.42   1 2.65
   8  0.225  0.567  0.557-   9 2.29   2 2.41   1 2.52  10 2.65
   9  0.340  0.538  0.653-   8 2.29   6 2.29   2 2.36  13 2.38   1 2.51  10 2.56
  10  0.356  0.686  0.568-   2 2.33  11 2.48   9 2.56  13 2.56   8 2.65
  11  0.486  0.662  0.470-   4 2.44   2 2.45  13 2.45  10 2.48
  12  0.630  0.496  0.605-  14 1.80   4 2.33  13 2.55
  13  0.487  0.586  0.615-   9 2.38   4 2.41   6 2.44  11 2.45   2 2.49  12 2.55  10 2.56
  14  0.737  0.500  0.660-  15 1.14  12 1.80
  15  0.810  0.515  0.673-  14 1.14
 

IMPORTANT INFORMATION: All symmetrisations will be switched off!
NOSYMM: (Re-)initialisation of all symmetry stuff for point group C_1.

 
 

Automatic generation of k-mesh.
 generate k-points for:    1    1    1
Space group operators:
 irot       det(A)        alpha          n_x          n_y          n_z        tau_x        tau_y        tau_z
    1     1.000000     0.000000     1.000000     0.000000     0.000000     0.000000     0.000000     0.000000
 
 Subroutine IBZKPT returns following result:
 ===========================================
 
 Found      1 irreducible k-points:
 
 Following reciprocal coordinates:
            Coordinates               Weight
  0.000000  0.000000  0.000000      1.000000
 
 Following cartesian coordinates:
            Coordinates               Weight
  0.000000  0.000000  0.000000      1.000000
 


--------------------------------------------------------------------------------------------------------




 Dimension of arrays:
   k-points           NKPTS =      1   k-points in BZ     NKDIM =      1   number of bands    NBANDS=     92
   number of dos      NEDOS =    301   number of ions     NIONS =     15
   non local maximal  LDIM  =      6   non local SUM 2l+1 LMDIM =     18
   total plane-waves  NPLWV = ******
   max r-space proj   IRMAX =      1   max aug-charges    IRDMAX=  15028
   dimension x,y,z NGX =   120 NGY =  120 NGZ =  120
   dimension x,y,z NGXF=   240 NGYF=  240 NGZF=  240
   support grid    NGXF=   240 NGYF=  240 NGZF=  240
   ions per type =              13   1   1
   NGX,Y,Z   is equivalent  to a cutoff of  13.30, 13.30, 13.30 a.u.
   NGXF,Y,Z  is equivalent  to a cutoff of  26.60, 26.60, 26.60 a.u.

 SYSTEM =  CuCO                                    
 POSCAR =  Cu13 C1 O1                              

 Startparameter for this run:
   NWRITE =      2    write-flag & timer
   PREC   = accura    normal or accurate (medium, high low for compatibility)
   ISTART =      0    job   : 0-new  1-cont  2-samecut
   ICHARG =      2    charge: 1-file 2-atom 10-const
   ISPIN  =      2    spin polarized calculation?
   LNONCOLLINEAR =      F non collinear calculations
   LSORBIT =      F    spin-orbit coupling
   INIWAV =      1    electr: 0-lowe 1-rand  2-diag
   LASPH  =      F    aspherical Exc in radial PAW
   METAGGA=      F    non-selfconsistent MetaGGA calc.

 Electronic Relaxation 1
   ENCUT  =  600.0 eV  44.10 Ry    6.64 a.u.  29.96 29.96 29.96*2*pi/ulx,y,z
   ENINI  =  600.0     initial cutoff
   ENAUG  =  644.9 eV  augmentation charge cutoff
   NELM   =    300;   NELMIN=  3; NELMDL= -5     # of ELM steps 
   EDIFF  = 0.1E-06   stopping-criterion for ELM
   LREAL  =      F    real-space projection
   NLSPLINE    = F    spline interpolate recip. space projectors
   LCOMPAT=      F    compatible to vasp.4.4
   GGA_COMPAT  = T    GGA compatible to vasp.4.4-vasp.4.6
   LMAXPAW     = -100 max onsite density
   LMAXMIX     =    2 max onsite mixed and CHGCAR
   VOSKOWN=      0    Vosko Wilk Nusair interpolation
   ROPT   =    0.00000   0.00000   0.00000
 Ionic relaxation
   EDIFFG = -.1E-02   stopping-criterion for IOM
   NSW    =      0    number of steps for IOM
   NBLOCK =      1;   KBLOCK =      1    inner block; outer block 
   IBRION =     -1    ionic relax: 0-MD 1-quasi-New 2-CG
   NFREE  =      0    steps in history (QN), initial steepest desc. (CG)
   ISIF   =      2    stress and relaxation
   IWAVPR =     10    prediction:  0-non 1-charg 2-wave 3-comb
   ISYM   =      0    0-nonsym 1-usesym 2-fastsym
   LCORR  =      T    Harris-Foulkes like correction to forces

   POTIM  = 0.5000    time-step for ionic-motion
   TEIN   =    0.0    initial temperature
   TEBEG  =    0.0;   TEEND  =   0.0 temperature during run
   SMASS  =  -3.00    Nose mass-parameter (am)
   estimated Nose-frequenzy (Omega)   =  0.10E-29 period in steps =****** mass=  -0.514E-26a.u.
   SCALEE = 1.0000    scale energy and forces
   NPACO  =    256;   APACO  = 16.0  distance and # of slots for P.C.
   PSTRESS=    0.0 pullay stress

  Mass of Ions in am
   POMASS =  63.55 12.01 16.00
  Ionic Valenz
   ZVAL   =  11.00  4.00  6.00
  Atomic Wigner-Seitz radii
   RWIGS  =  -1.00 -1.00 -1.00
  virtual crystal weights 
   VCA    =   1.00  1.00  1.00
   NELECT =     153.0000    total number of electrons
   NUPDOWN=       1.0000    fix difference up-down

 DOS related values:
   EMIN   =  10.00;   EMAX   =-10.00  energy-range for DOS
   EFERMI =   0.00
   ISMEAR =     1;   SIGMA  =   0.10  broadening in eV -4-tet -1-fermi 0-gaus

 Electronic relaxation 2 (details)
   IALGO  =     68    algorithm
   LDIAG  =      T    sub-space diagonalisation (order eigenvalues)
   LSUBROT=      F    optimize rotation matrix (better conditioning)
   TURBO    =      0    0=normal 1=particle mesh
   IRESTART =      0    0=no restart 2=restart with 2 vectors
   NREBOOT  =      0    no. of reboots
   NMIN     =      0    reboot dimension
   EREF     =   0.00    reference energy to select bands
   IMIX   =      4    mixing-type and parameters
     AMIX     =   0.40;   BMIX     =  1.00
     AMIX_MAG =   1.60;   BMIX_MAG =  1.00
     AMIN     =   0.10
     WC   =   100.;   INIMIX=   1;  MIXPRE=   1;  MAXMIX= -45

 Intra band minimization:
   WEIMIN = 0.0000     energy-eigenvalue tresh-hold
   EBREAK =  0.27E-09  absolut break condition
   DEPER  =   0.30     relativ break condition  

   TIME   =   0.40     timestep for ELM

  volume/ion in A,a.u.               =     225.00      1518.37
  Fermi-wavevector in a.u.,A,eV,Ry     =   0.583733  1.103095  4.636102  0.340744
  Thomas-Fermi vector in A             =   1.629149
 
 Write flags
   LWAVE        =      F    write WAVECAR
   LDOWNSAMPLE  =      F    k-point downsampling of WAVECAR
   LCHARG       =      F    write CHGCAR
   LVTOT        =      F    write LOCPOT, total local potential
   LVHAR        =      F    write LOCPOT, Hartree potential only
   LELF         =      F    write electronic localiz. function (ELF)
   LORBIT       =      0    0 simple, 1 ext, 2 COOP (PROOUT), +10 PAW based schemes


 Dipole corrections
   LMONO  =      F    monopole corrections only (constant potential shift)
   LDIPOL =      F    correct potential (dipole corrections)
   IDIPOL =      0    1-x, 2-y, 3-z, 4-all directions 
   EPSILON=  1.0000000 bulk dielectric constant

 Exchange correlation treatment:
   GGA     =    PE    GGA type
   LEXCH   =     8    internal setting for exchange type
   VOSKOWN=      0    Vosko Wilk Nusair interpolation
   LHFCALC =     F    Hartree Fock is set to
   LHFONE  =     F    Hartree Fock one center treatment
   AEXX    =    0.0000 exact exchange contribution

 Linear response parameters
   LEPSILON=     F    determine dielectric tensor
   LRPA    =     F    only Hartree local field effects (RPA)
   LNABLA  =     F    use nabla operator in PAW spheres
   LVEL    =     F    velocity operator in full k-point grid
   LINTERFAST=   F  fast interpolation
   KINTER  =     0    interpolate to denser k-point grid
   CSHIFT  =0.1000    complex shift for real part using Kramers Kronig
   OMEGAMAX=  -1.0    maximum frequency
   DEG_THRESHOLD= 0.2000000E-02 threshold for treating states as degnerate
   RTIME   =   -0.100 relaxation time in fs
  (WPLASMAI=    0.000 imaginary part of plasma frequency in eV, 0.658/RTIME)
   DFIELD  = 0.0000000 0.0000000 0.0000000 field for delta impulse in time
 
 Orbital magnetization related:
   ORBITALMAG=     F  switch on orbital magnetization
   LCHIMAG   =     F  perturbation theory with respect to B field
   DQ        =  0.001000  dq finite difference perturbation B field
   LLRAUG    =     F  two centre corrections for induced B field



--------------------------------------------------------------------------------------------------------


 Static calculation
 charge density and potential will be updated during run
 spin polarized calculation
 RMM-DIIS sequential band-by-band and
  variant of blocked Davidson during initial phase
 perform sub-space diagonalisation
    before iterative eigenvector-optimisation
 modified Broyden-mixing scheme, WC =      100.0
 initial mixing is a Kerker type mixing with AMIX =  0.4000 and BMIX =      1.0000
 Hartree-type preconditioning will be used
 using additional bands           15
 reciprocal scheme for non local part
 use partial core corrections
 calculate Harris-corrections to forces 
   (improved forces if not selfconsistent)
 use gradient corrections 
 use of overlap-Matrix (Vanderbilt PP)
 Methfessel and Paxton  Order N= 1 SIGMA  =   0.10


--------------------------------------------------------------------------------------------------------


  energy-cutoff  :      600.00
  volume of cell :     3375.00
      direct lattice vectors                 reciprocal lattice vectors
    15.000000000  0.000000000  0.000000000     0.066666667  0.000000000  0.000000000
     0.000000000 15.000000000  0.000000000     0.000000000  0.066666667  0.000000000
     0.000000000  0.000000000 15.000000000     0.000000000  0.000000000  0.066666667

  length of vectors
    15.000000000 15.000000000 15.000000000     0.066666667  0.066666667  0.066666667


 
 k-points in units of 2pi/SCALE and weight: read from INCAR                         
   0.00000000  0.00000000  0.00000000       1.000
 
 k-points in reciprocal lattice and weights: read from INCAR                         
   0.00000000  0.00000000  0.00000000       1.000
 
 position of ions in fractional coordinates (direct lattice) 
   0.28315800  0.40984933  0.56225533
   0.37380800  0.54756267  0.49943800
   0.39834000  0.29323467  0.55521467
   0.53444600  0.50682600  0.48357867
   0.54625067  0.35022733  0.52188733
   0.43942333  0.43133533  0.60749667
   0.41888267  0.40548400  0.44931200
   0.22503333  0.56730000  0.55660533
   0.34023267  0.53840933  0.65265733
   0.35578133  0.68576000  0.56818200
   0.48647800  0.66191200  0.47001133
   0.63027267  0.49579733  0.60508667
   0.48693733  0.58642267  0.61473467
   0.73735333  0.49983800  0.65972133
   0.81044667  0.51504067  0.67328000
 
 position of ions in cartesian coordinates  (Angst):
   4.24737000  6.14774000  8.43383000
   5.60712000  8.21344000  7.49157000
   5.97510000  4.39852000  8.32822000
   8.01669000  7.60239000  7.25368000
   8.19376000  5.25341000  7.82831000
   6.59135000  6.47003000  9.11245000
   6.28324000  6.08226000  6.73968000
   3.37550000  8.50950000  8.34908000
   5.10349000  8.07614000  9.78986000
   5.33672000 10.28640000  8.52273000
   7.29717000  9.92868000  7.05017000
   9.45409000  7.43696000  9.07630000
   7.30406000  8.79634000  9.22102000
  11.06030000  7.49757000  9.89582000
  12.15670000  7.72561000 10.09920000
 


--------------------------------------------------------------------------------------------------------


 k-point  1 :   0.0000 0.0000 0.0000  plane waves:  112451

 maximum and minimum number of plane-waves per node :     18753    18726

 maximum number of plane-waves:    112451
 maximum index in each direction: 
   IXMAX=   29   IYMAX=   29   IZMAX=   29
   IXMIN=  -29   IYMIN=  -29   IZMIN=  -29


 parallel 3D FFT for wavefunctions:
    minimum data exchange during FFTs selected (reduces bandwidth)
 parallel 3D FFT for charge:
    minimum data exchange during FFTs selected (reduces bandwidth)


 total amount of memory used by VASP MPI-rank0   158680. kBytes
=======================================================================

   base      :      30000. kBytes
   nonl-proj :      12601. kBytes
   fftplans  :      27994. kBytes
   grid      :      74150. kBytes
   one-center:         93. kBytes
   wavefun   :      13842. kBytes
 
     INWAV:  cpu time    0.0000: real time    0.0001
 Broyden mixing: mesh for mixing (old mesh)
   NGX = 59   NGY = 59   NGZ = 59
  (NGX  =240   NGY  =240   NGZ  =240)
  gives a total of 205379 points

 initial charge density was supplied:
 charge density of overlapping atoms calculated
 number of electron     153.0000000 magnetization       1.0000000
 keeping initial charge density in first step


--------------------------------------------------------------------------------------------------------


 Maximum index for augmentation-charges          714 (set IRDMAX)


--------------------------------------------------------------------------------------------------------


 First call to EWALD:  gamma=   0.118
 Maximum number of real-space cells 3x 3x 3
 Maximum number of reciprocal cells 3x 3x 3

    FEWALD:  cpu time    0.0015: real time    0.0017


--------------------------------------- Iteration      1(   1)  ---------------------------------------


    POTLOK:  cpu time    1.1508: real time    1.1542
    SETDIJ:  cpu time    0.0184: real time    0.0184
     EDDAV:  cpu time    7.4663: real time    7.4804
       DOS:  cpu time    0.0004: real time    0.0004
    --------------------------------------------
      LOOP:  cpu time    8.6359: real time    8.6534

 eigenvalue-minimisations  :   376
 total energy-change (2. order) : 0.1124597E+04  (-0.4471636E+04)
 number of electron     153.0000000 magnetization       1.0000000
 augmentation part      153.0000000 magnetization       1.0000000

 Free energy of the ion-electron system (eV)
  ---------------------------------------------------
  alpha Z        PSCENC =        41.16232785
  Ewald energy   TEWEN  =     16689.15598578
  -Hartree energ DENC   =    -33698.33075393
  -exchange      EXHF   =         0.00000000
  -V(xc)+E(xc)   XCENC  =       624.21094810
  PAW double counting   =     16421.75059358   -17800.06104309
  entropy T*S    EENTRO =         0.00964701
  eigenvalues    EBANDS =       184.48020268
  atomic energy  EATOM  =     18662.21924712
  Solvation  Ediel_sol  =         0.00000000
  ---------------------------------------------------
  free energy    TOTEN  =      1124.59715510 eV

  energy without entropy =     1124.58750808  energy(sigma->0) =     1124.59393943


--------------------------------------------------------------------------------------------------------




--------------------------------------- Iteration      1(   2)  ---------------------------------------


     EDDAV:  cpu time    7.4591: real time    7.4725
       DOS:  cpu time    0.0003: real time    0.0003
    --------------------------------------------
      LOOP:  cpu time    7.4595: real time    7.4728

 eigenvalue-minimisations  :   376
 total energy-change (2. order) :-0.1036134E+04  (-0.9868325E+03)
 number of electron     153.0000000 magnetization       1.0000000
 augmentation part      153.0000000 magnetization       1.0000000

 Free energy of the ion-electron system (eV)
  ---------------------------------------------------
  alpha Z        PSCENC =        41.16232785
  Ewald energy   TEWEN  =     16689.15598578
  -Hartree energ DENC   =    -33698.33075393
  -exchange      EXHF   =         0.00000000
  -V(xc)+E(xc)   XCENC  =       624.21094810
  PAW double counting   =     16421.75059358   -17800.06104309
  entropy T*S    EENTRO =         0.01523937
  eigenvalues    EBANDS =      -851.65892539
  atomic energy  EATOM  =     18662.21924712
  Solvation  Ediel_sol  =         0.00000000
  ---------------------------------------------------
  free energy    TOTEN  =        88.46361938 eV

  energy without entropy =       88.44838001  energy(sigma->0) =       88.45853959


--------------------------------------------------------------------------------------------------------




--------------------------------------- Iteration      1(   3)  ---------------------------------------


     EDDAV:  cpu time   11.6990: real time   11.7318
       DOS:  cpu time    0.0003: real time    0.0003
    --------------------------------------------
      LOOP:  cpu time   11.6993: real time   11.7322

 eigenvalue-minimisations  :   664
 total energy-change (2. order) :-0.1230158E+03  (-0.1149277E+03)
 number of electron     153.0000000 magnetization       1.0000000
 augmentation part      153.0000000 magnetization       1.0000000

 Free energy of the ion-electron system (eV)
  ---------------------------------------------------
  alpha Z        PSCENC =        41.16232785
  Ewald energy   TEWEN  =     16689.15598578
  -Hartree energ DENC   =    -33698.33075393
  -exchange      EXHF   =         0.00000000
  -V(xc)+E(xc)   XCENC  =       624.21094810
  PAW double counting   =     16421.75059358   -17800.06104309
  entropy T*S    EENTRO =         0.00830256
  eigenvalues    EBANDS =      -974.66774635
  atomic energy  EATOM  =     18662.21924712
  Solvation  Ediel_sol  =         0.00000000
  ---------------------------------------------------
  free energy    TOTEN  =       -34.55213839 eV

  energy without entropy =      -34.56044095  energy(sigma->0) =      -34.55490591


--------------------------------------------------------------------------------------------------------




--------------------------------------- Iteration      1(   4)  ---------------------------------------


     EDDAV:  cpu time   10.1009: real time   10.1199
       DOS:  cpu time    0.0004: real time    0.0004
    --------------------------------------------
      LOOP:  cpu time   10.1013: real time   10.1203

 eigenvalue-minimisations  :   552
 total energy-change (2. order) :-0.2123494E+02  (-0.2093548E+02)
 number of electron     153.0000000 magnetization       1.0000000
 augmentation part      153.0000000 magnetization       1.0000000

 Free energy of the ion-electron system (eV)
  ---------------------------------------------------
  alpha Z        PSCENC =        41.16232785
  Ewald energy   TEWEN  =     16689.15598578
  -Hartree energ DENC   =    -33698.33075393
  -exchange      EXHF   =         0.00000000
  -V(xc)+E(xc)   XCENC  =       624.21094810
  PAW double counting   =     16421.75059358   -17800.06104309
  entropy T*S    EENTRO =         0.00932577
  eigenvalues    EBANDS =      -995.90371096
  atomic energy  EATOM  =     18662.21924712
  Solvation  Ediel_sol  =         0.00000000
  ---------------------------------------------------
  free energy    TOTEN  =       -55.78707979 eV

  energy without entropy =      -55.79640556  energy(sigma->0) =      -55.79018838


--------------------------------------------------------------------------------------------------------




--------------------------------------- Iteration      1(   5)  ---------------------------------------


     EDDAV:  cpu time   12.1376: real time   12.1568
       DOS:  cpu time    0.0004: real time    0.0004
    CHARGE:  cpu time    0.6631: real time    0.6642
    MIXING:  cpu time    0.0226: real time    0.0226
    --------------------------------------------
      LOOP:  cpu time   12.8238: real time   12.8440

 eigenvalue-minimisations  :   688
 total energy-change (2. order) :-0.1497985E+01  (-0.1387951E+01)
 number of electron     153.0000003 magnetization       1.0000000
 augmentation part       87.4269543 magnetization       0.4078247

 Broyden mixing:
  rms(total) = 0.23977E+01    rms(broyden)= 0.23976E+01
  rms(prec ) = 0.27460E+01
  weight for this iteration     100.00

 Free energy of the ion-electron system (eV)
  ---------------------------------------------------
  alpha Z        PSCENC =        41.16232785
  Ewald energy   TEWEN  =     16689.15598578
  -Hartree energ DENC   =    -33698.33075393
  -exchange      EXHF   =         0.00000000
  -V(xc)+E(xc)   XCENC  =       624.21094810
  PAW double counting   =     16421.75059358   -17800.06104309
  entropy T*S    EENTRO =         0.01095805
  eigenvalues    EBANDS =      -997.40332781
  atomic energy  EATOM  =     18662.21924712
  Solvation  Ediel_sol  =         0.00000000
  ---------------------------------------------------
  free energy    TOTEN  =       -57.28506436 eV

  energy without entropy =      -57.29602241  energy(sigma->0) =      -57.28871704


--------------------------------------------------------------------------------------------------------




--------------------------------------- Iteration      1(   6)  ---------------------------------------


    POTLOK:  cpu time    1.1339: real time    1.1362
    SETDIJ:  cpu time    0.0187: real time    0.0187
    EDDIAG:  cpu time    1.0874: real time    1.0892
  RMM-DIIS:  cpu time    6.9192: real time    6.9281
    ORTHCH:  cpu time    0.0525: real time    0.0525
       DOS:  cpu time    0.0005: real time    0.0005
    CHARGE:  cpu time    0.6334: real time    0.6339
    MIXING:  cpu time    0.0233: real time    0.0233
    --------------------------------------------
      LOOP:  cpu time    9.8688: real time    9.8824

 eigenvalue-minimisations  :   425
 total energy-change (2. order) : 0.1056898E+01  (-0.1227260E+02)
 number of electron     153.0000002 magnetization       1.0000000
 augmentation part       95.5705583 magnetization       0.1119689

 Broyden mixing:
  rms(total) = 0.15509E+01    rms(broyden)= 0.15507E+01
  rms(prec ) = 0.17917E+01
  weight for this iteration     100.00

 eigenvalues of (default mixing * dielectric matrix)
  average eigenvalue GAMMA=   0.6194
  0.6194

 Free energy of the ion-electron system (eV)
  ---------------------------------------------------
  alpha Z        PSCENC =        41.16232785
  Ewald energy   TEWEN  =     16689.15598578
  -Hartree energ DENC   =    -33449.98579994
  -exchange      EXHF   =         0.00000000
  -V(xc)+E(xc)   XCENC  =       612.04936869
  PAW double counting   =     16763.61052409   -18088.71695975
  entropy T*S    EENTRO =         0.00897076
  eigenvalues    EBANDS =     -1285.73183114
  atomic energy  EATOM  =     18662.21924712
  Solvation  Ediel_sol  =         0.00000000
  ---------------------------------------------------
  free energy    TOTEN  =       -56.22816655 eV

  energy without entropy =      -56.23713731  energy(sigma->0) =      -56.23115680


--------------------------------------------------------------------------------------------------------




--------------------------------------- Iteration      1(   7)  ---------------------------------------


    POTLOK:  cpu time    1.1341: real time    1.1376
    SETDIJ:  cpu time    0.0189: real time    0.0189
    EDDIAG:  cpu time    1.0878: real time    1.0889
  RMM-DIIS:  cpu time    7.2579: real time    7.2646
    ORTHCH:  cpu time    0.0530: real time    0.0530
       DOS:  cpu time    0.0004: real time    0.0004
    CHARGE:  cpu time    0.6657: real time    0.6661
    MIXING:  cpu time    0.0238: real time    0.0238
    --------------------------------------------
      LOOP:  cpu time   10.2416: real time   10.2533

 eigenvalue-minimisations  :   380
 total energy-change (2. order) : 0.7290227E+01  (-0.2558769E+01)
 number of electron     153.0000002 magnetization       1.0000000
 augmentation part       92.7838102 magnetization       0.1359298

 Broyden mixing:
  rms(total) = 0.38550E+00    rms(broyden)= 0.38548E+00
  rms(prec ) = 0.47485E+00
  weight for this iteration     100.00

 eigenvalues of (default mixing * dielectric matrix)
  average eigenvalue GAMMA=   0.9498
  1.2368  0.6628

 Free energy of the ion-electron system (eV)
  ---------------------------------------------------
  alpha Z        PSCENC =        41.16232785
  Ewald energy   TEWEN  =     16689.15598578
  -Hartree energ DENC   =    -33585.17020984
  -exchange      EXHF   =         0.00000000
  -V(xc)+E(xc)   XCENC  =       616.38296797
  PAW double counting   =     17125.14105783   -18500.09409564
  entropy T*S    EENTRO =         0.00887904
  eigenvalues    EBANDS =     -1097.74409940
  atomic energy  EATOM  =     18662.21924712
  Solvation  Ediel_sol  =         0.00000000
  ---------------------------------------------------
  free energy    TOTEN  =       -48.93793929 eV

  energy without entropy =      -48.94681833  energy(sigma->0) =      -48.94089897


--------------------------------------------------------------------------------------------------------




--------------------------------------- Iteration      1(   8)  ---------------------------------------


    POTLOK:  cpu time    1.1349: real time    1.1356
    SETDIJ:  cpu time    0.0183: real time    0.0183
    EDDIAG:  cpu time    1.0891: real time    1.0905
  RMM-DIIS:  cpu time    7.7336: real time    7.7505
    ORTHCH:  cpu time    0.0530: real time    0.0530
       DOS:  cpu time    0.0004: real time    0.0004
    CHARGE:  cpu time    0.6456: real time    0.6461
    MIXING:  cpu time    0.0244: real time    0.0244
    --------------------------------------------
      LOOP:  cpu time   10.6994: real time   10.7190

 eigenvalue-minimisations  :   425
 total energy-change (2. order) : 0.1835720E+00  (-0.4505476E+00)
 number of electron     153.0000002 magnetization       1.0000000
 augmentation part       91.9852800 magnetization       0.1420726

 Broyden mixing:
  rms(total) = 0.32824E+00    rms(broyden)= 0.32822E+00
  rms(prec ) = 0.37015E+00
  weight for this iteration     100.00

 eigenvalues of (default mixing * dielectric matrix)
  average eigenvalue GAMMA=   0.9180
  1.3844  0.6848  0.6848

 Free energy of the ion-electron system (eV)
  ---------------------------------------------------
  alpha Z        PSCENC =        41.16232785
  Ewald energy   TEWEN  =     16689.15598578
  -Hartree energ DENC   =    -33635.62969802
  -exchange      EXHF   =         0.00000000
  -V(xc)+E(xc)   XCENC  =       616.78277733
  PAW double counting   =     17524.92747973   -18920.67205593
  entropy T*S    EENTRO =         0.00910236
  eigenvalues    EBANDS =     -1026.70953349
  atomic energy  EATOM  =     18662.21924712
  Solvation  Ediel_sol  =         0.00000000
  ---------------------------------------------------
  free energy    TOTEN  =       -48.75436728 eV

  energy without entropy =      -48.76346963  energy(sigma->0) =      -48.75740139


--------------------------------------------------------------------------------------------------------




--------------------------------------- Iteration      1(   9)  ---------------------------------------


    POTLOK:  cpu time    1.1356: real time    1.1384
    SETDIJ:  cpu time    0.0188: real time    0.0188
    EDDIAG:  cpu time    1.0889: real time    1.0904
  RMM-DIIS:  cpu time    6.9163: real time    6.9313
    ORTHCH:  cpu time    0.0519: real time    0.0519
       DOS:  cpu time    0.0004: real time    0.0004
    CHARGE:  cpu time    0.6919: real time    0.6925
    MIXING:  cpu time    0.0251: real time    0.0251
    --------------------------------------------
      LOOP:  cpu time    9.9290: real time    9.9488

 eigenvalue-minimisations  :   408
 total energy-change (2. order) : 0.7492664E-01  (-0.1057543E+00)
 number of electron     153.0000002 magnetization       1.0000000
 augmentation part       92.1921668 magnetization       0.1240283

 Broyden mixing:
  rms(total) = 0.18196E+00    rms(broyden)= 0.18196E+00
  rms(prec ) = 0.21528E+00
  weight for this iteration     100.00

 eigenvalues of (default mixing * dielectric matrix)
  average eigenvalue GAMMA=   1.0367
  2.0809  0.7855  0.7855  0.4949

 Free energy of the ion-electron system (eV)
  ---------------------------------------------------
  alpha Z        PSCENC =        41.16232785
  Ewald energy   TEWEN  =     16689.15598578
  -Hartree energ DENC   =    -33632.08731856
  -exchange      EXHF   =         0.00000000
  -V(xc)+E(xc)   XCENC  =       616.30638671
  PAW double counting   =     17626.69311387   -19023.68202989
  entropy T*S    EENTRO =         0.00920362
  eigenvalues    EBANDS =     -1028.45635712
  atomic energy  EATOM  =     18662.21924712
  Solvation  Ediel_sol  =         0.00000000
  ---------------------------------------------------
  free energy    TOTEN  =       -48.67944063 eV

  energy without entropy =      -48.68864425  energy(sigma->0) =      -48.68250851


--------------------------------------------------------------------------------------------------------




--------------------------------------- Iteration      1(  10)  ---------------------------------------


    POTLOK:  cpu time    1.1363: real time    1.1395
    SETDIJ:  cpu time    0.0185: real time    0.0185
    EDDIAG:  cpu time    1.0869: real time    1.0881
  RMM-DIIS:  cpu time    6.9195: real time    6.9325
    ORTHCH:  cpu time    0.0517: real time    0.0517
       DOS:  cpu time    0.0004: real time    0.0004
    CHARGE:  cpu time    0.6917: real time    0.6923
    MIXING:  cpu time    0.0254: real time    0.0254
    --------------------------------------------
      LOOP:  cpu time    9.9303: real time    9.9483

 eigenvalue-minimisations  :   416
 total energy-change (2. order) : 0.5852395E-01  (-0.2229735E-01)
 number of electron     153.0000002 magnetization       1.0000000
 augmentation part       92.4169155 magnetization       0.1095865

 Broyden mixing:
  rms(total) = 0.65805E-01    rms(broyden)= 0.65802E-01
  rms(prec ) = 0.85620E-01
  weight for this iteration     100.00

 eigenvalues of (default mixing * dielectric matrix)
  average eigenvalue GAMMA=   1.0507
  2.1359  1.1271  0.7589  0.7589  0.4728

 Free energy of the ion-electron system (eV)
  ---------------------------------------------------
  alpha Z        PSCENC =        41.16232785
  Ewald energy   TEWEN  =     16689.15598578
  -Hartree energ DENC   =    -33628.29060393
  -exchange      EXHF   =         0.00000000
  -V(xc)+E(xc)   XCENC  =       615.82331196
  PAW double counting   =     17740.54052958   -19138.90909221
  entropy T*S    EENTRO =         0.00909399
  eigenvalues    EBANDS =     -1030.33171683
  atomic energy  EATOM  =     18662.21924712
  Solvation  Ediel_sol  =         0.00000000
  ---------------------------------------------------
  free energy    TOTEN  =       -48.62091669 eV

  energy without entropy =      -48.63001068  energy(sigma->0) =      -48.62394802


--------------------------------------------------------------------------------------------------------




--------------------------------------- Iteration      1(  11)  ---------------------------------------


    POTLOK:  cpu time    1.1377: real time    1.1385
    SETDIJ:  cpu time    0.0182: real time    0.0182
    EDDIAG:  cpu time    1.0868: real time    1.0883
  RMM-DIIS:  cpu time    7.8435: real time    7.8537
    ORTHCH:  cpu time    0.0507: real time    0.0509
       DOS:  cpu time    0.0004: real time    0.0004
    CHARGE:  cpu time    0.6933: real time    0.6938
    MIXING:  cpu time    0.0264: real time    0.0264
    --------------------------------------------
      LOOP:  cpu time   10.8570: real time   10.8702

 eigenvalue-minimisations  :   425
 total energy-change (2. order) : 0.1306366E-01  (-0.7589942E-02)
 number of electron     153.0000002 magnetization       1.0000000
 augmentation part       92.3377207 magnetization       0.1109227

 Broyden mixing:
  rms(total) = 0.41179E-01    rms(broyden)= 0.41175E-01
  rms(prec ) = 0.53387E-01
  weight for this iteration     100.00

 eigenvalues of (default mixing * dielectric matrix)
  average eigenvalue GAMMA=   1.0343
  2.1692  1.4434  0.7651  0.7651  0.5923  0.4707

 Free energy of the ion-electron system (eV)
  ---------------------------------------------------
  alpha Z        PSCENC =        41.16232785
  Ewald energy   TEWEN  =     16689.15598578
  -Hartree energ DENC   =    -33636.45761159
  -exchange      EXHF   =         0.00000000
  -V(xc)+E(xc)   XCENC  =       615.94325091
  PAW double counting   =     17794.77378623   -19195.43756312
  entropy T*S    EENTRO =         0.00914719
  eigenvalues    EBANDS =     -1019.97642340
  atomic energy  EATOM  =     18662.21924712
  Solvation  Ediel_sol  =         0.00000000
  ---------------------------------------------------
  free energy    TOTEN  =       -48.60785303 eV

  energy without entropy =      -48.61700022  energy(sigma->0) =      -48.61090209


--------------------------------------------------------------------------------------------------------




--------------------------------------- Iteration      1(  12)  ---------------------------------------


    POTLOK:  cpu time    1.1367: real time    1.1377
    SETDIJ:  cpu time    0.0186: real time    0.0186
    EDDIAG:  cpu time    1.0894: real time    1.0902
  RMM-DIIS:  cpu time    7.0622: real time    7.0730
    ORTHCH:  cpu time    0.0505: real time    0.0505
       DOS:  cpu time    0.0004: real time    0.0004
    CHARGE:  cpu time    0.6943: real time    0.6946
    MIXING:  cpu time    0.0269: real time    0.0269
    --------------------------------------------
      LOOP:  cpu time   10.0790: real time   10.0919

 eigenvalue-minimisations  :   417
 total energy-change (2. order) : 0.2601486E-02  (-0.1940725E-02)
 number of electron     153.0000002 magnetization       1.0000000
 augmentation part       92.3344179 magnetization       0.1104475

 Broyden mixing:
  rms(total) = 0.17926E-01    rms(broyden)= 0.17926E-01
  rms(prec ) = 0.30219E-01
  weight for this iteration     100.00

 eigenvalues of (default mixing * dielectric matrix)
  average eigenvalue GAMMA=   1.0835
  2.3621  1.6871  1.1197  0.7085  0.7085  0.5442  0.4542

 Free energy of the ion-electron system (eV)
  ---------------------------------------------------
  alpha Z        PSCENC =        41.16232785
  Ewald energy   TEWEN  =     16689.15598578
  -Hartree energ DENC   =    -33639.41545354
  -exchange      EXHF   =         0.00000000
  -V(xc)+E(xc)   XCENC  =       615.98585365
  PAW double counting   =     17803.44042291   -19204.46523772
  entropy T*S    EENTRO =         0.00911205
  eigenvalues    EBANDS =     -1016.69750964
  atomic energy  EATOM  =     18662.21924712
  Solvation  Ediel_sol  =         0.00000000
  ---------------------------------------------------
  free energy    TOTEN  =       -48.60525154 eV

  energy without entropy =      -48.61436359  energy(sigma->0) =      -48.60828889


--------------------------------------------------------------------------------------------------------




--------------------------------------- Iteration      1(  13)  ---------------------------------------


    POTLOK:  cpu time    1.1375: real time    1.1417
    SETDIJ:  cpu time    0.0183: real time    0.0183
    EDDIAG:  cpu time    1.0896: real time    1.0904
  RMM-DIIS:  cpu time    8.1899: real time    8.2023
    ORTHCH:  cpu time    0.0501: real time    0.0501
       DOS:  cpu time    0.0004: real time    0.0004
    CHARGE:  cpu time    0.6918: real time    0.6924
    MIXING:  cpu time    0.0278: real time    0.0279
    --------------------------------------------
      LOOP:  cpu time   11.2055: real time   11.2236

 eigenvalue-minimisations  :   483
 total energy-change (2. order) : 0.1026003E-02  (-0.6068972E-03)
 number of electron     153.0000002 magnetization       1.0000000
 augmentation part       92.3408538 magnetization       0.1107148

 Broyden mixing:
  rms(total) = 0.95802E-02    rms(broyden)= 0.95798E-02
  rms(prec ) = 0.19430E-01
  weight for this iteration     100.00

 eigenvalues of (default mixing * dielectric matrix)
  average eigenvalue GAMMA=   1.1209
  2.4388  1.9056  1.4025  0.7644  0.7644  0.7204  0.5240  0.4466

 Free energy of the ion-electron system (eV)
  ---------------------------------------------------
  alpha Z        PSCENC =        41.16232785
  Ewald energy   TEWEN  =     16689.15598578
  -Hartree energ DENC   =    -33644.23993274
  -exchange      EXHF   =         0.00000000
  -V(xc)+E(xc)   XCENC  =       616.01547189
  PAW double counting   =     17808.66405521   -19209.78630896
  entropy T*S    EENTRO =         0.00912349
  eigenvalues    EBANDS =     -1011.80419517
  atomic energy  EATOM  =     18662.21924712
  Solvation  Ediel_sol  =         0.00000000
  ---------------------------------------------------
  free energy    TOTEN  =       -48.60422554 eV

  energy without entropy =      -48.61334903  energy(sigma->0) =      -48.60726670


--------------------------------------------------------------------------------------------------------




--------------------------------------- Iteration      1(  14)  ---------------------------------------


    POTLOK:  cpu time    1.1381: real time    1.1394
    SETDIJ:  cpu time    0.0184: real time    0.0184
    EDDIAG:  cpu time    1.0884: real time    1.0904
  RMM-DIIS:  cpu time    6.5832: real time    6.5858
    ORTHCH:  cpu time    0.0509: real time    0.0509
       DOS:  cpu time    0.0004: real time    0.0004
    CHARGE:  cpu time    0.6893: real time    0.6897
    MIXING:  cpu time    0.0288: real time    0.0288
    --------------------------------------------
      LOOP:  cpu time    9.5975: real time    9.6039

 eigenvalue-minimisations  :   405
 total energy-change (2. order) :-0.1036938E-02  (-0.2858200E-03)
 number of electron     153.0000002 magnetization       1.0000000
 augmentation part       92.3524190 magnetization       0.1109472

 Broyden mixing:
  rms(total) = 0.10010E-01    rms(broyden)= 0.10010E-01
  rms(prec ) = 0.16153E-01
  weight for this iteration     100.00

 eigenvalues of (default mixing * dielectric matrix)
  average eigenvalue GAMMA=   1.1357
  2.3910  2.3910  1.3191  1.0368  0.7374  0.7374  0.6594  0.4992  0.4499

 Free energy of the ion-electron system (eV)
  ---------------------------------------------------
  alpha Z        PSCENC =        41.16232785
  Ewald energy   TEWEN  =     16689.15598578
  -Hartree energ DENC   =    -33648.97886214
  -exchange      EXHF   =         0.00000000
  -V(xc)+E(xc)   XCENC  =       616.04620616
  PAW double counting   =     17801.42288596   -19202.22484987
  entropy T*S    EENTRO =         0.00911801
  eigenvalues    EBANDS =     -1007.41732135
  atomic energy  EATOM  =     18662.21924712
  Solvation  Ediel_sol  =         0.00000000
  ---------------------------------------------------
  free energy    TOTEN  =       -48.60526248 eV

  energy without entropy =      -48.61438049  energy(sigma->0) =      -48.60830182


--------------------------------------------------------------------------------------------------------




--------------------------------------- Iteration      1(  15)  ---------------------------------------


    POTLOK:  cpu time    1.1385: real time    1.1397
    SETDIJ:  cpu time    0.0186: real time    0.0186
    EDDIAG:  cpu time    1.0895: real time    1.0911
  RMM-DIIS:  cpu time    7.2115: real time    7.2144
    ORTHCH:  cpu time    0.0503: real time    0.0503
       DOS:  cpu time    0.0003: real time    0.0003
    CHARGE:  cpu time    0.6883: real time    0.6887
    MIXING:  cpu time    0.0293: real time    0.0293
    --------------------------------------------
      LOOP:  cpu time   10.2263: real time   10.2323

 eigenvalue-minimisations  :   405
 total energy-change (2. order) :-0.1193109E-02  (-0.1217893E-03)
 number of electron     153.0000002 magnetization       1.0000000
 augmentation part       92.3516783 magnetization       0.1112637

 Broyden mixing:
  rms(total) = 0.72177E-02    rms(broyden)= 0.72176E-02
  rms(prec ) = 0.11656E-01
  weight for this iteration     100.00

 eigenvalues of (default mixing * dielectric matrix)
  average eigenvalue GAMMA=   1.1923
  2.6847  2.6847  1.4019  1.4019  0.7561  0.7561  0.7499  0.5543  0.4494  0.4841

 Free energy of the ion-electron system (eV)
  ---------------------------------------------------
  alpha Z        PSCENC =        41.16232785
  Ewald energy   TEWEN  =     16689.15598578
  -Hartree energ DENC   =    -33652.12943244
  -exchange      EXHF   =         0.00000000
  -V(xc)+E(xc)   XCENC  =       616.07416958
  PAW double counting   =     17795.55698690   -19196.19785716
  entropy T*S    EENTRO =         0.00911937
  eigenvalues    EBANDS =     -1004.45700257
  atomic energy  EATOM  =     18662.21924712
  Solvation  Ediel_sol  =         0.00000000
  ---------------------------------------------------
  free energy    TOTEN  =       -48.60645559 eV

  energy without entropy =      -48.61557496  energy(sigma->0) =      -48.60949538


--------------------------------------------------------------------------------------------------------




--------------------------------------- Iteration      1(  16)  ---------------------------------------


    POTLOK:  cpu time    1.1377: real time    1.1410
    SETDIJ:  cpu time    0.0188: real time    0.0188
    EDDIAG:  cpu time    1.0876: real time    1.0898
  RMM-DIIS:  cpu time    6.8231: real time    6.8255
    ORTHCH:  cpu time    0.0511: real time    0.0511
       DOS:  cpu time    0.0004: real time    0.0004
    CHARGE:  cpu time    0.6801: real time    0.6805
    MIXING:  cpu time    0.0302: real time    0.0302
    --------------------------------------------
      LOOP:  cpu time    9.8291: real time    9.8373

 eigenvalue-minimisations  :   397
 total energy-change (2. order) :-0.1701094E-02  (-0.1140640E-03)
 number of electron     153.0000002 magnetization       1.0000000
 augmentation part       92.3426277 magnetization       0.1114034

 Broyden mixing:
  rms(total) = 0.46233E-02    rms(broyden)= 0.46226E-02
  rms(prec ) = 0.70716E-02
  weight for this iteration     100.00

 eigenvalues of (default mixing * dielectric matrix)
  average eigenvalue GAMMA=   1.2317
  3.2545  2.6254  1.5462  1.5462  0.9424  0.7527  0.7527  0.6898  0.4469  0.5026
  0.4898

 Free energy of the ion-electron system (eV)
  ---------------------------------------------------
  alpha Z        PSCENC =        41.16232785
  Ewald energy   TEWEN  =     16689.15598578
  -Hartree energ DENC   =    -33655.50643858
  -exchange      EXHF   =         0.00000000
  -V(xc)+E(xc)   XCENC  =       616.10750774
  PAW double counting   =     17791.07177545   -19191.67724491
  entropy T*S    EENTRO =         0.00912420
  eigenvalues    EBANDS =     -1001.15044132
  atomic energy  EATOM  =     18662.21924712
  Solvation  Ediel_sol  =         0.00000000
  ---------------------------------------------------
  free energy    TOTEN  =       -48.60815668 eV

  energy without entropy =      -48.61728088  energy(sigma->0) =      -48.61119808


--------------------------------------------------------------------------------------------------------




--------------------------------------- Iteration      1(  17)  ---------------------------------------


    POTLOK:  cpu time    1.1374: real time    1.1378
    SETDIJ:  cpu time    0.0187: real time    0.0187
    EDDIAG:  cpu time    1.0882: real time    1.0901
  RMM-DIIS:  cpu time    6.8232: real time    6.8269
    ORTHCH:  cpu time    0.0512: real time    0.0512
       DOS:  cpu time    0.0004: real time    0.0004
    CHARGE:  cpu time    0.6754: real time    0.6757
    MIXING:  cpu time    0.0312: real time    0.0312
    --------------------------------------------
      LOOP:  cpu time    9.8256: real time    9.8320

 eigenvalue-minimisations  :   407
 total energy-change (2. order) :-0.1581963E-02  (-0.4296147E-04)
 number of electron     153.0000002 magnetization       1.0000000
 augmentation part       92.3415988 magnetization       0.1113245

 Broyden mixing:
  rms(total) = 0.27442E-02    rms(broyden)= 0.27442E-02
  rms(prec ) = 0.43331E-02
  weight for this iteration     100.00

 eigenvalues of (default mixing * dielectric matrix)
  average eigenvalue GAMMA=   1.3220
  4.2627  2.6036  1.9775  1.3274  1.3274  0.7750  0.7750  0.7104  0.6664  0.5204
  0.4483  0.4695

 Free energy of the ion-electron system (eV)
  ---------------------------------------------------
  alpha Z        PSCENC =        41.16232785
  Ewald energy   TEWEN  =     16689.15598578
  -Hartree energ DENC   =    -33657.30772477
  -exchange      EXHF   =         0.00000000
  -V(xc)+E(xc)   XCENC  =       616.11753092
  PAW double counting   =     17789.50038897   -19190.10787705
  entropy T*S    EENTRO =         0.00912287
  eigenvalues    EBANDS =      -999.35874032
  atomic energy  EATOM  =     18662.21924712
  Solvation  Ediel_sol  =         0.00000000
  ---------------------------------------------------
  free energy    TOTEN  =       -48.60973864 eV

  energy without entropy =      -48.61886151  energy(sigma->0) =      -48.61277960


--------------------------------------------------------------------------------------------------------




--------------------------------------- Iteration      1(  18)  ---------------------------------------


    POTLOK:  cpu time    1.1392: real time    1.1399
    SETDIJ:  cpu time    0.0188: real time    0.0188
    EDDIAG:  cpu time    1.0873: real time    1.0895
  RMM-DIIS:  cpu time    6.6660: real time    6.6703
    ORTHCH:  cpu time    0.0506: real time    0.0506
       DOS:  cpu time    0.0004: real time    0.0004
    CHARGE:  cpu time    0.6738: real time    0.6742
    MIXING:  cpu time    0.0326: real time    0.0326
    --------------------------------------------
      LOOP:  cpu time    9.6687: real time    9.6763

 eigenvalue-minimisations  :   400
 total energy-change (2. order) :-0.9884400E-03  (-0.1931997E-04)
 number of electron     153.0000002 magnetization       1.0000000
 augmentation part       92.3417167 magnetization       0.1113228

 Broyden mixing:
  rms(total) = 0.15581E-02    rms(broyden)= 0.15581E-02
  rms(prec ) = 0.27370E-02
  weight for this iteration     100.00

 eigenvalues of (default mixing * dielectric matrix)
  average eigenvalue GAMMA=   1.3742
  5.1822  2.6188  2.2403  1.3698  1.3698  0.7964  0.7964  0.7402  0.7402  0.5775
  0.5158  0.4483  0.4693

 Free energy of the ion-electron system (eV)
  ---------------------------------------------------
  alpha Z        PSCENC =        41.16232785
  Ewald energy   TEWEN  =     16689.15598578
  -Hartree energ DENC   =    -33658.28177856
  -exchange      EXHF   =         0.00000000
  -V(xc)+E(xc)   XCENC  =       616.12001370
  PAW double counting   =     17789.11242529   -19189.72922547
  entropy T*S    EENTRO =         0.00912771
  eigenvalues    EBANDS =      -998.37885051
  atomic energy  EATOM  =     18662.21924712
  Solvation  Ediel_sol  =         0.00000000
  ---------------------------------------------------
  free energy    TOTEN  =       -48.61072708 eV

  energy without entropy =      -48.61985480  energy(sigma->0) =      -48.61376966


--------------------------------------------------------------------------------------------------------




--------------------------------------- Iteration      1(  19)  ---------------------------------------


    POTLOK:  cpu time    1.1414: real time    1.1421
    SETDIJ:  cpu time    0.0186: real time    0.0186
    EDDIAG:  cpu time    1.0896: real time    1.0901
  RMM-DIIS:  cpu time    7.1033: real time    7.1087
    ORTHCH:  cpu time    0.0512: real time    0.0512
       DOS:  cpu time    0.0004: real time    0.0004
    CHARGE:  cpu time    0.6757: real time    0.6762
    MIXING:  cpu time    0.0340: real time    0.0340
    --------------------------------------------
      LOOP:  cpu time   10.1142: real time   10.1212

 eigenvalue-minimisations  :   412
 total energy-change (2. order) :-0.7094929E-03  (-0.7801897E-05)
 number of electron     153.0000002 magnetization       1.0000000
 augmentation part       92.3435323 magnetization       0.1114157

 Broyden mixing:
  rms(total) = 0.10855E-02    rms(broyden)= 0.10854E-02
  rms(prec ) = 0.18843E-02
  weight for this iteration     100.00

 eigenvalues of (default mixing * dielectric matrix)
  average eigenvalue GAMMA=   1.4430
  5.9549  2.7161  2.2443  1.5636  1.4040  1.4040  0.7688  0.7688  0.7610  0.6650
  0.5300  0.5072  0.4481  0.4666

 Free energy of the ion-electron system (eV)
  ---------------------------------------------------
  alpha Z        PSCENC =        41.16232785
  Ewald energy   TEWEN  =     16689.15598578
  -Hartree energ DENC   =    -33658.61542539
  -exchange      EXHF   =         0.00000000
  -V(xc)+E(xc)   XCENC  =       616.11747638
  PAW double counting   =     17789.19988325   -19189.81091205
  entropy T*S    EENTRO =         0.00912437
  eigenvalues    EBANDS =      -998.04914388
  atomic energy  EATOM  =     18662.21924712
  Solvation  Ediel_sol  =         0.00000000
  ---------------------------------------------------
  free energy    TOTEN  =       -48.61143658 eV

  energy without entropy =      -48.62056095  energy(sigma->0) =      -48.61447803


--------------------------------------------------------------------------------------------------------




--------------------------------------- Iteration      1(  20)  ---------------------------------------


    POTLOK:  cpu time    1.1406: real time    1.1441
    SETDIJ:  cpu time    0.0181: real time    0.0181
    EDDIAG:  cpu time    1.0887: real time    1.0893
  RMM-DIIS:  cpu time    7.5451: real time    7.5551
    ORTHCH:  cpu time    0.0506: real time    0.0507
       DOS:  cpu time    0.0004: real time    0.0004
    CHARGE:  cpu time    0.6778: real time    0.6781
    MIXING:  cpu time    0.0351: real time    0.0351
    --------------------------------------------
      LOOP:  cpu time   10.5564: real time   10.5709

 eigenvalue-minimisations  :   395
 total energy-change (2. order) :-0.6138787E-03  (-0.5359524E-05)
 number of electron     153.0000002 magnetization       1.0000000
 augmentation part       92.3441062 magnetization       0.1114324

 Broyden mixing:
  rms(total) = 0.67347E-03    rms(broyden)= 0.67346E-03
  rms(prec ) = 0.11796E-02
  weight for this iteration     100.00

 eigenvalues of (default mixing * dielectric matrix)
  average eigenvalue GAMMA=   1.4561
  6.3224  2.8214  2.3427  1.9052  1.3551  1.3551  0.8347  0.8347  0.7470  0.7470
  0.6358  0.5140  0.5140  0.4484  0.4644

 Free energy of the ion-electron system (eV)
  ---------------------------------------------------
  alpha Z        PSCENC =        41.16232785
  Ewald energy   TEWEN  =     16689.15598578
  -Hartree energ DENC   =    -33658.80559835
  -exchange      EXHF   =         0.00000000
  -V(xc)+E(xc)   XCENC  =       616.11545936
  PAW double counting   =     17789.55574728   -19190.16911190
  entropy T*S    EENTRO =         0.00912307
  eigenvalues    EBANDS =      -997.85523065
  atomic energy  EATOM  =     18662.21924712
  Solvation  Ediel_sol  =         0.00000000
  ---------------------------------------------------
  free energy    TOTEN  =       -48.61205046 eV

  energy without entropy =      -48.62117352  energy(sigma->0) =      -48.61509148


--------------------------------------------------------------------------------------------------------




--------------------------------------- Iteration      1(  21)  ---------------------------------------


    POTLOK:  cpu time    1.1379: real time    1.1384
    SETDIJ:  cpu time    0.0185: real time    0.0185
    EDDIAG:  cpu time    1.0880: real time    1.0897
  RMM-DIIS:  cpu time    6.8353: real time    6.8379
    ORTHCH:  cpu time    0.0504: real time    0.0504
       DOS:  cpu time    0.0004: real time    0.0004
    CHARGE:  cpu time    0.6769: real time    0.6773
    MIXING:  cpu time    0.0369: real time    0.0369
    --------------------------------------------
      LOOP:  cpu time    9.8444: real time    9.8495

 eigenvalue-minimisations  :   403
 total energy-change (2. order) :-0.3987152E-03  (-0.2583216E-05)
 number of electron     153.0000002 magnetization       1.0000000
 augmentation part       92.3439393 magnetization       0.1113738

 Broyden mixing:
  rms(total) = 0.56261E-03    rms(broyden)= 0.56261E-03
  rms(prec ) = 0.87699E-03
  weight for this iteration     100.00

 eigenvalues of (default mixing * dielectric matrix)
  average eigenvalue GAMMA=   1.5196
  6.7490  3.3331  2.5072  2.1251  1.4370  1.4370  1.1853  0.7622  0.7622  0.8028
  0.6664  0.6033  0.4482  0.4654  0.5145  0.5145

 Free energy of the ion-electron system (eV)
  ---------------------------------------------------
  alpha Z        PSCENC =        41.16232785
  Ewald energy   TEWEN  =     16689.15598578
  -Hartree energ DENC   =    -33658.88445385
  -exchange      EXHF   =         0.00000000
  -V(xc)+E(xc)   XCENC  =       616.11474632
  PAW double counting   =     17789.87530241   -19190.49629890
  entropy T*S    EENTRO =         0.00912410
  eigenvalues    EBANDS =      -997.76843000
  atomic energy  EATOM  =     18662.21924712
  Solvation  Ediel_sol  =         0.00000000
  ---------------------------------------------------
  free energy    TOTEN  =       -48.61244917 eV

  energy without entropy =      -48.62157327  energy(sigma->0) =      -48.61549054


--------------------------------------------------------------------------------------------------------




--------------------------------------- Iteration      1(  22)  ---------------------------------------


    POTLOK:  cpu time    1.1371: real time    1.1382
    SETDIJ:  cpu time    0.0184: real time    0.0184
    EDDIAG:  cpu time    1.0882: real time    1.0900
  RMM-DIIS:  cpu time    6.6408: real time    6.6436
    ORTHCH:  cpu time    0.0502: real time    0.0501
       DOS:  cpu time    0.0004: real time    0.0004
    CHARGE:  cpu time    0.6784: real time    0.6785
    MIXING:  cpu time    0.0386: real time    0.0386
    --------------------------------------------
      LOOP:  cpu time    9.6522: real time    9.6580

 eigenvalue-minimisations  :   401
 total energy-change (2. order) :-0.2651159E-03  (-0.2096883E-05)
 number of electron     153.0000002 magnetization       1.0000000
 augmentation part       92.3431218 magnetization       0.1113382

 Broyden mixing:
  rms(total) = 0.32247E-03    rms(broyden)= 0.32244E-03
  rms(prec ) = 0.50996E-03
  weight for this iteration     100.00

 eigenvalues of (default mixing * dielectric matrix)
  average eigenvalue GAMMA=   1.5489
  7.1022  3.9550  2.4782  2.2307  1.5445  1.3472  1.3472  0.8426  0.8426  0.7535
  0.7535  0.6408  0.5549  0.4481  0.4655  0.5152  0.5091

 Free energy of the ion-electron system (eV)
  ---------------------------------------------------
  alpha Z        PSCENC =        41.16232785
  Ewald energy   TEWEN  =     16689.15598578
  -Hartree energ DENC   =    -33658.97615664
  -exchange      EXHF   =         0.00000000
  -V(xc)+E(xc)   XCENC  =       616.11499866
  PAW double counting   =     17790.12215473   -19190.75310055
  entropy T*S    EENTRO =         0.00912389
  eigenvalues    EBANDS =      -997.66729512
  atomic energy  EATOM  =     18662.21924712
  Solvation  Ediel_sol  =         0.00000000
  ---------------------------------------------------
  free energy    TOTEN  =       -48.61271429 eV

  energy without entropy =      -48.62183818  energy(sigma->0) =      -48.61575558


--------------------------------------------------------------------------------------------------------




--------------------------------------- Iteration      1(  23)  ---------------------------------------


    POTLOK:  cpu time    1.1368: real time    1.1406
    SETDIJ:  cpu time    0.0203: real time    0.0202
    EDDIAG:  cpu time    1.0857: real time    1.0878
  RMM-DIIS:  cpu time    6.9504: real time    6.9530
    ORTHCH:  cpu time    0.0507: real time    0.0507
       DOS:  cpu time    0.0005: real time    0.0005
    CHARGE:  cpu time    0.6764: real time    0.6765
    MIXING:  cpu time    0.0407: real time    0.0410
    --------------------------------------------
      LOOP:  cpu time    9.9615: real time    9.9702

 eigenvalue-minimisations  :   418
 total energy-change (2. order) :-0.1263851E-03  (-0.7416190E-06)
 number of electron     153.0000002 magnetization       1.0000000
 augmentation part       92.3431866 magnetization       0.1113557

 Broyden mixing:
  rms(total) = 0.20340E-03    rms(broyden)= 0.20340E-03
  rms(prec ) = 0.33131E-03
  weight for this iteration     100.00

 eigenvalues of (default mixing * dielectric matrix)
  average eigenvalue GAMMA=   1.5750
  7.4570  4.3517  2.3908  2.3908  1.7777  1.3819  1.3819  0.9384  0.9384  0.7567
  0.7567  0.7082  0.6477  0.4482  0.4646  0.5407  0.5094  0.5094

 Free energy of the ion-electron system (eV)
  ---------------------------------------------------
  alpha Z        PSCENC =        41.16232785
  Ewald energy   TEWEN  =     16689.15598578
  -Hartree energ DENC   =    -33659.01527487
  -exchange      EXHF   =         0.00000000
  -V(xc)+E(xc)   XCENC  =       616.11472101
  PAW double counting   =     17790.05019702   -19190.67770319
  entropy T*S    EENTRO =         0.00912417
  eigenvalues    EBANDS =      -997.63146555
  atomic energy  EATOM  =     18662.21924712
  Solvation  Ediel_sol  =         0.00000000
  ---------------------------------------------------
  free energy    TOTEN  =       -48.61284067 eV

  energy without entropy =      -48.62196484  energy(sigma->0) =      -48.61588206


--------------------------------------------------------------------------------------------------------




--------------------------------------- Iteration      1(  24)  ---------------------------------------


    POTLOK:  cpu time    1.1373: real time    1.1384
    SETDIJ:  cpu time    0.0184: real time    0.0184
    EDDIAG:  cpu time    1.0914: real time    1.0931
  RMM-DIIS:  cpu time    6.7196: real time    6.7226
    ORTHCH:  cpu time    0.0510: real time    0.0510
       DOS:  cpu time    0.0005: real time    0.0005
    CHARGE:  cpu time    0.6762: real time    0.6764
    MIXING:  cpu time    0.0431: real time    0.0431
    --------------------------------------------
      LOOP:  cpu time    9.7374: real time    9.7433

 eigenvalue-minimisations  :   396
 total energy-change (2. order) :-0.8922784E-04  (-0.5841673E-06)
 number of electron     153.0000002 magnetization       1.0000000
 augmentation part       92.3435168 magnetization       0.1113671

 Broyden mixing:
  rms(total) = 0.13326E-03    rms(broyden)= 0.13325E-03
  rms(prec ) = 0.21979E-03
  weight for this iteration     100.00

 eigenvalues of (default mixing * dielectric matrix)
  average eigenvalue GAMMA=   1.6069
  7.7443  4.7132  2.5015  2.5015  1.6929  1.6929  1.3186  1.3186  0.8871  0.8871
  0.7579  0.7579  0.6558  0.6350  0.4482  0.4650  0.5225  0.5225  0.5081

 Free energy of the ion-electron system (eV)
  ---------------------------------------------------
  alpha Z        PSCENC =        41.16232785
  Ewald energy   TEWEN  =     16689.15598578
  -Hartree energ DENC   =    -33659.01161867
  -exchange      EXHF   =         0.00000000
  -V(xc)+E(xc)   XCENC  =       616.11429847
  PAW double counting   =     17789.93898336   -19190.56071926
  entropy T*S    EENTRO =         0.00912405
  eigenvalues    EBANDS =      -997.64055860
  atomic energy  EATOM  =     18662.21924712
  Solvation  Ediel_sol  =         0.00000000
  ---------------------------------------------------
  free energy    TOTEN  =       -48.61292990 eV

  energy without entropy =      -48.62205395  energy(sigma->0) =      -48.61597125


--------------------------------------------------------------------------------------------------------




--------------------------------------- Iteration      1(  25)  ---------------------------------------


    POTLOK:  cpu time    1.1361: real time    1.1370
    SETDIJ:  cpu time    0.0189: real time    0.0189
    EDDIAG:  cpu time    1.0888: real time    1.0894
  RMM-DIIS:  cpu time    6.4252: real time    6.4302
    ORTHCH:  cpu time    0.0505: real time    0.0505
       DOS:  cpu time    0.0003: real time    0.0003
    CHARGE:  cpu time    0.6745: real time    0.6750
    MIXING:  cpu time    0.0454: real time    0.0454
    --------------------------------------------
      LOOP:  cpu time    9.4398: real time    9.4468

 eigenvalue-minimisations  :   387
 total energy-change (2. order) :-0.7079459E-04  (-0.6545102E-06)
 number of electron     153.0000002 magnetization       1.0000000
 augmentation part       92.3437209 magnetization       0.1113709

 Broyden mixing:
  rms(total) = 0.11144E-03    rms(broyden)= 0.11144E-03
  rms(prec ) = 0.15906E-03
  weight for this iteration     100.00

 eigenvalues of (default mixing * dielectric matrix)
  average eigenvalue GAMMA=   1.6388
  7.9578  5.1596  2.8046  2.5488  1.8859  1.8859  1.3558  1.3558  0.9287  0.9287
  0.7606  0.7606  0.7170  0.6653  0.5856  0.4482  0.4650  0.5427  0.5099  0.5099

 Free energy of the ion-electron system (eV)
  ---------------------------------------------------
  alpha Z        PSCENC =        41.16232785
  Ewald energy   TEWEN  =     16689.15598578
  -Hartree energ DENC   =    -33658.99958417
  -exchange      EXHF   =         0.00000000
  -V(xc)+E(xc)   XCENC  =       616.11407729
  PAW double counting   =     17789.83679030   -19190.45459167
  entropy T*S    EENTRO =         0.00912402
  eigenvalues    EBANDS =      -997.65637720
  atomic energy  EATOM  =     18662.21924712
  Solvation  Ediel_sol  =         0.00000000
  ---------------------------------------------------
  free energy    TOTEN  =       -48.61300069 eV

  energy without entropy =      -48.62212472  energy(sigma->0) =      -48.61604203


--------------------------------------------------------------------------------------------------------




--------------------------------------- Iteration      1(  26)  ---------------------------------------


    POTLOK:  cpu time    1.1372: real time    1.1378
    SETDIJ:  cpu time    0.0184: real time    0.0184
    EDDIAG:  cpu time    1.0892: real time    1.0898
  RMM-DIIS:  cpu time    5.6047: real time    5.6087
    ORTHCH:  cpu time    0.0501: real time    0.0501
       DOS:  cpu time    0.0004: real time    0.0004
    CHARGE:  cpu time    0.6752: real time    0.6753
    MIXING:  cpu time    0.0483: real time    0.0486
    --------------------------------------------
      LOOP:  cpu time    8.6235: real time    8.6291

 eigenvalue-minimisations  :   338
 total energy-change (2. order) :-0.2564333E-04  (-0.2288952E-06)
 number of electron     153.0000002 magnetization       1.0000000
 augmentation part       92.3435686 magnetization       0.1113715

 Broyden mixing:
  rms(total) = 0.52818E-04    rms(broyden)= 0.52814E-04
  rms(prec ) = 0.87238E-04
  weight for this iteration     100.00

 eigenvalues of (default mixing * dielectric matrix)
  average eigenvalue GAMMA=   1.6580
  8.0661  5.5248  3.1322  2.5368  2.2267  1.5314  1.4036  1.4036  1.2519  0.9085
  0.9085  0.7608  0.7608  0.6966  0.6432  0.5920  0.4482  0.4649  0.5373  0.5105
  0.5105

 Free energy of the ion-electron system (eV)
  ---------------------------------------------------
  alpha Z        PSCENC =        41.16232785
  Ewald energy   TEWEN  =     16689.15598578
  -Hartree energ DENC   =    -33659.01171518
  -exchange      EXHF   =         0.00000000
  -V(xc)+E(xc)   XCENC  =       616.11430147
  PAW double counting   =     17789.82524813   -19190.44454396
  entropy T*S    EENTRO =         0.00912397
  eigenvalues    EBANDS =      -997.64300150
  atomic energy  EATOM  =     18662.21924712
  Solvation  Ediel_sol  =         0.00000000
  ---------------------------------------------------
  free energy    TOTEN  =       -48.61302634 eV

  energy without entropy =      -48.62215030  energy(sigma->0) =      -48.61606766


--------------------------------------------------------------------------------------------------------




--------------------------------------- Iteration      1(  27)  ---------------------------------------


    POTLOK:  cpu time    1.1378: real time    1.1413
    SETDIJ:  cpu time    0.0189: real time    0.0189
    EDDIAG:  cpu time    1.0893: real time    1.0899
  RMM-DIIS:  cpu time    4.7429: real time    4.7666
    ORTHCH:  cpu time    0.0507: real time    0.0507
       DOS:  cpu time    0.0004: real time    0.0004
    CHARGE:  cpu time    0.6739: real time    0.6743
    MIXING:  cpu time    0.0517: real time    0.0517
    --------------------------------------------
      LOOP:  cpu time    7.7656: real time    7.7936

 eigenvalue-minimisations  :   272
 total energy-change (2. order) :-0.1261786E-04  (-0.1166153E-06)
 number of electron     153.0000002 magnetization       1.0000000
 augmentation part       92.3434389 magnetization       0.1113718

 Broyden mixing:
  rms(total) = 0.45901E-04    rms(broyden)= 0.45899E-04
  rms(prec ) = 0.69134E-04
  weight for this iteration     100.00

 eigenvalues of (default mixing * dielectric matrix)
  average eigenvalue GAMMA=   1.6777
  8.1849  5.8112  3.4368  2.5436  2.3698  1.7129  1.7129  1.3194  1.3194  0.9243
  0.9243  0.7650  0.7650  0.7206  0.7206  0.6344  0.4482  0.5735  0.4649  0.5361
  0.5112  0.5112

 Free energy of the ion-electron system (eV)
  ---------------------------------------------------
  alpha Z        PSCENC =        41.16232785
  Ewald energy   TEWEN  =     16689.15598578
  -Hartree energ DENC   =    -33659.02462133
  -exchange      EXHF   =         0.00000000
  -V(xc)+E(xc)   XCENC  =       616.11444328
  PAW double counting   =     17789.82963082   -19190.45083161
  entropy T*S    EENTRO =         0.00912397
  eigenvalues    EBANDS =      -997.62834483
  atomic energy  EATOM  =     18662.21924712
  Solvation  Ediel_sol  =         0.00000000
  ---------------------------------------------------
  free energy    TOTEN  =       -48.61303896 eV

  energy without entropy =      -48.62216293  energy(sigma->0) =      -48.61608028


--------------------------------------------------------------------------------------------------------




--------------------------------------- Iteration      1(  28)  ---------------------------------------


    POTLOK:  cpu time    1.1269: real time    1.1390
    SETDIJ:  cpu time    0.0190: real time    0.0190
    EDDIAG:  cpu time    1.0881: real time    1.0892
  RMM-DIIS:  cpu time    4.5386: real time    4.5421
    ORTHCH:  cpu time    0.0501: real time    0.0501
       DOS:  cpu time    0.0004: real time    0.0004
    CHARGE:  cpu time    0.6741: real time    0.6744
    MIXING:  cpu time    0.0552: real time    0.0552
[...]
     66      -4.9096      1.00000
     67      -4.8851      1.00000
     68      -4.8824      1.00000
     69      -4.8507      1.00000
     70      -4.8268      1.00000
     71      -4.7851      1.00000
     72      -4.7774      1.00000
     73      -4.7239      1.00000
     74      -4.4875      1.00000
     75      -4.1450      1.00000
     76      -4.1432      1.00000
     77      -3.6662      1.00000
     78      -2.9215     -0.00000
     79      -2.7804     -0.00000
     80      -2.5021     -0.00000
     81      -2.2521     -0.00000
     82      -1.9282     -0.00000
     83      -1.8494     -0.00000
     84      -1.6657     -0.00000
     85      -1.4507     -0.00000
     86      -1.1462     -0.00000
     87      -0.8070      0.00000
     88      -0.5913      0.00000
     89      -0.3841      0.00000
     90      -0.2954      0.00000
     91      -0.0835      0.00000
     92       0.2900      0.00000

 spin component 2

 k-point     1 :       0.0000    0.0000    0.0000
  band No.  band energies     occupation 
      1     -28.8046      1.00000
      2     -13.8565      1.00000
      3     -11.5243      1.00000
      4     -11.3687      1.00000
      5     -11.0683      1.00000
      6     -10.2948      1.00000
      7      -8.7317      1.00000
      8      -8.2814      1.00000
      9      -7.8114      1.00000
     10      -7.6242      1.00000
     11      -7.5667      1.00000
     12      -7.4356      1.00000
     13      -7.3416      1.00000
     14      -7.2638      1.00000
     15      -7.1436      1.00000
     16      -7.0890      1.00000
     17      -6.8870      1.00000
     18      -6.8551      1.00000
     19      -6.7011      1.00000
     20      -6.6813      1.00000
     21      -6.6400      1.00000
     22      -6.6071      1.00000
     23      -6.5889      1.00000
     24      -6.5468      1.00000
     25      -6.4260      1.00000
     26      -6.3860      1.00000
     27      -6.3545      1.00000
     28      -6.2991      1.00000
     29      -6.2772      1.00000
     30      -6.2332      1.00000
     31      -6.2071      1.00000
     32      -6.1521      1.00000
     33      -6.0685      1.00000
     34      -6.0406      1.00000
     35      -5.9396      1.00000
     36      -5.8461      1.00000
     37      -5.8068      1.00000
     38      -5.7317      1.00000
     39      -5.7065      1.00000
     40      -5.6578      1.00000
     41      -5.5883      1.00000
     42      -5.5388      1.00000
     43      -5.5292      1.00000
     44      -5.4773      1.00000
     45      -5.4645      1.00000
     46      -5.4381      1.00000
     47      -5.3950      1.00000
     48      -5.3525      1.00000
     49      -5.3185      1.00000
     50      -5.3064      1.00000
     51      -5.2943      1.00000
     52      -5.2574      1.00000
     53      -5.2257      1.00000
     54      -5.2150      1.00000
     55      -5.1989      1.00000
     56      -5.1627      1.00000
     57      -5.1211      1.00000
     58      -5.1130      1.00000
     59      -5.0606      1.00000
     60      -5.0253      1.00000
     61      -5.0072      1.00000
     62      -4.9900      1.00000
     63      -4.9882      1.00000
     64      -4.9665      1.00000
     65      -4.9160      1.00000
     66      -4.8839      1.00000
     67      -4.8562      1.00000
     68      -4.8416      1.00000
     69      -4.8211      1.00000
     70      -4.7941      1.00000
     71      -4.7533      1.00000
     72      -4.7489      1.00000
     73      -4.6923      1.00000
     74      -4.4489      1.00000
     75      -4.1067      1.02953
     76      -4.0750      0.97047
     77      -3.4651     -0.00000
     78      -2.8723     -0.00000
     79      -2.7320     -0.00000
     80      -2.4193     -0.00000
     81      -2.1547     -0.00000
     82      -1.9018     -0.00000
     83      -1.7649     -0.00000
     84      -1.6090     -0.00000
     85      -1.3447     -0.00000
     86      -0.9882      0.00000
     87      -0.7632      0.00000
     88      -0.5302      0.00000
     89      -0.2856      0.00000
     90      -0.2486      0.00000
     91      -0.0274      0.00000
     92       0.2907      0.00000


--------------------------------------------------------------------------------------------------------


 soft charge-density along one line, spin component           1
         0         1         2         3         4         5         6         7         8         9
 total charge-density along one line
 
 soft charge-density along one line, spin component           2
         0         1         2         3         4         5         6         7         8         9
 total charge-density along one line
 
 pseudopotential strength for first ion, spin component:           1
-10.467   0.001  -0.010  -0.005  -0.014   0.979  -0.000   0.010
  0.001 -10.423  -0.007   0.001   0.010  -0.000   0.945   0.005
 -0.010  -0.007 -10.409   0.002  -0.002   0.010   0.005   0.933
 -0.005   0.001   0.002 -10.422  -0.004   0.004  -0.003  -0.001
 -0.014   0.010  -0.002  -0.004 -10.448   0.010  -0.008   0.003
  0.979  -0.000   0.010   0.004   0.010   6.323   0.000  -0.009
 -0.000   0.945   0.005  -0.003  -0.008   0.000   6.344  -0.004
  0.010   0.005   0.933  -0.001   0.003  -0.009  -0.004   6.354
  0.004  -0.003  -0.001   0.943   0.003  -0.002   0.004   0.001
  0.010  -0.008   0.003   0.003   0.964  -0.007   0.005  -0.004
 -0.006   0.002  -0.007   0.000  -0.003   0.005  -0.000   0.000
 -0.011   0.004  -0.013   0.000  -0.005   0.010  -0.001   0.000
 -0.015   0.001   0.006  -0.000   0.011   0.010   0.000  -0.004
 -0.000  -0.009   0.000  -0.015  -0.000   0.000   0.005   0.000
 -0.008  -0.000   0.009   0.001  -0.015   0.003   0.000  -0.006
 -0.016   0.001   0.006  -0.000   0.013   0.009   0.001  -0.004
 -0.000  -0.010   0.001  -0.015  -0.000   0.001   0.005   0.000
 -0.008  -0.000   0.010   0.001  -0.016   0.002   0.001  -0.007
 pseudopotential strength for first ion, spin component:           2
-10.414  -0.005  -0.004  -0.011   0.005   0.937   0.003   0.003
 -0.005 -10.404  -0.008   0.001   0.007   0.003   0.928   0.006
 -0.004  -0.008 -10.392   0.001   0.001   0.003   0.006   0.919
 -0.011   0.001   0.001 -10.404  -0.006   0.008  -0.001  -0.001
  0.005   0.007   0.001  -0.006 -10.424  -0.004  -0.005  -0.000
  0.937   0.003   0.003   0.008  -0.004   6.350  -0.002  -0.002
  0.003   0.928   0.006  -0.001  -0.005  -0.002   6.354  -0.004
  0.003   0.006   0.919  -0.001  -0.000  -0.002  -0.004   6.361
  0.008  -0.001  -0.001   0.928   0.005  -0.005   0.001   0.001
 -0.004  -0.005  -0.000   0.005   0.944   0.002   0.003  -0.000
 -0.001   0.002  -0.004   0.001  -0.000   0.000   0.000  -0.001
 -0.003   0.004  -0.006   0.001  -0.001   0.001   0.001  -0.002
 -0.017   0.001   0.007   0.000   0.011   0.013  -0.000  -0.005
  0.000  -0.010   0.001  -0.016   0.000  -0.000   0.007  -0.001
 -0.011   0.000   0.010   0.001  -0.017   0.008  -0.000  -0.008
 -0.019   0.001   0.008   0.001   0.012   0.014  -0.001  -0.006
  0.001  -0.012   0.001  -0.018   0.000  -0.000   0.008  -0.001
 -0.013   0.001   0.011   0.002  -0.019   0.008  -0.000  -0.010
 total augmentation occupancy for first ion, spin component:           1
  1.929   0.003  -0.007   0.001  -0.008  -0.012   0.000   0.007   0.002   0.004  -0.024   0.013   0.039   0.003   0.030  -0.023
  0.003   1.934  -0.005   0.003   0.001   0.000  -0.022   0.003   0.001  -0.002   0.002  -0.002   0.005   0.037   0.001  -0.000
 -0.007  -0.005   1.952   0.003  -0.004   0.007   0.003  -0.027  -0.003   0.002  -0.002   0.010  -0.009  -0.002  -0.024   0.007
  0.001   0.003   0.003   1.939  -0.004   0.002   0.001  -0.003  -0.023   0.003   0.010   0.000   0.007   0.059   0.004  -0.000
 -0.008   0.001  -0.004  -0.004   1.939   0.004  -0.002   0.002   0.003  -0.015  -0.012   0.006  -0.010   0.005   0.040   0.014
 -0.012   0.000   0.007   0.002   0.004   0.012   0.000   0.001   0.001   0.000  -0.019  -0.001   0.021   0.002   0.006  -0.001
  0.000  -0.022   0.003   0.001  -0.002   0.000   0.006  -0.000   0.001  -0.001   0.015  -0.001   0.002   0.010   0.002  -0.000
  0.007   0.003  -0.027  -0.003   0.002   0.001  -0.000   0.006  -0.000   0.000  -0.043   0.005  -0.005  -0.001  -0.010   0.001
  0.002   0.001  -0.003  -0.023   0.003   0.001   0.001  -0.000   0.008  -0.000   0.001   0.000   0.001   0.017   0.000  -0.000
  0.004  -0.002   0.002   0.003  -0.015   0.000  -0.001   0.000  -0.000   0.012  -0.005  -0.001  -0.020  -0.002   0.023   0.001
 -0.024   0.002  -0.002   0.010  -0.012  -0.019   0.015  -0.043   0.001  -0.005   1.579  -0.107   0.107   0.008   0.195  -0.016
  0.013  -0.002   0.010   0.000   0.006  -0.001  -0.001   0.005   0.000  -0.001  -0.107   0.013  -0.016   0.000  -0.027   0.002
  0.039   0.005  -0.009   0.007  -0.010   0.021   0.002  -0.005   0.001  -0.020   0.107  -0.016   0.160   0.009  -0.033  -0.010
  0.003   0.037  -0.002   0.059   0.005   0.002   0.010  -0.001   0.017  -0.002   0.008   0.000   0.009   0.068  -0.003  -0.001
  0.030   0.001  -0.024   0.004   0.040   0.006   0.002  -0.010   0.000   0.023   0.195  -0.027  -0.033  -0.003   0.132   0.000
 -0.023  -0.000   0.007  -0.000   0.014  -0.001  -0.000   0.001  -0.000   0.001  -0.016   0.002  -0.010  -0.001   0.000   0.001
 -0.000  -0.014   0.000  -0.024   0.000  -0.000  -0.000   0.000  -0.001   0.000  -0.000  -0.000  -0.001  -0.005   0.000   0.000
 -0.014  -0.000   0.012   0.000  -0.023  -0.000  -0.000   0.001   0.000  -0.001  -0.027   0.003   0.000   0.000  -0.010   0.000
 total augmentation occupancy for first ion, spin component:           2
  0.022  -0.004   0.001  -0.004   0.011  -0.004   0.001  -0.002   0.001  -0.003   0.042   0.007  -0.012   0.005  -0.018  -0.001
 -0.004   0.001  -0.001   0.002  -0.002   0.001   0.001   0.000   0.001   0.001  -0.007  -0.001   0.003  -0.003   0.003   0.000
  0.001  -0.001   0.001  -0.001   0.001  -0.002   0.000   0.002   0.000  -0.001   0.005  -0.000   0.000   0.002   0.000   0.000
 -0.004   0.002  -0.001   0.003  -0.002   0.001   0.001   0.000   0.002   0.000  -0.008  -0.002   0.002  -0.005   0.004   0.000
  0.011  -0.002   0.001  -0.002   0.005  -0.003   0.001  -0.001   0.000   0.001   0.020   0.003  -0.002   0.002  -0.011  -0.000
 -0.004   0.001  -0.002   0.001  -0.003   0.001  -0.000   0.000  -0.000   0.001  -0.009  -0.001   0.002  -0.001   0.004   0.000
  0.001   0.001   0.000   0.001   0.001  -0.000  -0.000  -0.000  -0.000  -0.000   0.001   0.000  -0.000   0.000  -0.001  -0.000
 -0.002   0.000   0.002   0.000  -0.001   0.000  -0.000  -0.000  -0.000   0.000  -0.002  -0.000   0.000  -0.000   0.001   0.000
  0.001   0.001   0.000   0.002   0.000  -0.000  -0.000  -0.000  -0.000  -0.000   0.001   0.000  -0.000   0.000  -0.001  -0.000
 -0.003   0.001  -0.001   0.000   0.001   0.001  -0.000   0.000  -0.000   0.000  -0.004  -0.000   0.001  -0.001   0.001   0.000
  0.042  -0.007   0.005  -0.008   0.020  -0.009   0.001  -0.002   0.001  -0.004   0.087   0.005  -0.020   0.012  -0.035  -0.000
  0.007  -0.001  -0.000  -0.002   0.003  -0.001   0.000  -0.000   0.000  -0.000   0.005   0.000  -0.001   0.001  -0.002  -0.000
 -0.012   0.003   0.000   0.002  -0.002   0.002  -0.000   0.000  -0.000   0.001  -0.020  -0.001   0.004  -0.002   0.004   0.000
  0.005  -0.003   0.002  -0.005   0.002  -0.001   0.000  -0.000   0.000  -0.001   0.012   0.001  -0.002   0.001  -0.003  -0.000
 -0.018   0.003   0.000   0.004  -0.011   0.004  -0.001   0.001  -0.001   0.001  -0.035  -0.002   0.004  -0.003   0.010   0.000
 -0.001   0.000   0.000   0.000  -0.000   0.000  -0.000   0.000  -0.000   0.000  -0.000  -0.000   0.000  -0.000   0.000   0.000
  0.000  -0.001   0.000  -0.001   0.000   0.000  -0.000  -0.000  -0.000  -0.000  -0.000   0.000  -0.000   0.000  -0.000  -0.000
 -0.001   0.000   0.001   0.000  -0.001   0.000  -0.000   0.000  -0.000   0.000  -0.000  -0.000   0.000  -0.000   0.000   0.000


------------------------ aborting loop because EDIFF is reached ----------------------------------------


    CHARGE:  cpu time    0.6730: real time    0.6734
    FORLOC:  cpu time    0.0649: real time    0.0649
    FORNL :  cpu time    1.5372: real time    1.5378
    STRESS:  cpu time    5.8228: real time    5.8262
    FORCOR:  cpu time    1.1464: real time    1.1484
    FORHAR:  cpu time    0.1838: real time    0.1840
    MIXING:  cpu time    0.1122: real time    0.1122
    OFIELD:  cpu time    0.0000: real time    0.0000

  FORCE on cell =-STRESS in cart. coord.  units (eV):
  Direction    XX          YY          ZZ          XY          YZ          ZX
  --------------------------------------------------------------------------------------
  Alpha Z    41.16233    41.16233    41.16233
  Ewald   10534.60209  7684.92611 -1530.38799  -616.57881   423.14871    33.26362
  Hartree 15629.74865 13144.88388  4884.39086  -560.22088   361.05290   -27.31310
  E(xc)    -876.94130  -878.37462  -880.11420     0.03503     0.08563     0.34913
  Local  -27561.83878-22263.96251 -4794.45420  1182.33025  -781.05830     4.04110
  n-local  -324.53509  -317.21138  -322.44608    -3.83622     0.43906    -0.41614
  augment  1222.25400  1226.70872  1232.64621     0.52163    -0.87256    -2.09730
  Kinetic  1340.01115  1365.24132  1372.08347    -3.63686    -1.57809    -6.37765
  Fock        0.00000     0.00000     0.00000     0.00000     0.00000     0.00000
  -------------------------------------------------------------------------------------
  Total       4.46305     3.37386     2.88039    -1.38586     1.21734     1.44966
  in kB       2.11870     1.60163     1.36738    -0.65789     0.57790     0.68818
  external pressure =        1.70 kB  Pullay stress =        0.00 kB


 VOLUME and BASIS-vectors are now :
 -----------------------------------------------------------------------------
  energy-cutoff  :      600.00
  volume of cell :     3375.00
      direct lattice vectors                 reciprocal lattice vectors
    15.000000000  0.000000000  0.000000000     0.066666667  0.000000000  0.000000000
     0.000000000 15.000000000  0.000000000     0.000000000  0.066666667  0.000000000
     0.000000000  0.000000000 15.000000000     0.000000000  0.000000000  0.066666667

  length of vectors
    15.000000000 15.000000000 15.000000000     0.066666667  0.066666667  0.066666667


 FORCES acting on ions
    electron-ion (+dipol)            ewald-force                    non-local-force                 convergence-correction
 -----------------------------------------------------------------------------------------------
   0.112E+04 0.700E+03 -.615E+02   -.112E+04 -.696E+03 0.616E+02   -.566E+01 -.311E+01 -.268E+00   -.169E-05 0.122E-04 -.255E-05
   0.511E+03 -.345E+03 0.887E+03   -.509E+03 0.344E+03 -.888E+03   -.154E+01 0.171E+01 0.121E+00   -.558E-05 -.108E-04 -.763E-05
   0.279E+03 0.134E+04 -.143E+03   -.277E+03 -.133E+04 0.141E+03   -.182E+01 -.894E+01 0.141E+01   -.327E-05 -.221E-06 -.130E-05
   -.869E+03 -.148E+03 0.892E+03   0.868E+03 0.147E+03 -.888E+03   0.108E+01 0.711E+00 -.418E+01   0.109E-05 0.493E-05 0.103E-04
   -.901E+03 0.100E+04 0.209E+03   0.896E+03 -.995E+03 -.208E+03   0.590E+01 -.542E+01 -.739E+00   -.716E-06 0.133E-04 0.820E-05
   -.166E+03 0.559E+03 -.946E+03   0.165E+03 -.557E+03 0.946E+03   0.230E+01 -.217E+01 0.475E+00   0.458E-06 0.886E-05 0.615E-05
   0.229E+03 0.586E+03 0.127E+04   -.228E+03 -.582E+03 -.127E+04   -.188E+01 -.382E+01 -.583E+01   -.196E-05 0.153E-04 0.112E-04
   0.126E+04 -.370E+03 0.102E+03   -.125E+04 0.368E+03 -.999E+02   -.907E+01 0.296E+01 -.260E+01   -.159E-04 -.116E-04 0.326E-05
   0.574E+03 -.212E+03 -.127E+04   -.571E+03 0.211E+03 0.126E+04   -.322E+01 0.785E+00 0.644E+01   -.116E-05 -.349E-05 -.133E-04
   0.432E+03 -.127E+04 -.164E+03   -.429E+03 0.127E+04 0.163E+03   -.275E+01 0.769E+01 0.200E+01   -.378E-05 0.910E-06 0.272E-05
   -.454E+03 -.105E+04 0.754E+03   0.450E+03 0.104E+04 -.747E+03   0.391E+01 0.642E+01 -.659E+01   0.297E-05 -.113E-04 0.417E-05
   -.865E+03 0.620E+01 -.363E+03   0.864E+03 -.563E+01 0.360E+03   0.103E+01 -.105E+01 0.250E+01   -.170E-04 -.126E-04 -.349E-05
   -.571E+03 -.763E+03 -.867E+03   0.569E+03 0.759E+03 0.865E+03   0.223E+01 0.442E+01 0.262E+01   0.879E-06 -.244E-04 -.180E-05
   -.108E+03 0.377E+02 -.132E+03   0.870E+02 -.422E+02 0.128E+03   0.194E+02 0.431E+01 0.295E+01   -.478E-05 -.102E-06 -.686E-05
   -.423E+03 -.622E+02 -.162E+03   0.484E+03 0.749E+02 0.173E+03   -.588E+02 -.124E+02 -.107E+02   0.112E-04 0.217E-06 -.575E-05
 -----------------------------------------------------------------------------------------------
   0.488E+02 0.793E+01 0.124E+02   -.341E-12 -.739E-12 -.313E-12   -.488E+02 -.793E+01 -.124E+02   -.393E-04 -.188E-04 0.324E-05
 
 
 POSITION                                       TOTAL-FORCE (eV/Angst)
 -----------------------------------------------------------------------------------
      4.24737      6.14774      8.43383         0.264910      0.367569     -0.229034
      5.60712      8.21344      7.49157        -0.180844     -0.025739     -0.696123
      5.97510      4.39852      8.32822        -0.319382     -0.872276      0.118412
      8.01669      7.60239      7.25368         0.129003      0.207876     -0.290782
      8.19376      5.25341      7.82831         0.718286     -0.074193      0.163217
      6.59135      6.47003      9.11245         0.918262     -0.016087      0.304246
      6.28324      6.08226      6.73968        -0.599713     -0.205709     -0.551287
      3.37550      8.50950      8.34908        -0.231451      0.158597     -0.227071
      5.10349      8.07614      9.78986        -0.422285      0.475229      0.811790
      5.33672     10.28640      8.52273        -0.117923     -0.059049      0.247330
      7.29717      9.92868      7.05017        -0.091978     -0.040706      0.278280
      9.45409      7.43696      9.07630        -0.625358     -0.468479      0.000298
      7.30406      8.79634      9.22102         0.274089      0.429086     -0.006119
     11.06030      7.49757      9.89582        -1.685277     -0.180414     -0.405911
     12.15670      7.72561     10.09920         1.969661      0.304295      0.482753
 -----------------------------------------------------------------------------------
    total drift:                               -0.000818     -0.002000     -0.000920


--------------------------------------------------------------------------------------------------------



  FREE ENERGIE OF THE ION-ELECTRON SYSTEM (eV)
  ---------------------------------------------------
  free  energy   TOTEN  =       -48.61304874 eV

  energy  without entropy=      -48.62217267  energy(sigma->0) =      -48.61609005
 


--------------------------------------------------------------------------------------------------------


    POTLOK:  cpu time    1.1590: real time    1.1596


--------------------------------------------------------------------------------------------------------


     LOOP+:  cpu time  350.7326: real time  351.1884
    4ORBIT:  cpu time    0.0000: real time    0.0000

 total amount of memory used by VASP MPI-rank0   158680. kBytes
=======================================================================

   base      :      30000. kBytes
   nonl-proj :      12601. kBytes
   fftplans  :      27994. kBytes
   grid      :      74150. kBytes
   one-center:         93. kBytes
   wavefun   :      13842. kBytes
 
  
  
 General timing and accounting informations for this job:
 ========================================================
  
                  Total CPU time used (sec):      354.689
                            User time (sec):      342.710
                          System time (sec):       11.979
                         Elapsed time (sec):      355.183
  
                   Maximum memory used (kb):      279780.
                   Average memory used (kb):           0.
  
                          Minor page faults:       297361
                          Major page faults:            0
                 Voluntary context switches:          702
