<?xml version="1.0" encoding="ISO-8859-1"?>
<modeling>
 <generator>
  <i name="program" type="string">vasp </i>
  <i name="version" type="string">5.4.4.18Apr17-6-g9f103f2a35  </i>
  <i name="subversion" type="string">(build May 08 2019 13:49:07) complex            parallel </i>
  <i name="platform" type="string">LinuxIFC </i>
  <i name="date" type="string">2019 11 13 </i>
  <i name="time" type="string">12:43:51 </i>
 </generator>
 <incar>
  <i type="string" name="SYSTEM"> CuCO</i>
  <i type="int" name="ISTART">     0</i>
  <i type="string" name="PREC">accurate</i>
  <i type="string" name="ALGO"> Fast</i>
  <i type="int" name="ISPIN">     2</i>
  <i type="int" name="INIWAV">     1</i>
  <i type="int" name="NELM">   300</i>
  <i type="int" name="NELMIN">     3</i>
  <i type="int" name="IBRION">    -1</i>
  <i name="EDIFF">      0.00000010</i>
  <i name="EDIFFG">     -0.00100000</i>
  <i type="int" name="NSW">     0</i>
  <i type="int" name="ISYM">     0</i>
  <i name="ENCUT">    600.00000000</i>
  <i name="NUPDOWN">      1.00000000</i>
  <i type="logical" name="LREAL"> F  </i>
  <i type="int" name="ISMEAR">     1</i>
  <i name="SIGMA">      0.10000000</i>
  <i name="KSPACING">      0.50000000</i>
  <i type="logical" name="KGAMMA"> F  </i>
  <i type="logical" name="LWAVE"> F  </i>
  <i type="logical" name="LCHARG"> F  </i>
  <v type="int" name="KPOINT_BSE">    -1     0     0     0</v>
  <i type="int" name="NELM">   300</i>
  <i type="string" name="GGA"> PE</i>
 </incar>
 <structure name="primitive_cell" >
  <crystal>
   <varray name="basis" >
    <v>      15.00000000       0.00000000       0.00000000 </v>
    <v>       0.00000000      15.00000000       0.00000000 </v>
    <v>       0.00000000       0.00000000      15.00000000 </v>
   </varray>
   <i name="volume">   3375.00000000 </i>
   <varray name="rec_basis" >
    <v>       0.06666667       0.00000000       0.00000000 </v>
    <v>       0.00000000       0.06666667       0.00000000 </v>
    <v>       0.00000000       0.00000000       0.06666667 </v>
   </varray>
  </crystal>
  <varray name="positions" >
   <v>       0.28315800       0.40984933      -0.43774467 </v>
   <v>       0.39834000       0.29323467      -0.44478533 </v>
   <v>       0.43942333       0.43133533      -0.39250333 </v>
   <v>       0.34023267      -0.46159067      -0.34734267 </v>
   <v>       0.22503333      -0.43270000      -0.44339467 </v>
   <v>       0.37380800      -0.45243733       0.49943800 </v>
   <v>       0.41888267       0.40548400       0.44931200 </v>
   <v>      -0.45374933       0.35022733      -0.47811267 </v>
   <v>       0.48693733      -0.41357733      -0.38526533 </v>
   <v>      -0.46555400      -0.49317400       0.48357867 </v>
   <v>       0.35578133      -0.31424000      -0.43181800 </v>
   <v>       0.48647800      -0.33808800       0.47001133 </v>
   <v>      -0.36972733       0.49579733      -0.39491333 </v>
   <v>      -0.26264667       0.49983800      -0.34027867 </v>
   <v>      -0.18955333      -0.48495933      -0.32672000 </v>
  </varray>
 </structure>
 <varray name="primitive_index" >
  <v type="int" >        1 </v>
  <v type="int" >        3 </v>
  <v type="int" >        6 </v>
  <v type="int" >        9 </v>
  <v type="int" >        8 </v>
  <v type="int" >        2 </v>
  <v type="int" >        7 </v>
  <v type="int" >        5 </v>
  <v type="int" >       13 </v>
  <v type="int" >        4 </v>
  <v type="int" >       10 </v>
  <v type="int" >       11 </v>
  <v type="int" >       12 </v>
  <v type="int" >       14 </v>
  <v type="int" >       15 </v>
 </varray>
 <kpoints>
  <generation param="Monkhorst-Pack">
   <v type="int" name="divisions">       1        1        1 </v>
   <v name="usershift">      0.00000000       0.00000000       0.00000000 </v>
   <v name="genvec1">      1.00000000       0.00000000       0.00000000 </v>
   <v name="genvec2">      0.00000000       1.00000000       0.00000000 </v>
   <v name="genvec3">      0.00000000       0.00000000       1.00000000 </v>
   <v name="shift">      0.00000000       0.00000000       0.00000000 </v>
  </generation>
  <varray name="kpointlist" >
   <v>       0.00000000       0.00000000       0.00000000 </v>
  </varray>
  <varray name="weights" >
   <v>       1.00000000 </v>
  </varray>
 </kpoints>
 <parameters>
  <separator name="general" >
   <i type="string" name="SYSTEM">CuCO</i>
   <i type="logical" name="LCOMPAT"> F  </i>
  </separator>
  <separator name="electronic" >
   <i type="string" name="PREC">accura</i>
   <i name="ENMAX">    600.00000000</i>
   <i name="ENAUG">    644.87300000</i>
   <i name="EDIFF">      0.00000010</i>
   <i type="int" name="IALGO">    68</i>
   <i type="int" name="IWAVPR">    10</i>
   <i type="int" name="NBANDS">    92</i>
   <i name="NELECT">    153.00000000</i>
   <i type="int" name="TURBO">     0</i>
   <i type="int" name="IRESTART">     0</i>
   <i type="int" name="NREBOOT">     0</i>
   <i type="int" name="NMIN">     0</i>
   <i name="EREF">      0.00000000</i>
   <separator name="electronic smearing" >
    <i type="int" name="ISMEAR">     1</i>
    <i name="SIGMA">      0.10000000</i>
    <i name="KSPACING">      0.50000000</i>
    <i type="logical" name="KGAMMA"> F  </i>
   </separator>
   <separator name="electronic projectors" >
    <i type="logical" name="LREAL"> F  </i>
    <v name="ROPT">      0.00000000      0.00000000      0.00000000</v>
    <i type="int" name="LMAXPAW">  -100</i>
    <i type="int" name="LMAXMIX">     2</i>
    <i type="logical" name="NLSPLINE"> F  </i>
   </separator>
   <separator name="electronic startup" >
    <i type="int" name="ISTART">     0</i>
    <i type="int" name="ICHARG">     2</i>
    <i type="int" name="INIWAV">     1</i>
   </separator>
   <separator name="electronic spin" >
    <i type="int" name="ISPIN">     2</i>
    <i type="logical" name="LNONCOLLINEAR"> F  </i>
    <v name="MAGMOM">      0.06666667      0.06666667      0.06666667      0.06666667      0.06666667      0.06666667      0.06666667      0.06666667      0.06666667      0.06666667      0.06666667      0.06666667      0.06666667      0.06666667      0.06666667</v>
    <i name="NUPDOWN">      1.00000000</i>
    <i type="logical" name="LSORBIT"> F  </i>
    <v name="SAXIS">      0.00000000      0.00000000      1.00000000</v>
    <i type="logical" name="LSPIRAL"> F  </i>
    <v name="QSPIRAL">      0.00000000      0.00000000      0.00000000</v>
    <i type="logical" name="LZEROZ"> F  </i>
   </separator>
   <separator name="electronic exchange-correlation" >
    <i type="logical" name="LASPH"> F  </i>
    <i type="logical" name="LMETAGGA"> F  </i>
   </separator>
   <separator name="electronic convergence" >
    <i type="int" name="NELM">   300</i>
    <i type="int" name="NELMDL">    -5</i>
    <i type="int" name="NELMIN">     3</i>
    <i name="ENINI">    600.00000000</i>
    <separator name="electronic convergence detail" >
     <i type="logical" name="LDIAG"> T  </i>
     <i type="logical" name="LSUBROT"> F  </i>
     <i name="WEIMIN">      0.00000000</i>
     <i name="EBREAK">      0.00000000</i>
     <i name="DEPER">      0.30000000</i>
     <i type="int" name="NRMM">     4</i>
     <i name="TIME">      0.40000000</i>
    </separator>
   </separator>
   <separator name="electronic mixer" >
    <i name="AMIX">      0.40000000</i>
    <i name="BMIX">      1.00000000</i>
    <i name="AMIN">      0.10000000</i>
    <i name="AMIX_MAG">      1.60000000</i>
    <i name="BMIX_MAG">      1.00000000</i>
    <separator name="electronic mixer details" >
     <i type="int" name="IMIX">     4</i>
     <i type="logical" name="MIXFIRST"> F  </i>
     <i type="int" name="MAXMIX">   -45</i>
     <i name="WC">    100.00000000</i>
     <i type="int" name="INIMIX">     1</i>
     <i type="int" name="MIXPRE">     1</i>
     <i type="int" name="MREMOVE">     5</i>
    </separator>
   </separator>
   <separator name="electronic dipolcorrection" >
    <i type="logical" name="LDIPOL"> F  </i>
    <i type="logical" name="LMONO"> F  </i>
    <i type="int" name="IDIPOL">     0</i>
    <i name="EPSILON">      1.00000000</i>
    <v name="DIPOL">   -100.00000000   -100.00000000   -100.00000000</v>
    <i name="EFIELD">      0.00000000</i>
   </separator>
  </separator>
  <separator name="grids" >
   <i type="int" name="NGX">   120</i>
   <i type="int" name="NGY">   120</i>
   <i type="int" name="NGZ">   120</i>
   <i type="int" name="NGXF">   240</i>
   <i type="int" name="NGYF">   240</i>
   <i type="int" name="NGZF">   240</i>
   <i type="logical" name="ADDGRID"> F  </i>
  </separator>
  <separator name="ionic" >
   <i type="int" name="NSW">     0</i>
   <i type="int" name="IBRION">    -1</i>
   <i type="int" name="MDALGO">     0</i>
   <i type="int" name="ISIF">     2</i>
   <i name="PSTRESS">      0.00000000</i>
   <i name="EDIFFG">     -0.00100000</i>
   <i type="int" name="NFREE">     0</i>
   <i name="POTIM">      0.50000000</i>
   <i name="SMASS">     -3.00000000</i>
   <i name="SCALEE">      1.00000000</i>
  </separator>
  <separator name="ionic md" >
   <i name="TEBEG">      0.00010000</i>
   <i name="TEEND">      0.00010000</i>
   <i type="int" name="NBLOCK">     1</i>
   <i type="int" name="KBLOCK">     1</i>
   <i type="int" name="NPACO">   256</i>
   <i name="APACO">     16.00000000</i>
  </separator>
  <separator name="symmetry" >
   <i type="int" name="ISYM">     0</i>
   <i name="SYMPREC">      0.00001000</i>
  </separator>
  <separator name="dos" >
   <i type="int" name="LORBIT">     0</i>
   <v name="RWIGS">     -1.00000000     -1.00000000     -1.00000000</v>
   <i type="int" name="NEDOS">   301</i>
   <i name="EMIN">     10.00000000</i>
   <i name="EMAX">    -10.00000000</i>
   <i name="EFERMI">      0.00000000</i>
  </separator>
  <separator name="writing" >
   <i type="int" name="NWRITE">     2</i>
   <i type="logical" name="LWAVE"> F  </i>
   <i type="logical" name="LDOWNSAMPLE"> F  </i>
   <i type="logical" name="LCHARG"> F  </i>
   <i type="logical" name="LPARD"> F  </i>
   <i type="logical" name="LVTOT"> F  </i>
   <i type="logical" name="LVHAR"> F  </i>
   <i type="logical" name="LELF"> F  </i>
   <i type="logical" name="LOPTICS"> F  </i>
   <v name="STM">      0.00000000      0.00000000      0.00000000      0.00000000      0.00000000      0.00000000      0.00000000</v>
  </separator>
  <separator name="performance" >
   <i type="int" name="NPAR">     4</i>
   <i type="int" name="NSIM">     4</i>
   <i type="int" name="NBLK">    -1</i>
   <i type="logical" name="LPLANE"> T  </i>
   <i type="logical" name="LSCALAPACK"> T  </i>
   <i type="logical" name="LSCAAWARE"> F  </i>
   <i type="logical" name="LSCALU"> F  </i>
   <i type="logical" name="LASYNC"> F  </i>
   <i type="logical" name="LORBITALREAL"> F  </i>
  </separator>
  <separator name="miscellaneous" >
   <i type="int" name="IDIOT">     3</i>
   <i type="int" name="ISPECIAL">     0</i>
   <i type="logical" name="LMUSIC"> F  </i>
   <v name="POMASS">     63.54600000     12.01100000     16.00000000</v>
   <v name="DARWINR">      0.00000000      0.00000000      0.00000000</v>
   <v name="DARWINV">      1.00000000      1.00000000      1.00000000</v>
   <i type="logical" name="LCORR"> T  </i>
  </separator>
  <i type="logical" name="GGA_COMPAT"> T  </i>
  <i type="logical" name="LBERRY"> F  </i>
  <i type="int" name="ICORELEVEL">     0</i>
  <i type="logical" name="LDAU"> F  </i>
  <i type="int" name="I_CONSTRAINED_M">     0</i>
  <separator name="electronic exchange-correlation" >
   <i type="string" name="GGA">PE</i>
   <i type="int" name="VOSKOWN">     0</i>
   <i type="logical" name="LHFCALC"> F  </i>
   <i type="string" name="PRECFOCK"></i>
   <i type="logical" name="LSYMGRAD"> F  </i>
   <i type="logical" name="LHFONE"> F  </i>
   <i type="logical" name="LRHFCALC"> F  </i>
   <i type="logical" name="LTHOMAS"> F  </i>
   <i type="logical" name="LMODELHF"> F  </i>
   <i name="ENCUT4O">     -1.00000000</i>
   <i type="int" name="EXXOEP">     0</i>
   <i type="int" name="FOURORBIT">     0</i>
   <i name="AEXX">      0.00000000</i>
   <i name="HFALPHA">      0.00000000</i>
   <i name="MCALPHA">      0.00000000</i>
   <i name="ALDAX">      1.00000000</i>
   <i name="AGGAX">      1.00000000</i>
   <i name="ALDAC">      1.00000000</i>
   <i name="AGGAC">      1.00000000</i>
   <i type="int" name="NKREDX">     1</i>
   <i type="int" name="NKREDY">     1</i>
   <i type="int" name="NKREDZ">     1</i>
   <i type="logical" name="SHIFTRED"> F  </i>
   <i type="logical" name="ODDONLY"> F  </i>
   <i type="logical" name="EVENONLY"> F  </i>
   <i type="int" name="LMAXFOCK">     0</i>
   <i type="int" name="NMAXFOCKAE">     0</i>
   <i type="logical" name="LFOCKAEDFT"> F  </i>
   <i name="HFSCREEN">      0.00000000</i>
   <i name="HFSCREENC">      0.00000000</i>
   <i type="int" name="NBANDSGWLOW">     0</i>
  </separator>
  <separator name="vdW DFT" >
   <i type="logical" name="LUSE_VDW"> F  </i>
   <i name="Zab_VDW">     -0.84910000</i>
   <i name="PARAM1">      0.12340000</i>
   <i name="PARAM2">      1.00000000</i>
   <i name="PARAM3">      0.00000000</i>
  </separator>
  <separator name="model GW" >
   <i type="int" name="MODEL_GW">     0</i>
   <i name="MODEL_EPS0">    135.00000000</i>
   <i name="MODEL_ALPHA">      1.00000000</i>
  </separator>
  <separator name="linear response parameters" >
   <i type="logical" name="LEPSILON"> F  </i>
   <i type="logical" name="LRPA"> F  </i>
   <i type="logical" name="LNABLA"> F  </i>
   <i type="logical" name="LVEL"> F  </i>
   <i type="int" name="KINTER">     0</i>
   <i name="CSHIFT">      0.10000000</i>
   <i name="OMEGAMAX">     -1.00000000</i>
   <i name="DEG_THRESHOLD">      0.00200000</i>
   <i name="RTIME">     -0.10000000</i>
   <i name="WPLASMAI">      0.00000000</i>
   <v name="DFIELD">      0.00000000      0.00000000      0.00000000</v>
   <v name="WPLASMA">      0.00000000      0.00000000      0.00000000      0.00000000      0.00000000      0.00000000      0.00000000      0.00000000      0.00000000</v>
  </separator>
  <separator name="orbital magnetization" >
   <i type="logical" name="NUCIND"> F  </i>
   <v name="MAGPOS">      0.00000000      0.00000000      0.00000000</v>
   <i type="logical" name="LNICSALL"> T  </i>
   <i type="logical" name="ORBITALMAG"> F  </i>
   <i type="logical" name="LMAGBLOCH"> F  </i>
   <i type="logical" name="LCHIMAG"> F  </i>
   <i type="logical" name="LGAUGE"> T  </i>
   <i type="int" name="MAGATOM">     0</i>
   <v name="MAGDIPOL">      0.00000000      0.00000000      0.00000000</v>
   <v name="AVECCONST">      0.00000000      0.00000000      0.00000000</v>
  </separator>
  <separator name="response functions" >
   <i type="logical" name="LADDER"> F  </i>
   <i type="logical" name="LRPAFORCE"> F  </i>
   <i type="logical" name="LFXC"> F  </i>
   <i type="logical" name="LHARTREE"> T  </i>
   <i type="int" name="IBSE">     0</i>
   <v type="int" name="KPOINT">    -1     0     0     0</v>
   <i type="logical" name="LTCTE"> F  </i>
   <i type="logical" name="LTETE"> F  </i>
   <i type="logical" name="LTRIPLET"> F  </i>
   <i type="logical" name="LFXCEPS"> F  </i>
   <i type="logical" name="LFXHEG"> F  </i>
   <i type="int" name="NATURALO">     2</i>
   <i type="logical" name="L2ORDER"> F  </i>
   <i type="logical" name="LMP2LT"> F  </i>
   <i type="logical" name="LUSEW"> F  </i>
   <i name="ENCUTGW">     -2.00000000</i>
   <i name="ENCUTGWSOFT">     -2.00000000</i>
   <i name="ENCUTLF">     -1.00000000</i>
   <i type="int" name="LMAXMP2">    -1</i>
   <i name="SCISSOR">      0.00000000</i>
   <i type="int" name="NOMEGA">     0</i>
   <i type="int" name="NOMEGAR">     0</i>
   <i type="int" name="NBANDSGW">    -1</i>
   <i type="int" name="NBANDSO">    -1</i>
   <i type="int" name="NBANDSV">    -1</i>
   <i type="int" name="NELM">   300</i>
   <i type="int" name="NELMHF">     1</i>
   <i type="int" name="DIM">     3</i>
   <i type="int" name="ANTIRES">     0</i>
   <i name="OMEGAMAX">    -30.00000000</i>
   <i name="OMEGAMIN">    -30.00000000</i>
   <i name="OMEGATL">   -200.00000000</i>
   <i type="int" name="OMEGAGRID">   140</i>
   <i name="CSHIFT">     -0.10000000</i>
   <i type="logical" name="SELFENERGY"> F  </i>
   <i type="logical" name="LSPECTRAL"> F  </i>
   <i type="logical" name="LSPECTRALGW"> F  </i>
   <i type="logical" name="LSINGLES"> F  </i>
   <i type="logical" name="LFERMIGW"> F  </i>
   <i type="logical" name="ODDONLYGW"> F  </i>
   <i type="logical" name="EVENONLYGW"> F  </i>
   <i type="int" name="NKREDLFX">     1</i>
   <i type="int" name="NKREDLFY">     1</i>
   <i type="int" name="NKREDLFZ">     1</i>
   <i type="int" name="MAXMEM">  2800</i>
   <i type="int" name="TELESCOPE">     0</i>
   <i type="int" name="TAUPAR">     1</i>
   <i type="int" name="OMEGAPAR">    -1</i>
   <i name="LAMBDA">      1.00000000</i>
  </separator>
  <separator name="External order field" >
   <i name="OFIELD_KAPPA">      0.00000000</i>
   <v name="OFIELD_K">      0.00000000      0.00000000      0.00000000</v>
   <i name="OFIELD_Q6_NEAR">      0.00000000</i>
   <i name="OFIELD_Q6_FAR">      0.00000000</i>
   <i name="OFIELD_A">      0.00000000</i>
  </separator>
 </parameters>
 <atominfo>
  <atoms>      15 </atoms>
  <types>       3 </types>
  <array name="atoms" >
   <dimension dim="1">ion</dimension>
   <field type="string">element</field>
   <field type="int">atomtype</field>
   <set>
    <rc><c>Cu</c><c>   1</c></rc>
    <rc><c>Cu</c><c>   1</c></rc>
    <rc><c>Cu</c><c>   1</c></rc>
    <rc><c>Cu</c><c>   1</c></rc>
    <rc><c>Cu</c><c>   1</c></rc>
    <rc><c>Cu</c><c>   1</c></rc>
    <rc><c>Cu</c><c>   1</c></rc>
    <rc><c>Cu</c><c>   1</c></rc>
    <rc><c>Cu</c><c>   1</c></rc>
    <rc><c>Cu</c><c>   1</c></rc>
    <rc><c>Cu</c><c>   1</c></rc>
    <rc><c>Cu</c><c>   1</c></rc>
    <rc><c>Cu</c><c>   1</c></rc>
    <rc><c>C </c><c>   2</c></rc>
    <rc><c>O </c><c>   3</c></rc>
   </set>
  </array>
  <array name="atomtypes" >
   <dimension dim="1">type</dimension>
   <field type="int">atomspertype</field>
   <field type="string">element</field>
   <field>mass</field>
   <field>valence</field>
   <field type="string">pseudopotential</field>
   <set>
    <rc><c>  13</c><c>Cu</c><c>     63.54600000</c><c>     11.00000000</c><c>  PAW_PBE Cu 22Jun2005                  </c></rc>
    <rc><c>   1</c><c>C </c><c>     12.01100000</c><c>      4.00000000</c><c>  PAW_PBE C 08Apr2002                   </c></rc>
    <rc><c>   1</c><c>O </c><c>     16.00000000</c><c>      6.00000000</c><c>  PAW_PBE O 08Apr2002                   </c></rc>
   </set>
  </array>
 </atominfo>
 <structure name="initialpos" >
  <crystal>
   <varray name="basis" >
    <v>      15.00000000       0.00000000       0.00000000 </v>
    <v>       0.00000000      15.00000000       0.00000000 </v>
    <v>       0.00000000       0.00000000      15.00000000 </v>
   </varray>
   <i name="volume">   3375.00000000 </i>
   <varray name="rec_basis" >
    <v>       0.06666667       0.00000000       0.00000000 </v>
    <v>       0.00000000       0.06666667       0.00000000 </v>
    <v>       0.00000000       0.00000000       0.06666667 </v>
   </varray>
  </crystal>
  <varray name="positions" >
   <v>       0.28315800       0.40984933       0.56225533 </v>
   <v>       0.37380800       0.54756267       0.49943800 </v>
   <v>       0.39834000       0.29323467       0.55521467 </v>
   <v>       0.53444600       0.50682600       0.48357867 </v>
   <v>       0.54625067       0.35022733       0.52188733 </v>
   <v>       0.43942333       0.43133533       0.60749667 </v>
   <v>       0.41888267       0.40548400       0.44931200 </v>
   <v>       0.22503333       0.56730000       0.55660533 </v>
   <v>       0.34023267       0.53840933       0.65265733 </v>
   <v>       0.35578133       0.68576000       0.56818200 </v>
   <v>       0.48647800       0.66191200       0.47001133 </v>
   <v>       0.63027267       0.49579733       0.60508667 </v>
   <v>       0.48693733       0.58642267       0.61473467 </v>
   <v>       0.73735333       0.49983800       0.65972133 </v>
   <v>       0.81044667       0.51504067       0.67328000 </v>
  </varray>
 </structure>
 <calculation>
  <scstep>
   <time name="dav">    7.47    7.48</time>
   <time name="total">    8.64    8.65</time>
   <energy>
    <i name="alphaZ">     41.16232785 </i>
    <i name="ewald">  16689.15598578 </i>
    <i name="hartreedc"> -33698.33075393 </i>
    <i name="XCdc">    624.21094810 </i>
    <i name="pawpsdc">  16421.75059358 </i>
    <i name="pawaedc"> -17800.06104309 </i>
    <i name="eentropy">      0.00964701 </i>
    <i name="bandstr">    184.48020268 </i>
    <i name="atom">  18662.21924712 </i>
    <i name="e_fr_energy">   1124.59715510 </i>
    <i name="e_wo_entrp">   1124.58750808 </i>
    <i name="e_0_energy">   1124.59393943 </i>
   </energy>
  </scstep>
  <scstep>
   <time name="dav">    7.46    7.47</time>
   <time name="total">    7.46    7.47</time>
   <energy>
    <i name="e_fr_energy">     88.46361938 </i>
    <i name="e_wo_entrp">     88.44838001 </i>
    <i name="e_0_energy">     88.45853959 </i>
   </energy>
  </scstep>
  <scstep>
   <time name="dav">   11.70   11.73</time>
   <time name="total">   11.70   11.73</time>
   <energy>
    <i name="e_fr_energy">    -34.55213839 </i>
    <i name="e_wo_entrp">    -34.56044095 </i>
    <i name="e_0_energy">    -34.55490591 </i>
   </energy>
  </scstep>
  <scstep>
   <time name="dav">   10.10   10.12</time>
   <time name="total">   10.10   10.12</time>
   <energy>
    <i name="e_fr_energy">    -55.78707979 </i>
    <i name="e_wo_entrp">    -55.79640556 </i>
    <i name="e_0_energy">    -55.79018838 </i>
   </energy>
  </scstep>
  <scstep>
   <time name="dav">   12.14   12.16</time>
   <time name="total">   12.82   12.84</time>
   <energy>
    <i name="e_fr_energy">    -57.28506436 </i>
    <i name="e_wo_entrp">    -57.29602241 </i>
    <i name="e_0_energy">    -57.28871704 </i>
   </energy>
  </scstep>
  <scstep>
   <time name="diag">    1.09    1.09</time>
   <time name="diis">    6.92    6.93</time>
   <time name="orth">    0.05    0.05</time>
   <time name="total">    9.87    9.88</time>
   <energy>
    <i name="e_fr_energy">    -56.22816655 </i>
    <i name="e_wo_entrp">    -56.23713731 </i>
    <i name="e_0_energy">    -56.23115680 </i>
   </energy>
  </scstep>
  <scstep>
   <time name="diag">    1.09    1.09</time>
   <time name="diis">    7.26    7.26</time>
   <time name="orth">    0.05    0.05</time>
   <time name="total">   10.24   10.25</time>
   <energy>
    <i name="e_fr_energy">    -48.93793929 </i>
    <i name="e_wo_entrp">    -48.94681833 </i>
    <i name="e_0_energy">    -48.94089897 </i>
   </energy>
  </scstep>
  <scstep>
   <time name="diag">    1.09    1.09</time>
   <time name="diis">    7.73    7.75</time>
   <time name="orth">    0.05    0.05</time>
   <time name="total">   10.70   10.72</time>
   <energy>
    <i name="e_fr_energy">    -48.75436728 </i>
    <i name="e_wo_entrp">    -48.76346963 </i>
    <i name="e_0_energy">    -48.75740139 </i>
   </energy>
  </scstep>
  <scstep>
   <time name="diag">    1.09    1.09</time>
   <time name="diis">    6.92    6.93</time>
   <time name="orth">    0.05    0.05</time>
   <time name="total">    9.93    9.95</time>
   <energy>
    <i name="e_fr_energy">    -48.67944063 </i>
    <i name="e_wo_entrp">    -48.68864425 </i>
    <i name="e_0_energy">    -48.68250851 </i>
   </energy>
  </scstep>
  <scstep>
   <time name="diag">    1.09    1.09</time>
   <time name="diis">    6.92    6.93</time>
   <time name="orth">    0.05    0.05</time>
   <time name="total">    9.93    9.95</time>
   <energy>
    <i name="e_fr_energy">    -48.62091669 </i>
    <i name="e_wo_entrp">    -48.63001068 </i>
    <i name="e_0_energy">    -48.62394802 </i>
   </energy>
  </scstep>
  <scstep>
   <time name="diag">    1.09    1.09</time>
   <time name="diis">    7.84    7.85</time>
   <time name="orth">    0.05    0.05</time>
   <time name="total">   10.86   10.87</time>
   <energy>
    <i name="e_fr_energy">    -48.60785303 </i>
    <i name="e_wo_entrp">    -48.61700022 </i>
    <i name="e_0_energy">    -48.61090209 </i>
   </energy>
  </scstep>
  <scstep>
   <time name="diag">    1.09    1.09</time>
   <time name="diis">    7.06    7.07</time>
   <time name="orth">    0.05    0.05</time>
   <time name="total">   10.08   10.09</time>
   <energy>
    <i name="e_fr_energy">    -48.60525154 </i>
    <i name="e_wo_entrp">    -48.61436359 </i>
    <i name="e_0_energy">    -48.60828889 </i>
   </energy>
  </scstep>
  <scstep>
   <time name="diag">    1.09    1.09</time>
   <time name="diis">    8.19    8.20</time>
   <time name="orth">    0.05    0.05</time>
   <time name="total">   11.21   11.22</time>
   <energy>
    <i name="e_fr_energy">    -48.60422554 </i>
    <i name="e_wo_entrp">    -48.61334903 </i>
    <i name="e_0_energy">    -48.60726670 </i>
   </energy>
  </scstep>
  <scstep>
   <time name="diag">    1.09    1.09</time>
   <time name="diis">    6.58    6.59</time>
   <time name="orth">    0.05    0.05</time>
   <time name="total">    9.60    9.60</time>
   <energy>
    <i name="e_fr_energy">    -48.60526248 </i>
    <i name="e_wo_entrp">    -48.61438049 </i>
    <i name="e_0_energy">    -48.60830182 </i>
   </energy>
  </scstep>
  <scstep>
   <time name="diag">    1.09    1.09</time>
   <time name="diis">    7.21    7.21</time>
   <time name="orth">    0.05    0.05</time>
   <time name="total">   10.23   10.23</time>
   <energy>
    <i name="e_fr_energy">    -48.60645559 </i>
    <i name="e_wo_entrp">    -48.61557496 </i>
    <i name="e_0_energy">    -48.60949538 </i>
   </energy>
  </scstep>
  <scstep>
   <time name="diag">    1.09    1.09</time>
   <time name="diis">    6.82    6.83</time>
   <time name="orth">    0.05    0.05</time>
   <time name="total">    9.83    9.84</time>
   <energy>
    <i name="e_fr_energy">    -48.60815668 </i>
    <i name="e_wo_entrp">    -48.61728088 </i>
    <i name="e_0_energy">    -48.61119808 </i>
   </energy>
  </scstep>
  <scstep>
   <time name="diag">    1.09    1.09</time>
   <time name="diis">    6.82    6.83</time>
   <time name="orth">    0.05    0.05</time>
   <time name="total">    9.83    9.83</time>
   <energy>
    <i name="e_fr_energy">    -48.60973864 </i>
    <i name="e_wo_entrp">    -48.61886151 </i>
    <i name="e_0_energy">    -48.61277960 </i>
   </energy>
  </scstep>
  <scstep>
   <time name="diag">    1.09    1.09</time>
   <time name="diis">    6.67    6.67</time>
   <time name="orth">    0.05    0.05</time>
   <time name="total">    9.67    9.68</time>
   <energy>
    <i name="e_fr_energy">    -48.61072708 </i>
    <i name="e_wo_entrp">    -48.61985480 </i>
    <i name="e_0_energy">    -48.61376966 </i>
   </energy>
  </scstep>
  <scstep>
   <time name="diag">    1.09    1.09</time>
   <time name="diis">    7.10    7.11</time>
   <time name="orth">    0.05    0.05</time>
   <time name="total">   10.11   10.12</time>
   <energy>
    <i name="e_fr_energy">    -48.61143658 </i>
    <i name="e_wo_entrp">    -48.62056095 </i>
    <i name="e_0_energy">    -48.61447803 </i>
   </energy>
  </scstep>
  <scstep>
   <time name="diag">    1.09    1.09</time>
   <time name="diis">    7.55    7.56</time>
   <time name="orth">    0.05    0.05</time>
   <time name="total">   10.56   10.57</time>
   <energy>
    <i name="e_fr_energy">    -48.61205046 </i>
    <i name="e_wo_entrp">    -48.62117352 </i>
    <i name="e_0_energy">    -48.61509148 </i>
   </energy>
  </scstep>
  <scstep>
   <time name="diag">    1.09    1.09</time>
   <time name="diis">    6.84    6.84</time>
   <time name="orth">    0.05    0.05</time>
   <time name="total">    9.84    9.85</time>
   <energy>
    <i name="e_fr_energy">    -48.61244917 </i>
    <i name="e_wo_entrp">    -48.62157327 </i>
    <i name="e_0_energy">    -48.61549054 </i>
   </energy>
  </scstep>
  <scstep>
   <time name="diag">    1.09    1.09</time>
   <time name="diis">    6.64    6.64</time>
   <time name="orth">    0.05    0.05</time>
   <time name="total">    9.65    9.66</time>
   <energy>
    <i name="e_fr_energy">    -48.61271429 </i>
    <i name="e_wo_entrp">    -48.62183818 </i>
    <i name="e_0_energy">    -48.61575558 </i>
   </energy>
  </scstep>
  <scstep>
   <time name="diag">    1.09    1.09</time>
   <time name="diis">    6.95    6.95</time>
   <time name="orth">    0.05    0.05</time>
   <time name="total">    9.96    9.97</time>
   <energy>
    <i name="e_fr_energy">    -48.61284067 </i>
    <i name="e_wo_entrp">    -48.62196484 </i>
    <i name="e_0_energy">    -48.61588206 </i>
   </energy>
  </scstep>
  <scstep>
   <time name="diag">    1.09    1.09</time>
   <time name="diis">    6.72    6.72</time>
   <time name="orth">    0.05    0.05</time>
   <time name="total">    9.74    9.74</time>
   <energy>
    <i name="e_fr_energy">    -48.61292990 </i>
    <i name="e_wo_entrp">    -48.62205395 </i>
    <i name="e_0_energy">    -48.61597125 </i>
   </energy>
  </scstep>
  <scstep>
   <time name="diag">    1.09    1.09</time>
   <time name="diis">    6.43    6.43</time>
   <time name="orth">    0.05    0.05</time>
   <time name="total">    9.44    9.45</time>
   <energy>
    <i name="e_fr_energy">    -48.61300069 </i>
    <i name="e_wo_entrp">    -48.62212472 </i>
    <i name="e_0_energy">    -48.61604203 </i>
   </energy>
  </scstep>
  <scstep>
   <time name="diag">    1.09    1.09</time>
   <time name="diis">    5.60    5.61</time>
   <time name="orth">    0.05    0.05</time>
   <time name="total">    8.62    8.63</time>
   <energy>
    <i name="e_fr_energy">    -48.61302634 </i>
    <i name="e_wo_entrp">    -48.62215030 </i>
    <i name="e_0_energy">    -48.61606766 </i>
   </energy>
  </scstep>
  <scstep>
   <time name="diag">    1.09    1.09</time>
   <time name="diis">    4.74    4.77</time>
   <time name="orth">    0.05    0.05</time>
   <time name="total">    7.77    7.79</time>
   <energy>
    <i name="e_fr_energy">    -48.61303896 </i>
    <i name="e_wo_entrp">    -48.62216293 </i>
    <i name="e_0_energy">    -48.61608028 </i>
   </energy>
  </scstep>
  <scstep>
   <time name="diag">    1.09    1.09</time>
   <time name="diis">    4.54    4.54</time>
   <time name="orth">    0.05    0.05</time>
   <time name="total">    7.55    7.57</time>
   <energy>
    <i name="e_fr_energy">    -48.61304367 </i>
    <i name="e_wo_entrp">    -48.62216762 </i>
    <i name="e_0_energy">    -48.61608499 </i>
   </energy>
  </scstep>
  <scstep>
   <time name="diag">    1.09    1.09</time>
   <time name="diis">    4.95    4.95</time>
   <time name="orth">    0.05    0.05</time>
   <time name="total">    7.98    7.98</time>
   <energy>
    <i name="e_fr_energy">    -48.61304530 </i>
    <i name="e_wo_entrp">    -48.62216923 </i>
    <i name="e_0_energy">    -48.61608661 </i>
   </energy>
  </scstep>
  <scstep>
   <time name="diag">    1.09    1.09</time>
   <time name="diis">    4.84    4.84</time>
   <time name="orth">    0.05    0.05</time>
   <time name="total">    7.87    7.89</time>
   <energy>
    <i name="e_fr_energy">    -48.61304618 </i>
    <i name="e_wo_entrp">    -48.62217010 </i>
    <i name="e_0_energy">    -48.61608748 </i>
   </energy>
  </scstep>
  <scstep>
   <time name="diag">    1.09    1.09</time>
   <time name="diis">    4.36    4.36</time>
   <time name="orth">    0.05    0.05</time>
   <time name="total">    7.40    7.41</time>
   <energy>
    <i name="e_fr_energy">    -48.61304700 </i>
    <i name="e_wo_entrp">    -48.62217094 </i>
    <i name="e_0_energy">    -48.61608832 </i>
   </energy>
  </scstep>
  <scstep>
   <time name="diag">    1.09    1.09</time>
   <time name="diis">    4.56    4.56</time>
   <time name="orth">    0.05    0.05</time>
   <time name="total">    7.61    7.62</time>
   <energy>
    <i name="e_fr_energy">    -48.61304753 </i>
    <i name="e_wo_entrp">    -48.62217147 </i>
    <i name="e_0_energy">    -48.61608885 </i>
   </energy>
  </scstep>
  <scstep>
   <time name="diag">    1.09    1.09</time>
   <time name="diis">    3.95    3.95</time>
   <time name="orth">    0.05    0.05</time>
   <time name="total">    7.00    7.01</time>
   <energy>
    <i name="e_fr_energy">    -48.61304787 </i>
    <i name="e_wo_entrp">    -48.62217180 </i>
    <i name="e_0_energy">    -48.61608918 </i>
   </energy>
  </scstep>
  <scstep>
   <time name="diag">    1.09    1.09</time>
   <time name="diis">    3.91    3.92</time>
   <time name="orth">    0.05    0.05</time>
   <time name="total">    6.98    6.99</time>
   <energy>
    <i name="e_fr_energy">    -48.61304823 </i>
    <i name="e_wo_entrp">    -48.62217216 </i>
    <i name="e_0_energy">    -48.61608954 </i>
   </energy>
  </scstep>
  <scstep>
   <time name="diag">    1.09    1.09</time>
   <time name="diis">    3.69    3.69</time>
   <time name="orth">    0.05    0.05</time>
   <time name="total">    6.76    6.76</time>
   <energy>
    <i name="e_fr_energy">    -48.61304852 </i>
    <i name="e_wo_entrp">    -48.62217244 </i>
    <i name="e_0_energy">    -48.61608983 </i>
   </energy>
  </scstep>
  <scstep>
   <time name="diag">    1.09    1.09</time>
   <time name="diis">    3.55    3.55</time>
   <time name="orth">    0.05    0.05</time>
   <time name="total">    6.63    6.64</time>
   <energy>
    <i name="e_fr_energy">    -48.61304865 </i>
    <i name="e_wo_entrp">    -48.62217258 </i>
    <i name="e_0_energy">    -48.61608996 </i>
   </energy>
  </scstep>
  <scstep>
   <time name="diag">    1.10    1.10</time>
   <time name="diis">    3.54    3.55</time>
   <time name="orth">    0.05    0.05</time>
   <time name="total">    5.85    5.85</time>
   <energy>
    <i name="alphaZ">     41.16232785 </i>
    <i name="ewald">  16689.15598578 </i>
    <i name="hartreedc"> -33659.02361060 </i>
    <i name="XCdc">    616.11430728 </i>
    <i name="pawpsdc">  17789.83591274 </i>
    <i name="pawaedc"> -19190.45713996 </i>
    <i name="eentropy">      0.00912393 </i>
    <i name="bandstr">   -997.62920286 </i>
    <i name="atom">  18662.21924712 </i>
    <i name="e_fr_energy">    -48.61304874 </i>
    <i name="e_wo_entrp">    -48.62217267 </i>
    <i name="e_0_energy">    -48.61609005 </i>
   </energy>
  </scstep>
  <structure>
   <crystal>
    <varray name="basis" >
     <v>      15.00000000       0.00000000       0.00000000 </v>
     <v>       0.00000000      15.00000000       0.00000000 </v>
     <v>       0.00000000       0.00000000      15.00000000 </v>
    </varray>
    <i name="volume">   3375.00000000 </i>
    <varray name="rec_basis" >
     <v>       0.06666667       0.00000000       0.00000000 </v>
     <v>       0.00000000       0.06666667       0.00000000 </v>
     <v>       0.00000000       0.00000000       0.06666667 </v>
    </varray>
   </crystal>
   <varray name="positions" >
    <v>       0.28315800       0.40984933       0.56225533 </v>
    <v>       0.37380800       0.54756267       0.49943800 </v>
    <v>       0.39834000       0.29323467       0.55521467 </v>
    <v>       0.53444600       0.50682600       0.48357867 </v>
    <v>       0.54625067       0.35022733       0.52188733 </v>
    <v>       0.43942333       0.43133533       0.60749667 </v>
    <v>       0.41888267       0.40548400       0.44931200 </v>
    <v>       0.22503333       0.56730000       0.55660533 </v>
    <v>       0.34023267       0.53840933       0.65265733 </v>
    <v>       0.35578133       0.68576000       0.56818200 </v>
    <v>       0.48647800       0.66191200       0.47001133 </v>
    <v>       0.63027267       0.49579733       0.60508667 </v>
    <v>       0.48693733       0.58642267       0.61473467 </v>
    <v>       0.73735333       0.49983800       0.65972133 </v>
    <v>       0.81044667       0.51504067       0.67328000 </v>
   </varray>
  </structure>
  <varray name="forces" >
   <v>       0.26491004       0.36756870      -0.22903419 </v>
   <v>      -0.18084356      -0.02573930      -0.69612274 </v>
   <v>      -0.31938186      -0.87227573       0.11841244 </v>
   <v>       0.12900277       0.20787625      -0.29078160 </v>
   <v>       0.71828558      -0.07419340       0.16321735 </v>
   <v>       0.91826234      -0.01608746       0.30424595 </v>
   <v>      -0.59971264      -0.20570898      -0.55128732 </v>
   <v>      -0.23145121       0.15859711      -0.22707113 </v>
   <v>      -0.42228516       0.47522944       0.81179047 </v>
   <v>      -0.11792286      -0.05904871       0.24732968 </v>
   <v>      -0.09197837      -0.04070593       0.27828014 </v>
   <v>      -0.62535808      -0.46847942       0.00029791 </v>
   <v>       0.27408928       0.42908628      -0.00611872 </v>
   <v>      -1.68527725      -0.18041364      -0.40591073 </v>
   <v>       1.96966097       0.30429480       0.48275251 </v>
  </varray>
  <varray name="stress" >
   <v>       2.11869700      -0.65789258       0.68818273 </v>
   <v>      -0.65789259       1.60163395       0.57789691 </v>
   <v>       0.68818272       0.57789689       1.36737861 </v>
  </varray>
  <energy>
   <i name="e_fr_energy">    -48.61304874 </i>
   <i name="e_wo_entrp">    -48.61609005 </i>
   <i name="e_0_energy">      0.00912393 </i>
  </energy>
  <time name="totalsc">  350.73  351.19</time>
  <eigenvalues>
   <array>
    <dimension dim="1">band</dimension>
    <dimension dim="2">kpoint</dimension>
    <dimension dim="3">spin</dimension>
    <field>eigene</field>
    <field>occ</field>
    <set>
     <set comment="spin 1">
      <set comment="kpoint 1">
       <r>  -28.8290    1.0000 </r>
       <r>  -13.9003    1.0000 </r>
       <r>  -11.5678    1.0000 </r>
       <r>  -11.3844    1.0000 </r>
       <r>  -11.1422    1.0000 </r>
       <r>  -10.3395    1.0000 </r>
       <r>   -8.7511    1.0000 </r>
       <r>   -8.3273    1.0000 </r>
       <r>   -7.8566    1.0000 </r>
       <r>   -7.6497    1.0000 </r>
       <r>   -7.5891    1.0000 </r>
       <r>   -7.4857    1.0000 </r>
       <r>   -7.3759    1.0000 </r>
       <r>   -7.2941    1.0000 </r>
       <r>   -7.1776    1.0000 </r>
       <r>   -7.1287    1.0000 </r>
       <r>   -6.9085    1.0000 </r>
       <r>   -6.8823    1.0000 </r>
       <r>   -6.7231    1.0000 </r>
       <r>   -6.7051    1.0000 </r>
       <r>   -6.6721    1.0000 </r>
       <r>   -6.6299    1.0000 </r>
       <r>   -6.6183    1.0000 </r>
       <r>   -6.5727    1.0000 </r>
       <r>   -6.4564    1.0000 </r>
       <r>   -6.4089    1.0000 </r>
       <r>   -6.3734    1.0000 </r>
       <r>   -6.3229    1.0000 </r>
       <r>   -6.2998    1.0000 </r>
       <r>   -6.2594    1.0000 </r>
       <r>   -6.2368    1.0000 </r>
       <r>   -6.1780    1.0000 </r>
       <r>   -6.0888    1.0000 </r>
       <r>   -6.0681    1.0000 </r>
       <r>   -5.9653    1.0000 </r>
       <r>   -5.8749    1.0000 </r>
       <r>   -5.8456    1.0000 </r>
       <r>   -5.7527    1.0000 </r>
       <r>   -5.7281    1.0000 </r>
       <r>   -5.6876    1.0000 </r>
       <r>   -5.6229    1.0000 </r>
       <r>   -5.5689    1.0000 </r>
       <r>   -5.5578    1.0000 </r>
       <r>   -5.5035    1.0000 </r>
       <r>   -5.4842    1.0000 </r>
       <r>   -5.4665    1.0000 </r>
       <r>   -5.4224    1.0000 </r>
       <r>   -5.3771    1.0000 </r>
       <r>   -5.3448    1.0000 </r>
       <r>   -5.3352    1.0000 </r>
       <r>   -5.3271    1.0000 </r>
       <r>   -5.2885    1.0000 </r>
       <r>   -5.2561    1.0000 </r>
       <r>   -5.2513    1.0000 </r>
       <r>   -5.2304    1.0000 </r>
       <r>   -5.1886    1.0000 </r>
       <r>   -5.1444    1.0000 </r>
       <r>   -5.1374    1.0000 </r>
       <r>   -5.0908    1.0000 </r>
       <r>   -5.0532    1.0000 </r>
       <r>   -5.0341    1.0000 </r>
       <r>   -5.0253    1.0000 </r>
       <r>   -5.0135    1.0000 </r>
       <r>   -4.9940    1.0000 </r>
       <r>   -4.9512    1.0000 </r>
       <r>   -4.9096    1.0000 </r>
       <r>   -4.8851    1.0000 </r>
       <r>   -4.8824    1.0000 </r>
       <r>   -4.8507    1.0000 </r>
       <r>   -4.8268    1.0000 </r>
       <r>   -4.7851    1.0000 </r>
       <r>   -4.7774    1.0000 </r>
       <r>   -4.7239    1.0000 </r>
       <r>   -4.4875    1.0000 </r>
       <r>   -4.1450    1.0000 </r>
       <r>   -4.1432    1.0000 </r>
       <r>   -3.6662    1.0000 </r>
       <r>   -2.9215   -0.0000 </r>
       <r>   -2.7804   -0.0000 </r>
       <r>   -2.5021   -0.0000 </r>
       <r>   -2.2521   -0.0000 </r>
       <r>   -1.9282   -0.0000 </r>
       <r>   -1.8494   -0.0000 </r>
       <r>   -1.6657   -0.0000 </r>
       <r>   -1.4507   -0.0000 </r>
       <r>   -1.1462   -0.0000 </r>
       <r>   -0.8070    0.0000 </r>
       <r>   -0.5913    0.0000 </r>
       <r>   -0.3841    0.0000 </r>
       <r>   -0.2954    0.0000 </r>
       <r>   -0.0835    0.0000 </r>
       <r>    0.2900    0.0000 </r>
      </set>
     </set>
     <set comment="spin 2">
      <set comment="kpoint 1">
       <r>  -28.8046    1.0000 </r>
       <r>  -13.8565    1.0000 </r>
       <r>  -11.5243    1.0000 </r>
       <r>  -11.3687    1.0000 </r>
       <r>  -11.0683    1.0000 </r>
       <r>  -10.2948    1.0000 </r>
       <r>   -8.7317    1.0000 </r>
       <r>   -8.2814    1.0000 </r>
       <r>   -7.8114    1.0000 </r>
       <r>   -7.6242    1.0000 </r>
       <r>   -7.5667    1.0000 </r>
       <r>   -7.4356    1.0000 </r>
       <r>   -7.3416    1.0000 </r>
       <r>   -7.2638    1.0000 </r>
       <r>   -7.1436    1.0000 </r>
       <r>   -7.0890    1.0000 </r>
       <r>   -6.8870    1.0000 </r>
       <r>   -6.8551    1.0000 </r>
       <r>   -6.7011    1.0000 </r>
       <r>   -6.6813    1.0000 </r>
       <r>   -6.6400    1.0000 </r>
       <r>   -6.6071    1.0000 </r>
       <r>   -6.5889    1.0000 </r>
       <r>   -6.5468    1.0000 </r>
       <r>   -6.4260    1.0000 </r>
       <r>   -6.3860    1.0000 </r>
       <r>   -6.3545    1.0000 </r>
       <r>   -6.2991    1.0000 </r>
       <r>   -6.2772    1.0000 </r>
       <r>   -6.2332    1.0000 </r>
       <r>   -6.2071    1.0000 </r>
       <r>   -6.1521    1.0000 </r>
       <r>   -6.0685    1.0000 </r>
       <r>   -6.0406    1.0000 </r>
       <r>   -5.9396    1.0000 </r>
       <r>   -5.8461    1.0000 </r>
       <r>   -5.8068    1.0000 </r>
       <r>   -5.7317    1.0000 </r>
       <r>   -5.7065    1.0000 </r>
       <r>   -5.6578    1.0000 </r>
       <r>   -5.5883    1.0000 </r>
       <r>   -5.5388    1.0000 </r>
       <r>   -5.5292    1.0000 </r>
       <r>   -5.4773    1.0000 </r>
       <r>   -5.4645    1.0000 </r>
       <r>   -5.4381    1.0000 </r>
       <r>   -5.3950    1.0000 </r>
       <r>   -5.3525    1.0000 </r>
       <r>   -5.3185    1.0000 </r>
       <r>   -5.3064    1.0000 </r>
       <r>   -5.2943    1.0000 </r>
       <r>   -5.2574    1.0000 </r>
       <r>   -5.2257    1.0000 </r>
       <r>   -5.2150    1.0000 </r>
       <r>   -5.1989    1.0000 </r>
       <r>   -5.1627    1.0000 </r>
       <r>   -5.1211    1.0000 </r>
       <r>   -5.1130    1.0000 </r>
       <r>   -5.0606    1.0000 </r>
       <r>   -5.0253    1.0000 </r>
       <r>   -5.0072    1.0000 </r>
       <r>   -4.9900    1.0000 </r>
       <r>   -4.9882    1.0000 </r>
       <r>   -4.9665    1.0000 </r>
       <r>   -4.9160    1.0000 </r>
       <r>   -4.8839    1.0000 </r>
       <r>   -4.8562    1.0000 </r>
       <r>   -4.8416    1.0000 </r>
       <r>   -4.8211    1.0000 </r>
       <r>   -4.7941    1.0000 </r>
       <r>   -4.7533    1.0000 </r>
       <r>   -4.7489    1.0000 </r>
       <r>   -4.6923    1.0000 </r>
       <r>   -4.4489    1.0000 </r>
       <r>   -4.1067    1.0295 </r>
       <r>   -4.0750    0.9705 </r>
       <r>   -3.4651   -0.0000 </r>
       <r>   -2.8723   -0.0000 </r>
       <r>   -2.7320   -0.0000 </r>
       <r>   -2.4193   -0.0000 </r>
       <r>   -2.1547   -0.0000 </r>
       <r>   -1.9018   -0.0000 </r>
       <r>   -1.7649   -0.0000 </r>
       <r>   -1.6090   -0.0000 </r>
       <r>   -1.3447   -0.0000 </r>
       <r>   -0.9882    0.0000 </r>
       <r>   -0.7632    0.0000 </r>
       <r>   -0.5302    0.0000 </r>
       <r>   -0.2856    0.0000 </r>
       <r>   -0.2486    0.0000 </r>
       <r>   -0.0274    0.0000 </r>
       <r>    0.2907    0.0000 </r>
      </set>
     </set>
    </set>
   </array>
  </eigenvalues>
  <separator name="orbital magnetization" >
   <v name="MAGDIPOLOUT">      0.00000000      0.00000000      0.00000000</v>
  </separator>
  <dos>
   <i name="efermi">     -4.00178466 </i>
   <total>
    <array>
     <dimension dim="1">gridpoints</dimension>
     <dimension dim="2">spin</dimension>
     <field>energy</field>
     <field>total</field>
     <field>integrated</field>
     <set>
      <set comment="spin 1">
       <r>   -30.2849     0.0000     0.0000 </r>
       <r>   -30.1782     0.0000     0.0000 </r>
       <r>   -30.0714     0.0000     0.0000 </r>
       <r>   -29.9646     0.0000     0.0000 </r>
       <r>   -29.8579     0.0000     0.0000 </r>
       <r>   -29.7511     0.0000     0.0000 </r>
       <r>   -29.6443    -0.0000    -0.0000 </r>
       <r>   -29.5375    -0.0000    -0.0000 </r>
       <r>   -29.4308    -0.0000    -0.0000 </r>
       <r>   -29.3240    -0.0000    -0.0000 </r>
       <r>   -29.2172    -0.0000    -0.0000 </r>
       <r>   -29.1104    -0.0047    -0.0005 </r>
       <r>   -29.0037    -0.3051    -0.0331 </r>
       <r>   -28.8969     1.1996     0.0950 </r>
       <r>   -28.7901    14.1465     1.6055 </r>
       <r>   -28.6834     4.2489     2.0591 </r>
       <r>   -28.5766    -0.5342     2.0021 </r>
       <r>   -28.4698    -0.0195     2.0000 </r>
       <r>   -28.3630    -0.0000     2.0000 </r>
       <r>   -28.2563    -0.0000     2.0000 </r>
       <r>   -28.1495    -0.0000     2.0000 </r>
       <r>   -28.0427     0.0000     2.0000 </r>
       <r>   -27.9360     0.0000     2.0000 </r>
       <r>   -27.8292     0.0000     2.0000 </r>
       <r>   -27.7224     0.0000     2.0000 </r>
       <r>   -27.6156     0.0000     2.0000 </r>
       <r>   -27.5089     0.0000     2.0000 </r>
       <r>   -27.4021     0.0000     2.0000 </r>
       <r>   -27.2953     0.0000     2.0000 </r>
       <r>   -27.1885     0.0000     2.0000 </r>
       <r>   -27.0818     0.0000     2.0000 </r>
       <r>   -26.9750     0.0000     2.0000 </r>
       <r>   -26.8682     0.0000     2.0000 </r>
       <r>   -26.7615     0.0000     2.0000 </r>
       <r>   -26.6547     0.0000     2.0000 </r>
       <r>   -26.5479     0.0000     2.0000 </r>
       <r>   -26.4411     0.0000     2.0000 </r>
       <r>   -26.3344     0.0000     2.0000 </r>
       <r>   -26.2276     0.0000     2.0000 </r>
       <r>   -26.1208     0.0000     2.0000 </r>
       <r>   -26.0141     0.0000     2.0000 </r>
       <r>   -25.9073     0.0000     2.0000 </r>
       <r>   -25.8005     0.0000     2.0000 </r>
       <r>   -25.6937     0.0000     2.0000 </r>
       <r>   -25.5870     0.0000     2.0000 </r>
       <r>   -25.4802     0.0000     2.0000 </r>
       <r>   -25.3734     0.0000     2.0000 </r>
       <r>   -25.2666     0.0000     2.0000 </r>
       <r>   -25.1599     0.0000     2.0000 </r>
       <r>   -25.0531     0.0000     2.0000 </r>
       <r>   -24.9463     0.0000     2.0000 </r>
       <r>   -24.8396     0.0000     2.0000 </r>
       <r>   -24.7328     0.0000     2.0000 </r>
       <r>   -24.6260     0.0000     2.0000 </r>
       <r>   -24.5192     0.0000     2.0000 </r>
       <r>   -24.4125     0.0000     2.0000 </r>
       <r>   -24.3057     0.0000     2.0000 </r>
       <r>   -24.1989     0.0000     2.0000 </r>
       <r>   -24.0922     0.0000     2.0000 </r>
       <r>   -23.9854     0.0000     2.0000 </r>
       <r>   -23.8786     0.0000     2.0000 </r>
       <r>   -23.7718     0.0000     2.0000 </r>
       <r>   -23.6651     0.0000     2.0000 </r>
       <r>   -23.5583     0.0000     2.0000 </r>
       <r>   -23.4515     0.0000     2.0000 </r>
       <r>   -23.3447     0.0000     2.0000 </r>
       <r>   -23.2380     0.0000     2.0000 </r>
       <r>   -23.1312     0.0000     2.0000 </r>
       <r>   -23.0244     0.0000     2.0000 </r>
       <r>   -22.9177     0.0000     2.0000 </r>
       <r>   -22.8109     0.0000     2.0000 </r>
       <r>   -22.7041     0.0000     2.0000 </r>
       <r>   -22.5973     0.0000     2.0000 </r>
       <r>   -22.4906     0.0000     2.0000 </r>
       <r>   -22.3838     0.0000     2.0000 </r>
       <r>   -22.2770     0.0000     2.0000 </r>
       <r>   -22.1703     0.0000     2.0000 </r>
       <r>   -22.0635     0.0000     2.0000 </r>
       <r>   -21.9567     0.0000     2.0000 </r>
       <r>   -21.8499     0.0000     2.0000 </r>
       <r>   -21.7432     0.0000     2.0000 </r>
       <r>   -21.6364     0.0000     2.0000 </r>
       <r>   -21.5296     0.0000     2.0000 </r>
       <r>   -21.4228     0.0000     2.0000 </r>
       <r>   -21.3161     0.0000     2.0000 </r>
       <r>   -21.2093     0.0000     2.0000 </r>
       <r>   -21.1025     0.0000     2.0000 </r>
       <r>   -20.9958     0.0000     2.0000 </r>
       <r>   -20.8890     0.0000     2.0000 </r>
       <r>   -20.7822     0.0000     2.0000 </r>
       <r>   -20.6754     0.0000     2.0000 </r>
       <r>   -20.5687     0.0000     2.0000 </r>
       <r>   -20.4619     0.0000     2.0000 </r>
       <r>   -20.3551     0.0000     2.0000 </r>
       <r>   -20.2484     0.0000     2.0000 </r>
       <r>   -20.1416     0.0000     2.0000 </r>
       <r>   -20.0348     0.0000     2.0000 </r>
       <r>   -19.9280     0.0000     2.0000 </r>
       <r>   -19.8213     0.0000     2.0000 </r>
       <r>   -19.7145     0.0000     2.0000 </r>
       <r>   -19.6077     0.0000     2.0000 </r>
       <r>   -19.5010     0.0000     2.0000 </r>
       <r>   -19.3942     0.0000     2.0000 </r>
       <r>   -19.2874     0.0000     2.0000 </r>
       <r>   -19.1806     0.0000     2.0000 </r>
       <r>   -19.0739     0.0000     2.0000 </r>
       <r>   -18.9671     0.0000     2.0000 </r>
       <r>   -18.8603     0.0000     2.0000 </r>
       <r>   -18.7535     0.0000     2.0000 </r>
       <r>   -18.6468     0.0000     2.0000 </r>
       <r>   -18.5400     0.0000     2.0000 </r>
       <r>   -18.4332     0.0000     2.0000 </r>
       <r>   -18.3265     0.0000     2.0000 </r>
       <r>   -18.2197     0.0000     2.0000 </r>
       <r>   -18.1129     0.0000     2.0000 </r>
       <r>   -18.0061     0.0000     2.0000 </r>
       <r>   -17.8994     0.0000     2.0000 </r>
       <r>   -17.7926     0.0000     2.0000 </r>
       <r>   -17.6858     0.0000     2.0000 </r>
       <r>   -17.5791     0.0000     2.0000 </r>
       <r>   -17.4723     0.0000     2.0000 </r>
       <r>   -17.3655     0.0000     2.0000 </r>
       <r>   -17.2587     0.0000     2.0000 </r>
       <r>   -17.1520     0.0000     2.0000 </r>
       <r>   -17.0452     0.0000     2.0000 </r>
       <r>   -16.9384     0.0000     2.0000 </r>
       <r>   -16.8316     0.0000     2.0000 </r>
       <r>   -16.7249     0.0000     2.0000 </r>
       <r>   -16.6181     0.0000     2.0000 </r>
       <r>   -16.5113     0.0000     2.0000 </r>
       <r>   -16.4046     0.0000     2.0000 </r>
       <r>   -16.2978     0.0000     2.0000 </r>
       <r>   -16.1910     0.0000     2.0000 </r>
       <r>   -16.0842     0.0000     2.0000 </r>
       <r>   -15.9775     0.0000     2.0000 </r>
       <r>   -15.8707     0.0000     2.0000 </r>
       <r>   -15.7639     0.0000     2.0000 </r>
       <r>   -15.6572     0.0000     2.0000 </r>
       <r>   -15.5504     0.0000     2.0000 </r>
       <r>   -15.4436     0.0000     2.0000 </r>
       <r>   -15.3368     0.0000     2.0000 </r>
       <r>   -15.2301     0.0000     2.0000 </r>
       <r>   -15.1233     0.0000     2.0000 </r>
       <r>   -15.0165     0.0000     2.0000 </r>
       <r>   -14.9097     0.0000     2.0000 </r>
       <r>   -14.8030    -0.0000     2.0000 </r>
       <r>   -14.6962    -0.0000     2.0000 </r>
       <r>   -14.5894    -0.0000     2.0000 </r>
       <r>   -14.4827    -0.0000     2.0000 </r>
       <r>   -14.3759    -0.0000     2.0000 </r>
       <r>   -14.2691    -0.0000     2.0000 </r>
       <r>   -14.1623    -0.0125     1.9987 </r>
       <r>   -14.0556    -0.4609     1.9495 </r>
       <r>   -13.9488     3.0667     2.2769 </r>
       <r>   -13.8420    14.4949     3.8245 </r>
       <r>   -13.7353     2.0317     4.0415 </r>
       <r>   -13.6285    -0.3807     4.0008 </r>
       <r>   -13.5217    -0.0077     4.0000 </r>
       <r>   -13.4149    -0.0000     4.0000 </r>
       <r>   -13.3082    -0.0000     4.0000 </r>
       <r>   -13.2014    -0.0000     4.0000 </r>
       <r>   -13.0946     0.0000     4.0000 </r>
       <r>   -12.9878     0.0000     4.0000 </r>
       <r>   -12.8811     0.0000     4.0000 </r>
       <r>   -12.7743     0.0000     4.0000 </r>
       <r>   -12.6675     0.0000     4.0000 </r>
       <r>   -12.5608     0.0000     4.0000 </r>
       <r>   -12.4540    -0.0000     4.0000 </r>
       <r>   -12.3472    -0.0000     4.0000 </r>
       <r>   -12.2404    -0.0000     4.0000 </r>
       <r>   -12.1337    -0.0000     4.0000 </r>
       <r>   -12.0269    -0.0000     4.0000 </r>
       <r>   -11.9201    -0.0001     4.0000 </r>
       <r>   -11.8134    -0.0263     3.9972 </r>
       <r>   -11.7066    -0.5774     3.9355 </r>
       <r>   -11.5998     5.0847     4.4784 </r>
       <r>   -11.4930    13.1926     5.8870 </r>
       <r>   -11.3863    10.3643     6.9937 </r>
       <r>   -11.2795     9.3689     7.9940 </r>
       <r>   -11.1727     4.9210     8.5194 </r>
       <r>   -11.0659    13.4877     9.9595 </r>
       <r>   -10.9592     0.6284    10.0266 </r>
       <r>   -10.8524    -0.2462    10.0003 </r>
       <r>   -10.7456    -0.0031    10.0000 </r>
       <r>   -10.6389    -0.0018     9.9998 </r>
       <r>   -10.5321    -0.1872     9.9798 </r>
       <r>   -10.4253     0.1250     9.9932 </r>
       <r>   -10.3185    12.6758    11.3466 </r>
       <r>   -10.2118     6.7764    12.0701 </r>
       <r>   -10.1050    -0.6146    12.0045 </r>
       <r>    -9.9982    -0.0420    12.0000 </r>
       <r>    -9.8915    -0.0001    12.0000 </r>
       <r>    -9.7847    -0.0000    12.0000 </r>
       <r>    -9.6779    -0.0000    12.0000 </r>
       <r>    -9.5711    -0.0000    12.0000 </r>
       <r>    -9.4644    -0.0000    12.0000 </r>
       <r>    -9.3576    -0.0000    12.0000 </r>
       <r>    -9.2508    -0.0000    12.0000 </r>
       <r>    -9.1440    -0.0000    12.0000 </r>
       <r>    -9.0373    -0.0037    11.9996 </r>
       <r>    -8.9305    -0.2709    11.9707 </r>
       <r>    -8.8237     0.8599    12.0625 </r>
       <r>    -8.7170    13.8575    13.5421 </r>
       <r>    -8.6102     4.8731    14.0624 </r>
       <r>    -8.5034    -0.8597    13.9706 </r>
       <r>    -8.3966     1.0717    14.0850 </r>
       <r>    -8.2899    14.0696    15.5873 </r>
       <r>    -8.1831     4.4294    16.0602 </r>
       <r>    -8.0763    -0.6186    15.9942 </r>
       <r>    -7.9696    -0.5805    15.9322 </r>
       <r>    -7.8628     8.9210    16.8847 </r>
       <r>    -7.7560     9.9752    17.9498 </r>
       <r>    -7.6492    11.0998    19.1349 </r>
       <r>    -7.5425    25.9999    21.9110 </r>
       <r>    -7.4357    18.6226    23.8994 </r>
       <r>    -7.3289    20.9337    26.1345 </r>
       <r>    -7.2221    20.0510    28.2754 </r>
       <r>    -7.1154    26.4304    31.0974 </r>
       <r>    -7.0086     8.3369    31.9876 </r>
       <r>    -6.9018    16.4320    33.7421 </r>
       <r>    -6.7951    20.9047    35.9741 </r>
       <r>    -6.6883    35.5440    39.7692 </r>
       <r>    -6.5815    60.1391    46.1904 </r>
       <r>    -6.4747    24.7725    48.8354 </r>
       <r>    -6.3680    39.1326    53.0137 </r>
       <r>    -6.2612    57.1804    59.1190 </r>
       <r>    -6.1544    42.2121    63.6261 </r>
       <r>    -6.0477    31.9464    67.0370 </r>
       <r>    -5.9409    23.6979    69.5673 </r>
       <r>    -5.8341    30.0956    72.7807 </r>
       <r>    -5.7273    37.5313    76.7880 </r>
       <r>    -5.6206    41.7630    81.2471 </r>
       <r>    -5.5138    54.0825    87.0216 </r>
       <r>    -5.4070    62.9084    93.7385 </r>
       <r>    -5.3002    78.2288   102.0911 </r>
       <r>    -5.1935    80.1504   110.6490 </r>
       <r>    -5.0867    65.0279   117.5921 </r>
       <r>    -4.9799    85.5659   126.7282 </r>
       <r>    -4.8732    77.3907   134.9914 </r>
       <r>    -4.7664    74.3089   142.9255 </r>
       <r>    -4.6596    29.3514   146.0594 </r>
       <r>    -4.5528     0.9743   146.1634 </r>
       <r>    -4.4461    13.8184   147.6389 </r>
       <r>    -4.3393     3.5667   148.0197 </r>
       <r>    -4.2325    -0.4873   147.9676 </r>
       <r>    -4.1258    24.7420   150.6094 </r>
       <r>    -4.0190    14.3480   152.1414 </r>
       <r>    -3.9122    -1.2561   152.0072 </r>
       <r>    -3.8054    -0.6681   151.9359 </r>
       <r>    -3.6987     5.1141   152.4820 </r>
       <r>    -3.5919    13.7335   153.9483 </r>
       <r>    -3.4851     0.7463   154.0280 </r>
       <r>    -3.3783    -0.2589   154.0004 </r>
       <r>    -3.2716    -0.0035   154.0000 </r>
       <r>    -3.1648    -0.0290   153.9969 </r>
       <r>    -3.0580    -0.5941   153.9335 </r>
       <r>    -2.9513     5.1545   154.4838 </r>
       <r>    -2.8445    15.0366   156.0893 </r>
       <r>    -2.7377    14.8688   157.6769 </r>
       <r>    -2.6309     2.8978   157.9863 </r>
       <r>    -2.5242     6.0974   158.6373 </r>
       <r>    -2.4174    12.3973   159.9610 </r>
       <r>    -2.3106     2.1818   160.1940 </r>
       <r>    -2.2039    14.2903   161.7198 </r>
       <r>    -2.0971     2.7193   162.0101 </r>
       <r>    -1.9903     0.6559   162.0801 </r>
       <r>    -1.8835    19.1763   164.1276 </r>
       <r>    -1.7768    16.8323   165.9249 </r>
       <r>    -1.6700     9.6005   166.9499 </r>
       <r>    -1.5632     9.7219   167.9880 </r>
       <r>    -1.4564     8.6776   168.9145 </r>
       <r>    -1.3497    10.5239   170.0381 </r>
       <r>    -1.2429    -0.6430   169.9695 </r>
       <r>    -1.1361    11.2316   171.1687 </r>
       <r>    -1.0294     8.3716   172.0626 </r>
       <r>    -0.9226    -1.1704   171.9376 </r>
       <r>    -0.8158     8.4957   172.8447 </r>
       <r>    -0.7090    10.5908   173.9755 </r>
       <r>    -0.6023     7.9112   174.8202 </r>
       <r>    -0.4955    10.6562   175.9580 </r>
       <r>    -0.3887     8.8526   176.9032 </r>
       <r>    -0.2820    22.0994   179.2628 </r>
       <r>    -0.1752     7.4117   180.0542 </r>
       <r>    -0.0684    11.2771   181.2583 </r>
       <r>     0.0384     7.5912   182.0688 </r>
       <r>     0.1451    -1.1500   181.9460 </r>
       <r>     0.2519     4.2870   182.4037 </r>
       <r>     0.3587    14.1082   183.9101 </r>
       <r>     0.4655     1.1466   184.0325 </r>
       <r>     0.5722    -0.2999   184.0005 </r>
       <r>     0.6790    -0.0046   184.0000 </r>
       <r>     0.7858    -0.0000   184.0000 </r>
       <r>     0.8925    -0.0000   184.0000 </r>
       <r>     0.9993    -0.0000   184.0000 </r>
       <r>     1.1061     0.0000   184.0000 </r>
       <r>     1.2129     0.0000   184.0000 </r>
       <r>     1.3196     0.0000   184.0000 </r>
       <r>     1.4264     0.0000   184.0000 </r>
       <r>     1.5332     0.0000   184.0000 </r>
       <r>     1.6399     0.0000   184.0000 </r>
       <r>     1.7467     0.0000   184.0000 </r>
      </set>
      <set comment="spin 2">
       <r>   -30.2849     0.0000     0.0000 </r>
       <r>   -30.1782     0.0000     0.0000 </r>
       <r>   -30.0714     0.0000     0.0000 </r>
       <r>   -29.9646     0.0000     0.0000 </r>
       <r>   -29.8579     0.0000     0.0000 </r>
       <r>   -29.7511     0.0000     0.0000 </r>
       <r>   -29.6443    -0.0000    -0.0000 </r>
       <r>   -29.5375    -0.0000    -0.0000 </r>
       <r>   -29.4308    -0.0000    -0.0000 </r>
       <r>   -29.3240    -0.0000    -0.0000 </r>
       <r>   -29.2172    -0.0000    -0.0000 </r>
       <r>   -29.1104    -0.0013    -0.0001 </r>
       <r>   -29.0037    -0.1529    -0.0165 </r>
       <r>   -28.8969    -0.1308    -0.0304 </r>
       <r>   -28.7901    11.9151     1.2418 </r>
       <r>   -28.6834     7.7650     2.0709 </r>
       <r>   -28.5766    -0.6090     2.0058 </r>
       <r>   -28.4698    -0.0545     2.0000 </r>
       <r>   -28.3630    -0.0002     2.0000 </r>
       <r>   -28.2563    -0.0000     2.0000 </r>
       <r>   -28.1495    -0.0000     2.0000 </r>
       <r>   -28.0427     0.0000     2.0000 </r>
       <r>   -27.9360     0.0000     2.0000 </r>
       <r>   -27.8292     0.0000     2.0000 </r>
       <r>   -27.7224     0.0000     2.0000 </r>
       <r>   -27.6156     0.0000     2.0000 </r>
       <r>   -27.5089     0.0000     2.0000 </r>
       <r>   -27.4021     0.0000     2.0000 </r>
       <r>   -27.2953     0.0000     2.0000 </r>
       <r>   -27.1885     0.0000     2.0000 </r>
       <r>   -27.0818     0.0000     2.0000 </r>
       <r>   -26.9750     0.0000     2.0000 </r>
       <r>   -26.8682     0.0000     2.0000 </r>
       <r>   -26.7615     0.0000     2.0000 </r>
       <r>   -26.6547     0.0000     2.0000 </r>
       <r>   -26.5479     0.0000     2.0000 </r>
       <r>   -26.4411     0.0000     2.0000 </r>
       <r>   -26.3344     0.0000     2.0000 </r>
       <r>   -26.2276     0.0000     2.0000 </r>
       <r>   -26.1208     0.0000     2.0000 </r>
       <r>   -26.0141     0.0000     2.0000 </r>
       <r>   -25.9073     0.0000     2.0000 </r>
       <r>   -25.8005     0.0000     2.0000 </r>
       <r>   -25.6937     0.0000     2.0000 </r>
       <r>   -25.5870     0.0000     2.0000 </r>
       <r>   -25.4802     0.0000     2.0000 </r>
       <r>   -25.3734     0.0000     2.0000 </r>
       <r>   -25.2666     0.0000     2.0000 </r>
       <r>   -25.1599     0.0000     2.0000 </r>
       <r>   -25.0531     0.0000     2.0000 </r>
       <r>   -24.9463     0.0000     2.0000 </r>
       <r>   -24.8396     0.0000     2.0000 </r>
       <r>   -24.7328     0.0000     2.0000 </r>
       <r>   -24.6260     0.0000     2.0000 </r>
       <r>   -24.5192     0.0000     2.0000 </r>
       <r>   -24.4125     0.0000     2.0000 </r>
       <r>   -24.3057     0.0000     2.0000 </r>
       <r>   -24.1989     0.0000     2.0000 </r>
       <r>   -24.0922     0.0000     2.0000 </r>
       <r>   -23.9854     0.0000     2.0000 </r>
       <r>   -23.8786     0.0000     2.0000 </r>
       <r>   -23.7718     0.0000     2.0000 </r>
       <r>   -23.6651     0.0000     2.0000 </r>
       <r>   -23.5583     0.0000     2.0000 </r>
       <r>   -23.4515     0.0000     2.0000 </r>
       <r>   -23.3447     0.0000     2.0000 </r>
       <r>   -23.2380     0.0000     2.0000 </r>
       <r>   -23.1312     0.0000     2.0000 </r>
       <r>   -23.0244     0.0000     2.0000 </r>
       <r>   -22.9177     0.0000     2.0000 </r>
       <r>   -22.8109     0.0000     2.0000 </r>
       <r>   -22.7041     0.0000     2.0000 </r>
       <r>   -22.5973     0.0000     2.0000 </r>
       <r>   -22.4906     0.0000     2.0000 </r>
       <r>   -22.3838     0.0000     2.0000 </r>
       <r>   -22.2770     0.0000     2.0000 </r>
       <r>   -22.1703     0.0000     2.0000 </r>
       <r>   -22.0635     0.0000     2.0000 </r>
       <r>   -21.9567     0.0000     2.0000 </r>
       <r>   -21.8499     0.0000     2.0000 </r>
       <r>   -21.7432     0.0000     2.0000 </r>
       <r>   -21.6364     0.0000     2.0000 </r>
       <r>   -21.5296     0.0000     2.0000 </r>
       <r>   -21.4228     0.0000     2.0000 </r>
       <r>   -21.3161     0.0000     2.0000 </r>
       <r>   -21.2093     0.0000     2.0000 </r>
       <r>   -21.1025     0.0000     2.0000 </r>
       <r>   -20.9958     0.0000     2.0000 </r>
       <r>   -20.8890     0.0000     2.0000 </r>
       <r>   -20.7822     0.0000     2.0000 </r>
       <r>   -20.6754     0.0000     2.0000 </r>
       <r>   -20.5687     0.0000     2.0000 </r>
       <r>   -20.4619     0.0000     2.0000 </r>
       <r>   -20.3551     0.0000     2.0000 </r>
       <r>   -20.2484     0.0000     2.0000 </r>
       <r>   -20.1416     0.0000     2.0000 </r>
       <r>   -20.0348     0.0000     2.0000 </r>
       <r>   -19.9280     0.0000     2.0000 </r>
       <r>   -19.8213     0.0000     2.0000 </r>
       <r>   -19.7145     0.0000     2.0000 </r>
       <r>   -19.6077     0.0000     2.0000 </r>
       <r>   -19.5010     0.0000     2.0000 </r>
       <r>   -19.3942     0.0000     2.0000 </r>
       <r>   -19.2874     0.0000     2.0000 </r>
       <r>   -19.1806     0.0000     2.0000 </r>
       <r>   -19.0739     0.0000     2.0000 </r>
       <r>   -18.9671     0.0000     2.0000 </r>
       <r>   -18.8603     0.0000     2.0000 </r>
       <r>   -18.7535     0.0000     2.0000 </r>
       <r>   -18.6468     0.0000     2.0000 </r>
       <r>   -18.5400     0.0000     2.0000 </r>
       <r>   -18.4332     0.0000     2.0000 </r>
       <r>   -18.3265     0.0000     2.0000 </r>
       <r>   -18.2197     0.0000     2.0000 </r>
       <r>   -18.1129     0.0000     2.0000 </r>
       <r>   -18.0061     0.0000     2.0000 </r>
       <r>   -17.8994     0.0000     2.0000 </r>
       <r>   -17.7926     0.0000     2.0000 </r>
       <r>   -17.6858     0.0000     2.0000 </r>
       <r>   -17.5791     0.0000     2.0000 </r>
       <r>   -17.4723     0.0000     2.0000 </r>
       <r>   -17.3655     0.0000     2.0000 </r>
       <r>   -17.2587     0.0000     2.0000 </r>
       <r>   -17.1520     0.0000     2.0000 </r>
       <r>   -17.0452     0.0000     2.0000 </r>
       <r>   -16.9384     0.0000     2.0000 </r>
       <r>   -16.8316     0.0000     2.0000 </r>
       <r>   -16.7249     0.0000     2.0000 </r>
       <r>   -16.6181     0.0000     2.0000 </r>
       <r>   -16.5113     0.0000     2.0000 </r>
       <r>   -16.4046     0.0000     2.0000 </r>
       <r>   -16.2978     0.0000     2.0000 </r>
       <r>   -16.1910     0.0000     2.0000 </r>
       <r>   -16.0842     0.0000     2.0000 </r>
       <r>   -15.9775     0.0000     2.0000 </r>
       <r>   -15.8707     0.0000     2.0000 </r>
       <r>   -15.7639     0.0000     2.0000 </r>
       <r>   -15.6572     0.0000     2.0000 </r>
       <r>   -15.5504     0.0000     2.0000 </r>
       <r>   -15.4436     0.0000     2.0000 </r>
       <r>   -15.3368     0.0000     2.0000 </r>
       <r>   -15.2301     0.0000     2.0000 </r>
       <r>   -15.1233     0.0000     2.0000 </r>
       <r>   -15.0165     0.0000     2.0000 </r>
       <r>   -14.9097     0.0000     2.0000 </r>
       <r>   -14.8030     0.0000     2.0000 </r>
       <r>   -14.6962    -0.0000     2.0000 </r>
       <r>   -14.5894    -0.0000     2.0000 </r>
       <r>   -14.4827    -0.0000     2.0000 </r>
       <r>   -14.3759    -0.0000     2.0000 </r>
       <r>   -14.2691    -0.0000     2.0000 </r>
       <r>   -14.1623    -0.0013     1.9999 </r>
       <r>   -14.0556    -0.1529     1.9835 </r>
       <r>   -13.9488    -0.1309     1.9696 </r>
       <r>   -13.8420    11.9147     3.2417 </r>
       <r>   -13.7353     7.7655     4.0709 </r>
       <r>   -13.6285    -0.6090     4.0058 </r>
       <r>   -13.5217    -0.0545     4.0000 </r>
       <r>   -13.4149    -0.0002     4.0000 </r>
       <r>   -13.3082    -0.0000     4.0000 </r>
       <r>   -13.2014    -0.0000     4.0000 </r>
       <r>   -13.0946     0.0000     4.0000 </r>
       <r>   -12.9878     0.0000     4.0000 </r>
       <r>   -12.8811     0.0000     4.0000 </r>
       <r>   -12.7743     0.0000     4.0000 </r>
       <r>   -12.6675     0.0000     4.0000 </r>
       <r>   -12.5608     0.0000     4.0000 </r>
       <r>   -12.4540     0.0000     4.0000 </r>
       <r>   -12.3472    -0.0000     4.0000 </r>
       <r>   -12.2404    -0.0000     4.0000 </r>
       <r>   -12.1337    -0.0000     4.0000 </r>
       <r>   -12.0269    -0.0000     4.0000 </r>
       <r>   -11.9201    -0.0000     4.0000 </r>
       <r>   -11.8134    -0.0032     3.9997 </r>
       <r>   -11.7066    -0.2510     3.9729 </r>
       <r>   -11.5998     0.6227     4.0393 </r>
       <r>   -11.4930    13.0272     5.4303 </r>
       <r>   -11.3863    12.5694     6.7723 </r>
       <r>   -11.2795    11.6094     8.0119 </r>
       <r>   -11.1727    -0.4874     7.9599 </r>
       <r>   -11.0659    10.1103     9.0394 </r>
       <r>   -10.9592     9.5995    10.0643 </r>
       <r>   -10.8524    -0.5158    10.0093 </r>
       <r>   -10.7456    -0.0863    10.0000 </r>
       <r>   -10.6389    -0.0006    10.0000 </r>
       <r>   -10.5321    -0.0374     9.9960 </r>
       <r>   -10.4253    -0.6099     9.9309 </r>
       <r>   -10.3185     6.3631    10.6103 </r>
       <r>   -10.2118    12.9666    11.9947 </r>
       <r>   -10.1050     0.2545    12.0219 </r>
       <r>    -9.9982    -0.2032    12.0002 </r>
       <r>    -9.8915    -0.0021    12.0000 </r>
       <r>    -9.7847    -0.0000    12.0000 </r>
       <r>    -9.6779    -0.0000    12.0000 </r>
       <r>    -9.5711    -0.0000    12.0000 </r>
       <r>    -9.4644    -0.0000    12.0000 </r>
       <r>    -9.3576    -0.0000    12.0000 </r>
       <r>    -9.2508    -0.0000    12.0000 </r>
       <r>    -9.1440    -0.0000    12.0000 </r>
       <r>    -9.0373    -0.0013    11.9999 </r>
       <r>    -8.9305    -0.1544    11.9834 </r>
       <r>    -8.8237    -0.1207    11.9705 </r>
       <r>    -8.7170    11.9513    13.2466 </r>
       <r>    -8.6102     7.7201    14.0709 </r>
       <r>    -8.5034    -0.6785    13.9984 </r>
       <r>    -8.3966    -0.6324    13.9309 </r>
       <r>    -8.2899     8.6771    14.8574 </r>
       <r>    -8.1831    11.1378    16.0466 </r>
       <r>    -8.0763    -0.3204    16.0124 </r>
       <r>    -7.9696    -0.5632    15.9522 </r>
       <r>    -7.8628     2.7048    16.2410 </r>
       <r>    -7.7560    13.7191    17.7058 </r>
       <r>    -7.6492     8.6814    18.6328 </r>
       <r>    -7.5425    25.0716    21.3097 </r>
       <r>    -7.4357    16.0096    23.0191 </r>
       <r>    -7.3289    21.9935    25.3674 </r>
       <r>    -7.2221    21.6804    27.6823 </r>
       <r>    -7.1154    22.4781    30.0823 </r>
       <r>    -7.0086    17.2817    31.9275 </r>
       <r>    -6.9018    10.5100    33.0497 </r>
       <r>    -6.7951    24.6013    35.6764 </r>
       <r>    -6.6883    24.8813    38.3330 </r>
       <r>    -6.5815    61.1616    44.8634 </r>
       <r>    -6.4747    31.8215    48.2611 </r>
       <r>    -6.3680    33.8832    51.8788 </r>
       <r>    -6.2612    54.3012    57.6767 </r>
       <r>    -6.1544    47.7089    62.7707 </r>
       <r>    -6.0477    32.8720    66.2805 </r>
       <r>    -5.9409    25.3611    68.9884 </r>
       <r>    -5.8341    25.1610    71.6749 </r>
       <r>    -5.7273    38.2870    75.7628 </r>
       <r>    -5.6206    39.7816    80.0104 </r>
       <r>    -5.5138    49.4038    85.2854 </r>
       <r>    -5.4070    64.4076    92.1623 </r>
       <r>    -5.3002    68.4462    99.4705 </r>
       <r>    -5.1935    84.6945   108.5135 </r>
       <r>    -5.0867    67.4901   115.7196 </r>
       <r>    -4.9799    79.7643   124.2362 </r>
       <r>    -4.8732    77.0649   132.4645 </r>
       <r>    -4.7664    79.1844   140.9192 </r>
       <r>    -4.6596    45.0642   145.7308 </r>
       <r>    -4.5528     2.9444   146.0452 </r>
       <r>    -4.4461     9.4152   147.0505 </r>
       <r>    -4.3393     9.4434   148.0588 </r>
       <r>    -4.2325    -1.5797   147.8901 </r>
       <r>    -4.1258     9.7922   148.9357 </r>
       <r>    -4.0190    26.9850   151.8169 </r>
       <r>    -3.9122     2.3011   152.0626 </r>
       <r>    -3.8054    -0.5762   152.0011 </r>
       <r>    -3.6987    -0.0539   151.9953 </r>
       <r>    -3.5919    -0.6153   151.9296 </r>
       <r>    -3.4851     6.9209   152.6686 </r>
       <r>    -3.3783    12.5702   154.0107 </r>
       <r>    -3.2716     0.0831   154.0196 </r>
       <r>    -3.1648    -0.1845   153.9999 </r>
       <r>    -3.0580    -0.2304   153.9753 </r>
       <r>    -2.9513     0.3926   154.0172 </r>
       <r>    -2.8445    12.8000   155.3839 </r>
       <r>    -2.7377    14.8568   156.9702 </r>
       <r>    -2.6309    10.0659   158.0450 </r>
       <r>    -2.5242    -0.8582   157.9533 </r>
       <r>    -2.4174    10.0866   159.0303 </r>
       <r>    -2.3106     9.2123   160.0139 </r>
       <r>    -2.2039     2.4804   160.2787 </r>
       <r>    -2.0971    14.2457   161.7998 </r>
       <r>    -1.9903     2.0462   162.0183 </r>
       <r>    -1.8835    11.3830   163.2337 </r>
       <r>    -1.7768    14.9664   164.8317 </r>
       <r>    -1.6700    12.7573   166.1938 </r>
       <r>    -1.5632    14.0934   167.6986 </r>
       <r>    -1.4564     2.6949   167.9863 </r>
       <r>    -1.3497     8.7169   168.9170 </r>
       <r>    -1.2429    10.6288   170.0519 </r>
       <r>    -1.1361    -0.9082   169.9549 </r>
       <r>    -1.0294     3.8241   170.3632 </r>
       <r>    -0.9226    13.8347   171.8404 </r>
       <r>    -0.8158     3.9901   172.2664 </r>
       <r>    -0.7090    13.9416   173.7550 </r>
       <r>    -0.6023     3.3353   174.1111 </r>
       <r>    -0.4955    13.3470   175.5362 </r>
       <r>    -0.3887     3.8096   175.9429 </r>
       <r>    -0.2820    14.8829   177.5320 </r>
       <r>    -0.1752    22.6554   179.9510 </r>
       <r>    -0.0684     4.2444   180.4042 </r>
       <r>     0.0384    13.8869   181.8869 </r>
       <r>     0.1451     0.8322   181.9758 </r>
       <r>     0.2519     3.9274   182.3951 </r>
       <r>     0.3587    14.1412   183.9050 </r>
       <r>     0.4655     1.1996   184.0331 </r>
       <r>     0.5722    -0.3051   184.0005 </r>
       <r>     0.6790    -0.0047   184.0000 </r>
       <r>     0.7858    -0.0000   184.0000 </r>
       <r>     0.8925    -0.0000   184.0000 </r>
       <r>     0.9993    -0.0000   184.0000 </r>
       <r>     1.1061     0.0000   184.0000 </r>
       <r>     1.2129     0.0000   184.0000 </r>
       <r>     1.3196     0.0000   184.0000 </r>
       <r>     1.4264     0.0000   184.0000 </r>
       <r>     1.5332     0.0000   184.0000 </r>
       <r>     1.6399     0.0000   184.0000 </r>
       <r>     1.7467     0.0000   184.0000 </r>
      </set>
     </set>
    </array>
   </total>
  </dos>
 </calculation>
 <structure name="finalpos" >
  <crystal>
   <varray name="basis" >
    <v>      15.00000000       0.00000000       0.00000000 </v>
    <v>       0.00000000      15.00000000       0.00000000 </v>
    <v>       0.00000000       0.00000000      15.00000000 </v>
   </varray>
   <i name="volume">   3375.00000000 </i>
   <varray name="rec_basis" >
    <v>       0.06666667       0.00000000       0.00000000 </v>
    <v>       0.00000000       0.06666667       0.00000000 </v>
    <v>       0.00000000       0.00000000       0.06666667 </v>
   </varray>
  </crystal>
  <varray name="positions" >
   <v>       0.28315800       0.40984933       0.56225533 </v>
   <v>       0.37380800       0.54756267       0.49943800 </v>
   <v>       0.39834000       0.29323467       0.55521467 </v>
   <v>       0.53444600       0.50682600       0.48357867 </v>
   <v>       0.54625067       0.35022733       0.52188733 </v>
   <v>       0.43942333       0.43133533       0.60749667 </v>
   <v>       0.41888267       0.40548400       0.44931200 </v>
   <v>       0.22503333       0.56730000       0.55660533 </v>
   <v>       0.34023267       0.53840933       0.65265733 </v>
   <v>       0.35578133       0.68576000       0.56818200 </v>
   <v>       0.48647800       0.66191200       0.47001133 </v>
   <v>       0.63027267       0.49579733       0.60508667 </v>
   <v>       0.48693733       0.58642267       0.61473467 </v>
   <v>       0.73735333       0.49983800       0.65972133 </v>
   <v>       0.81044667       0.51504067       0.67328000 </v>
  </varray>
 </structure>
</modeling>
