 vasp.5.4.4.18Apr17-6-g9f103f2a35 (build May 08 2019 13:49:07) complex          
  
 executed on             LinuxIFC date 2019.11.13  11:28:22
 running on   24 total cores
 distrk:  each k-point on   24 cores,    1 groups
 distr:  one band on NCORES_PER_BAND=   6 cores,    4 groups


--------------------------------------------------------------------------------------------------------


 INCAR:
 POTCAR:    PAW_PBE Cu 22Jun2005                  
 POTCAR:    PAW_PBE C 08Apr2002                   
 POTCAR:    PAW_PBE O 08Apr2002                   
 POTCAR:    PAW_PBE Cu 22Jun2005                  
   VRHFIN =Cu: d10 p1                                                           
   LEXCH  = PE                                                                  
   EATOM  =  1390.9808 eV,  102.2342 Ry                                         
                                                                                
   TITEL  = PAW_PBE Cu 22Jun2005                                                
   LULTRA =        F    use ultrasoft PP ?                                      
   IUNSCR =        1    unscreen: 0-lin 1-nonlin 2-no                           
   RPACOR =    2.000    partial core radius                                     
   POMASS =   63.546; ZVAL   =   11.000    mass and valenz                      
   RCORE  =    2.300    outmost cutoff radius                                   
   RWIGS  =    2.200; RWIGS  =    1.164    wigner-seitz radius (au A)           
   ENMAX  =  295.446; ENMIN  =  221.585 eV                                      
   ICORE  =        3    local potential                                         
   LCOR   =        T    correct aug charges                                     
   LPAW   =        T    paw PP                                                  
   EAUG   =  586.980                                                            
   DEXC   =    0.000                                                            
   RMAX   =    2.344    core radius for proj-oper                               
   RAUG   =    1.300    factor for augmentation sphere                          
   RDEP   =    2.302    radius for radial grids                                 
   RDEPT  =    1.771    core radius for aug-charge                              
                                                                                
   Atomic configuration                                                         
    9 entries                                                                   
     n  l   j            E        occ.                                          
     1  0  0.50     -8850.2468   2.0000                                         
     2  0  0.50     -1062.3498   2.0000                                         
     2  1  1.50      -916.8226   6.0000                                         
     3  0  0.50      -114.6929   2.0000                                         
     3  1  1.50       -72.1325   6.0000                                         
     3  2  2.50        -5.0394  10.0000                                         
     4  0  0.50        -4.6097   1.0000                                         
     4  1  0.50        -4.0817   0.0000                                         
     4  3  2.50        -1.3606   0.0000                                         
   Description                                                                  
     l       E           TYP  RCUT    TYP  RCUT                                 
     2     -5.0393973     23  2.200                                             
     2     10.8846608     23  2.200                                             
     0     -4.6097109     23  2.200                                             
     0      8.2520465     23  2.200                                             
     1     -2.7211652     23  2.200                                             
     1     21.7055443     23  2.200                                             
     3      2.7211652     23  2.300                                             
  local pseudopotential read in
  partial core-charges read in
  partial kinetic energy density read in
  atomic valenz-charges read in
  non local Contribution for L=           2  read in
    real space projection operators read in
  non local Contribution for L=           2  read in
    real space projection operators read in
  non local Contribution for L=           0  read in
    real space projection operators read in
  non local Contribution for L=           0  read in
    real space projection operators read in
  non local Contribution for L=           1  read in
    real space projection operators read in
  non local Contribution for L=           1  read in
    real space projection operators read in
    PAW grid and wavefunctions read in
 
   number of l-projection  operators is LMAX  =           6
   number of lm-projection operators is LMMAX =          18
 
 POTCAR:    PAW_PBE C 08Apr2002                   
   VRHFIN =C: s2p2                                                              
   LEXCH  = PE                                                                  
   EATOM  =   147.1560 eV,   10.8157 Ry                                         
                                                                                
   TITEL  = PAW_PBE C 08Apr2002                                                 
   LULTRA =        F    use ultrasoft PP ?                                      
   IUNSCR =        1    unscreen: 0-lin 1-nonlin 2-no                           
   RPACOR =    1.200    partial core radius                                     
   POMASS =   12.011; ZVAL   =    4.000    mass and valenz                      
   RCORE  =    1.500    outmost cutoff radius                                   
   RWIGS  =    1.630; RWIGS  =    0.863    wigner-seitz radius (au A)           
   ENMAX  =  400.000; ENMIN  =  300.000 eV                                      
   ICORE  =        2    local potential                                         
   LCOR   =        T    correct aug charges                                     
   LPAW   =        T    paw PP                                                  
   EAUG   =  644.873                                                            
   DEXC   =    0.000                                                            
   RMAX   =    1.529    core radius for proj-oper                               
   RAUG   =    1.300    factor for augmentation sphere                          
   RDEP   =    1.501    radius for radial grids                                 
   RDEPT  =    1.300    core radius for aug-charge                              
                                                                                
   Atomic configuration                                                         
    4 entries                                                                   
     n  l   j            E        occ.                                          
     1  0  0.50      -273.3789   2.0000                                         
     2  0  0.50       -13.7508   2.0000                                         
     2  1  0.50        -5.2854   2.0000                                         
     3  2  1.50        -5.4423   0.0000                                         
   Description                                                                  
     l       E           TYP  RCUT    TYP  RCUT                                 
     0    -13.7508458     23  1.200                                             
     0     -8.2022199     23  1.200                                             
     1     -5.2854383     23  1.500                                             
     1     34.0145650     23  1.500                                             
     2     -5.4423304      7  1.500                                             
  local pseudopotential read in
  partial core-charges read in
  partial kinetic energy density read in
  atomic valenz-charges read in
  non local Contribution for L=           0  read in
    real space projection operators read in
  non local Contribution for L=           0  read in
    real space projection operators read in
  non local Contribution for L=           1  read in
    real space projection operators read in
  non local Contribution for L=           1  read in
    real space projection operators read in
    PAW grid and wavefunctions read in
 
   number of l-projection  operators is LMAX  =           4
   number of lm-projection operators is LMMAX =           8
 
 POTCAR:    PAW_PBE O 08Apr2002                   
   VRHFIN =O: s2p4                                                              
   LEXCH  = PE                                                                  
   EATOM  =   432.3788 eV,   31.7789 Ry                                         
                                                                                
   TITEL  = PAW_PBE O 08Apr2002                                                 
   LULTRA =        F    use ultrasoft PP ?                                      
   IUNSCR =        1    unscreen: 0-lin 1-nonlin 2-no                           
   RPACOR =    1.200    partial core radius                                     
   POMASS =   16.000; ZVAL   =    6.000    mass and valenz                      
   RCORE  =    1.520    outmost cutoff radius                                   
   RWIGS  =    1.550; RWIGS  =    0.820    wigner-seitz radius (au A)           
   ENMAX  =  400.000; ENMIN  =  300.000 eV                                      
   ICORE  =        2    local potential                                         
   LCOR   =        T    correct aug charges                                     
   LPAW   =        T    paw PP                                                  
   EAUG   =  605.392                                                            
   DEXC   =    0.000                                                            
   RMAX   =    1.553    core radius for proj-oper                               
   RAUG   =    1.300    factor for augmentation sphere                          
   RDEP   =    1.550    radius for radial grids                                 
   RDEPT  =    1.329    core radius for aug-charge                              
                                                                                
   Atomic configuration                                                         
    4 entries                                                                   
     n  l   j            E        occ.                                          
     1  0  0.50      -514.6923   2.0000                                         
     2  0  0.50       -23.9615   2.0000                                         
     2  1  0.50        -9.0305   4.0000                                         
     3  2  1.50        -9.5241   0.0000                                         
   Description                                                                  
     l       E           TYP  RCUT    TYP  RCUT                                 
     0    -23.9615318     23  1.200                                             
     0     -9.5240782     23  1.200                                             
     1     -9.0304911     23  1.520                                             
     1      8.1634956     23  1.520                                             
     2     -9.5240782      7  1.500                                             
  local pseudopotential read in
  partial core-charges read in
  partial kinetic energy density read in
  kinetic energy density of atom read in
  atomic valenz-charges read in
  non local Contribution for L=           0  read in
    real space projection operators read in
  non local Contribution for L=           0  read in
    real space projection operators read in
  non local Contribution for L=           1  read in
    real space projection operators read in
  non local Contribution for L=           1  read in
    real space projection operators read in
    PAW grid and wavefunctions read in
 
   number of l-projection  operators is LMAX  =           4
   number of lm-projection operators is LMMAX =           8
 
  PAW_PBE Cu 22Jun2005                  :
 energy of atom  1       EATOM=-1390.9808
 kinetic energy error for atom=    0.0033 (will be added to EATOM!!)
  PAW_PBE C 08Apr2002                   :
 energy of atom  2       EATOM= -147.1560
 kinetic energy error for atom=    0.0057 (will be added to EATOM!!)
  PAW_PBE O 08Apr2002                   :
 energy of atom  3       EATOM= -432.3788
 kinetic energy error for atom=    0.0168 (will be added to EATOM!!)
 
 
 POSCAR: Cu13 C1 O1                              
  positions in cartesian coordinates
  No initial velocities read in
 exchange correlation table for  LEXCH =        8
   RHO(1)=    0.500       N(1)  =     2000
   RHO(2)=  100.500       N(2)  =     4000
 


--------------------------------------------------------------------------------------------------------


 ion  position               nearest neighbor table
   1  0.290  0.418  0.555-   8 2.43   3 2.47   6 2.50   2 2.51   9 2.54   7 2.56
   2  0.375  0.547  0.492-  10 2.39   8 2.42   7 2.42   4 2.46  11 2.47   1 2.51   9 2.58  13 2.60
                             6 2.69
   3  0.396  0.293  0.563-   7 2.40   6 2.40   5 2.45   1 2.47
   4  0.534  0.508  0.479-  12 2.39   7 2.43   2 2.46  11 2.49  13 2.54   5 2.55   6 2.65
   5  0.547  0.346  0.529-   6 2.41   7 2.43   3 2.45   4 2.55  12 2.64
   6  0.445  0.436  0.614-   3 2.40   5 2.41  13 2.42   9 2.43   1 2.50   7 2.62   4 2.65   2 2.69

   7  0.419  0.399  0.445-   3 2.40   2 2.42   4 2.43   5 2.43   1 2.56   6 2.62
   8  0.225  0.567  0.549-   9 2.34   2 2.42   1 2.43  10 2.65
   9  0.333  0.545  0.659-   8 2.34   6 2.43  13 2.47  10 2.53   1 2.54   2 2.58
  10  0.355  0.685  0.568-   2 2.39  11 2.44  13 2.52   9 2.53   8 2.65
  11  0.487  0.667  0.475-  13 2.41  10 2.44   2 2.47   4 2.49
  12  0.626  0.483  0.607-  14 1.82   4 2.39   5 2.64  13 2.68
  13  0.485  0.592  0.618-  11 2.41   6 2.42   9 2.47  10 2.52   4 2.54   2 2.60  12 2.68
  14  0.738  0.500  0.649-  15 1.21  12 1.82
  15  0.819  0.497  0.653-  14 1.21
 

IMPORTANT INFORMATION: All symmetrisations will be switched off!
NOSYMM: (Re-)initialisation of all symmetry stuff for point group C_1.

 
 

Automatic generation of k-mesh.
 generate k-points for:    1    1    1
Space group operators:
 irot       det(A)        alpha          n_x          n_y          n_z        tau_x        tau_y        tau_z
    1     1.000000     0.000000     1.000000     0.000000     0.000000     0.000000     0.000000     0.000000
 
 Subroutine IBZKPT returns following result:
 ===========================================
 
 Found      1 irreducible k-points:
 
 Following reciprocal coordinates:
            Coordinates               Weight
  0.000000  0.000000  0.000000      1.000000
 
 Following cartesian coordinates:
            Coordinates               Weight
  0.000000  0.000000  0.000000      1.000000
 


--------------------------------------------------------------------------------------------------------




 Dimension of arrays:
   k-points           NKPTS =      1   k-points in BZ     NKDIM =      1   number of bands    NBANDS=     92
   number of dos      NEDOS =    301   number of ions     NIONS =     15
   non local maximal  LDIM  =      6   non local SUM 2l+1 LMDIM =     18
   total plane-waves  NPLWV = ******
   max r-space proj   IRMAX =      1   max aug-charges    IRDMAX=  15028
   dimension x,y,z NGX =   120 NGY =  120 NGZ =  120
   dimension x,y,z NGXF=   240 NGYF=  240 NGZF=  240
   support grid    NGXF=   240 NGYF=  240 NGZF=  240
   ions per type =              13   1   1
   NGX,Y,Z   is equivalent  to a cutoff of  13.30, 13.30, 13.30 a.u.
   NGXF,Y,Z  is equivalent  to a cutoff of  26.60, 26.60, 26.60 a.u.

 SYSTEM =  CuCO                                    
 POSCAR =  Cu13 C1 O1                              

 Startparameter for this run:
   NWRITE =      2    write-flag & timer
   PREC   = accura    normal or accurate (medium, high low for compatibility)
   ISTART =      0    job   : 0-new  1-cont  2-samecut
   ICHARG =      2    charge: 1-file 2-atom 10-const
   ISPIN  =      2    spin polarized calculation?
   LNONCOLLINEAR =      F non collinear calculations
   LSORBIT =      F    spin-orbit coupling
   INIWAV =      1    electr: 0-lowe 1-rand  2-diag
   LASPH  =      F    aspherical Exc in radial PAW
   METAGGA=      F    non-selfconsistent MetaGGA calc.

 Electronic Relaxation 1
   ENCUT  =  600.0 eV  44.10 Ry    6.64 a.u.  29.96 29.96 29.96*2*pi/ulx,y,z
   ENINI  =  600.0     initial cutoff
   ENAUG  =  644.9 eV  augmentation charge cutoff
   NELM   =    300;   NELMIN=  3; NELMDL= -5     # of ELM steps 
   EDIFF  = 0.1E-06   stopping-criterion for ELM
   LREAL  =      F    real-space projection
   NLSPLINE    = F    spline interpolate recip. space projectors
   LCOMPAT=      F    compatible to vasp.4.4
   GGA_COMPAT  = T    GGA compatible to vasp.4.4-vasp.4.6
   LMAXPAW     = -100 max onsite density
   LMAXMIX     =    2 max onsite mixed and CHGCAR
   VOSKOWN=      0    Vosko Wilk Nusair interpolation
   ROPT   =    0.00000   0.00000   0.00000
 Ionic relaxation
   EDIFFG = -.1E-02   stopping-criterion for IOM
   NSW    =      0    number of steps for IOM
   NBLOCK =      1;   KBLOCK =      1    inner block; outer block 
   IBRION =     -1    ionic relax: 0-MD 1-quasi-New 2-CG
   NFREE  =      0    steps in history (QN), initial steepest desc. (CG)
   ISIF   =      2    stress and relaxation
   IWAVPR =     10    prediction:  0-non 1-charg 2-wave 3-comb
   ISYM   =      0    0-nonsym 1-usesym 2-fastsym
   LCORR  =      T    Harris-Foulkes like correction to forces

   POTIM  = 0.5000    time-step for ionic-motion
   TEIN   =    0.0    initial temperature
   TEBEG  =    0.0;   TEEND  =   0.0 temperature during run
   SMASS  =  -3.00    Nose mass-parameter (am)
   estimated Nose-frequenzy (Omega)   =  0.10E-29 period in steps =****** mass=  -0.514E-26a.u.
   SCALEE = 1.0000    scale energy and forces
   NPACO  =    256;   APACO  = 16.0  distance and # of slots for P.C.
   PSTRESS=    0.0 pullay stress

  Mass of Ions in am
   POMASS =  63.55 12.01 16.00
  Ionic Valenz
   ZVAL   =  11.00  4.00  6.00
  Atomic Wigner-Seitz radii
   RWIGS  =  -1.00 -1.00 -1.00
  virtual crystal weights 
   VCA    =   1.00  1.00  1.00
   NELECT =     153.0000    total number of electrons
   NUPDOWN=       1.0000    fix difference up-down

 DOS related values:
   EMIN   =  10.00;   EMAX   =-10.00  energy-range for DOS
   EFERMI =   0.00
   ISMEAR =     1;   SIGMA  =   0.10  broadening in eV -4-tet -1-fermi 0-gaus

 Electronic relaxation 2 (details)
   IALGO  =     68    algorithm
   LDIAG  =      T    sub-space diagonalisation (order eigenvalues)
   LSUBROT=      F    optimize rotation matrix (better conditioning)
   TURBO    =      0    0=normal 1=particle mesh
   IRESTART =      0    0=no restart 2=restart with 2 vectors
   NREBOOT  =      0    no. of reboots
   NMIN     =      0    reboot dimension
   EREF     =   0.00    reference energy to select bands
   IMIX   =      4    mixing-type and parameters
     AMIX     =   0.40;   BMIX     =  1.00
     AMIX_MAG =   1.60;   BMIX_MAG =  1.00
     AMIN     =   0.10
     WC   =   100.;   INIMIX=   1;  MIXPRE=   1;  MAXMIX= -45

 Intra band minimization:
   WEIMIN = 0.0000     energy-eigenvalue tresh-hold
   EBREAK =  0.27E-09  absolut break condition
   DEPER  =   0.30     relativ break condition  

   TIME   =   0.40     timestep for ELM

  volume/ion in A,a.u.               =     225.00      1518.37
  Fermi-wavevector in a.u.,A,eV,Ry     =   0.583733  1.103095  4.636102  0.340744
  Thomas-Fermi vector in A             =   1.629149
 
 Write flags
   LWAVE        =      F    write WAVECAR
   LDOWNSAMPLE  =      F    k-point downsampling of WAVECAR
   LCHARG       =      F    write CHGCAR
   LVTOT        =      F    write LOCPOT, total local potential
   LVHAR        =      F    write LOCPOT, Hartree potential only
   LELF         =      F    write electronic localiz. function (ELF)
   LORBIT       =      0    0 simple, 1 ext, 2 COOP (PROOUT), +10 PAW based schemes


 Dipole corrections
   LMONO  =      F    monopole corrections only (constant potential shift)
   LDIPOL =      F    correct potential (dipole corrections)
   IDIPOL =      0    1-x, 2-y, 3-z, 4-all directions 
   EPSILON=  1.0000000 bulk dielectric constant

 Exchange correlation treatment:
   GGA     =    PE    GGA type
   LEXCH   =     8    internal setting for exchange type
   VOSKOWN=      0    Vosko Wilk Nusair interpolation
   LHFCALC =     F    Hartree Fock is set to
   LHFONE  =     F    Hartree Fock one center treatment
   AEXX    =    0.0000 exact exchange contribution

 Linear response parameters
   LEPSILON=     F    determine dielectric tensor
   LRPA    =     F    only Hartree local field effects (RPA)
   LNABLA  =     F    use nabla operator in PAW spheres
   LVEL    =     F    velocity operator in full k-point grid
   LINTERFAST=   F  fast interpolation
   KINTER  =     0    interpolate to denser k-point grid
   CSHIFT  =0.1000    complex shift for real part using Kramers Kronig
   OMEGAMAX=  -1.0    maximum frequency
   DEG_THRESHOLD= 0.2000000E-02 threshold for treating states as degnerate
   RTIME   =   -0.100 relaxation time in fs
  (WPLASMAI=    0.000 imaginary part of plasma frequency in eV, 0.658/RTIME)
   DFIELD  = 0.0000000 0.0000000 0.0000000 field for delta impulse in time
 
 Orbital magnetization related:
   ORBITALMAG=     F  switch on orbital magnetization
   LCHIMAG   =     F  perturbation theory with respect to B field
   DQ        =  0.001000  dq finite difference perturbation B field
   LLRAUG    =     F  two centre corrections for induced B field



--------------------------------------------------------------------------------------------------------


 Static calculation
 charge density and potential will be updated during run
 spin polarized calculation
 RMM-DIIS sequential band-by-band and
  variant of blocked Davidson during initial phase
 perform sub-space diagonalisation
    before iterative eigenvector-optimisation
 modified Broyden-mixing scheme, WC =      100.0
 initial mixing is a Kerker type mixing with AMIX =  0.4000 and BMIX =      1.0000
 Hartree-type preconditioning will be used
 using additional bands           15
 reciprocal scheme for non local part
 use partial core corrections
 calculate Harris-corrections to forces 
   (improved forces if not selfconsistent)
 use gradient corrections 
 use of overlap-Matrix (Vanderbilt PP)
 Methfessel and Paxton  Order N= 1 SIGMA  =   0.10


--------------------------------------------------------------------------------------------------------


  energy-cutoff  :      600.00
  volume of cell :     3375.00
      direct lattice vectors                 reciprocal lattice vectors
    15.000000000  0.000000000  0.000000000     0.066666667  0.000000000  0.000000000
     0.000000000 15.000000000  0.000000000     0.000000000  0.066666667  0.000000000
     0.000000000  0.000000000 15.000000000     0.000000000  0.000000000  0.066666667

  length of vectors
    15.000000000 15.000000000 15.000000000     0.066666667  0.066666667  0.066666667


 
 k-points in units of 2pi/SCALE and weight: read from INCAR                         
   0.00000000  0.00000000  0.00000000       1.000
 
 k-points in reciprocal lattice and weights: read from INCAR                         
   0.00000000  0.00000000  0.00000000       1.000
 
 position of ions in fractional coordinates (direct lattice) 
   0.28968067  0.41774467  0.55525333
   0.37497800  0.54721200  0.49182600
   0.39649867  0.29278600  0.56274933
   0.53396200  0.50770067  0.47921933
   0.54705000  0.34585933  0.52910133
   0.44451867  0.43628867  0.61412667
   0.41876333  0.39887133  0.44534000
   0.22514800  0.56650667  0.54863467
   0.33306600  0.54466000  0.65886733
   0.35458667  0.68524667  0.56836600
   0.48707933  0.66676667  0.47538133
   0.62594133  0.48280733  0.60686733
   0.48544200  0.59232800  0.61781200
   0.73841333  0.49962667  0.64893533
   0.81890667  0.49669200  0.65323800
 
 position of ions in cartesian coordinates  (Angst):
   4.34521000  6.26617000  8.32880000
   5.62467000  8.20818000  7.37739000
   5.94748000  4.39179000  8.44124000
   8.00943000  7.61551000  7.18829000
   8.20575000  5.18789000  7.93652000
   6.66778000  6.54433000  9.21190000
   6.28145000  5.98307000  6.68010000
   3.37722000  8.49760000  8.22952000
   4.99599000  8.16990000  9.88301000
   5.31880000 10.27870000  8.52549000
   7.30619000 10.00150000  7.13072000
   9.38912000  7.24211000  9.10301000
   7.28163000  8.88492000  9.26718000
  11.07620000  7.49440000  9.73403000
  12.28360000  7.45038000  9.79857000
 


--------------------------------------------------------------------------------------------------------


 k-point  1 :   0.0000 0.0000 0.0000  plane waves:  112451

 maximum and minimum number of plane-waves per node :     18753    18726

 maximum number of plane-waves:    112451
 maximum index in each direction: 
   IXMAX=   29   IYMAX=   29   IZMAX=   29
   IXMIN=  -29   IYMIN=  -29   IZMIN=  -29


 parallel 3D FFT for wavefunctions:
    minimum data exchange during FFTs selected (reduces bandwidth)
 parallel 3D FFT for charge:
    minimum data exchange during FFTs selected (reduces bandwidth)


 total amount of memory used by VASP MPI-rank0   158680. kBytes
=======================================================================

   base      :      30000. kBytes
   nonl-proj :      12601. kBytes
   fftplans  :      27994. kBytes
   grid      :      74150. kBytes
   one-center:         93. kBytes
   wavefun   :      13842. kBytes
 
     INWAV:  cpu time    0.0000: real time    0.0001
 Broyden mixing: mesh for mixing (old mesh)
   NGX = 59   NGY = 59   NGZ = 59
  (NGX  =240   NGY  =240   NGZ  =240)
  gives a total of 205379 points

 initial charge density was supplied:
 charge density of overlapping atoms calculated
 number of electron     153.0000000 magnetization       1.0000000
 keeping initial charge density in first step


--------------------------------------------------------------------------------------------------------


 Maximum index for augmentation-charges          712 (set IRDMAX)


--------------------------------------------------------------------------------------------------------


 First call to EWALD:  gamma=   0.118
 Maximum number of real-space cells 3x 3x 3
 Maximum number of reciprocal cells 3x 3x 3

    FEWALD:  cpu time    0.0016: real time    0.0022


--------------------------------------- Iteration      1(   1)  ---------------------------------------


    POTLOK:  cpu time    1.1816: real time    1.1841
    SETDIJ:  cpu time    0.0168: real time    0.0168
     EDDAV:  cpu time    7.5913: real time    7.5953
       DOS:  cpu time    0.0006: real time    0.0006
    --------------------------------------------
      LOOP:  cpu time    8.7904: real time    8.7969

 eigenvalue-minimisations  :   376
 total energy-change (2. order) : 0.1113514E+04  (-0.4458916E+04)
 number of electron     153.0000000 magnetization       1.0000000
 augmentation part      153.0000000 magnetization       1.0000000

 Free energy of the ion-electron system (eV)
  ---------------------------------------------------
  alpha Z        PSCENC =        41.16232785
  Ewald energy   TEWEN  =     16180.77449483
  -Hartree energ DENC   =    -33211.76192629
  -exchange      EXHF   =         0.00000000
  -V(xc)+E(xc)   XCENC  =       622.99410966
  PAW double counting   =     16421.75059358   -17800.06104309
  entropy T*S    EENTRO =         0.01484057
  eigenvalues    EBANDS =       196.42125515
  atomic energy  EATOM  =     18662.21924712
  Solvation  Ediel_sol  =         0.00000000
  ---------------------------------------------------
  free energy    TOTEN  =      1113.51389937 eV

  energy without entropy =     1113.49905879  energy(sigma->0) =     1113.50895251


--------------------------------------------------------------------------------------------------------




--------------------------------------- Iteration      1(   2)  ---------------------------------------


     EDDAV:  cpu time    7.4217: real time    7.4255
       DOS:  cpu time    0.0004: real time    0.0004
    --------------------------------------------
      LOOP:  cpu time    7.4221: real time    7.4259

 eigenvalue-minimisations  :   368
 total energy-change (2. order) :-0.1027613E+04  (-0.9757905E+03)
 number of electron     153.0000000 magnetization       1.0000000
 augmentation part      153.0000000 magnetization       1.0000000

 Free energy of the ion-electron system (eV)
  ---------------------------------------------------
  alpha Z        PSCENC =        41.16232785
  Ewald energy   TEWEN  =     16180.77449483
  -Hartree energ DENC   =    -33211.76192629
  -exchange      EXHF   =         0.00000000
  -V(xc)+E(xc)   XCENC  =       622.99410966
  PAW double counting   =     16421.75059358   -17800.06104309
  entropy T*S    EENTRO =         0.00581863
  eigenvalues    EBANDS =      -831.18289413
  atomic energy  EATOM  =     18662.21924712
  Solvation  Ediel_sol  =         0.00000000
  ---------------------------------------------------
  free energy    TOTEN  =        85.90072814 eV

  energy without entropy =       85.89490952  energy(sigma->0) =       85.89878860


--------------------------------------------------------------------------------------------------------




--------------------------------------- Iteration      1(   3)  ---------------------------------------


     EDDAV:  cpu time   11.4254: real time   11.4302
       DOS:  cpu time    0.0003: real time    0.0003
    --------------------------------------------
      LOOP:  cpu time   11.4257: real time   11.4306

 eigenvalue-minimisations  :   648
 total energy-change (2. order) :-0.1196894E+03  (-0.1120017E+03)
 number of electron     153.0000000 magnetization       1.0000000
 augmentation part      153.0000000 magnetization       1.0000000

 Free energy of the ion-electron system (eV)
  ---------------------------------------------------
  alpha Z        PSCENC =        41.16232785
  Ewald energy   TEWEN  =     16180.77449483
  -Hartree energ DENC   =    -33211.76192629
  -exchange      EXHF   =         0.00000000
  -V(xc)+E(xc)   XCENC  =       622.99410966
  PAW double counting   =     16421.75059358   -17800.06104309
  entropy T*S    EENTRO =         0.00844218
  eigenvalues    EBANDS =      -950.87487398
  atomic energy  EATOM  =     18662.21924712
  Solvation  Ediel_sol  =         0.00000000
  ---------------------------------------------------
  free energy    TOTEN  =       -33.78862816 eV

  energy without entropy =      -33.79707033  energy(sigma->0) =      -33.79144221


--------------------------------------------------------------------------------------------------------




--------------------------------------- Iteration      1(   4)  ---------------------------------------


     EDDAV:  cpu time   10.1306: real time   10.1384
       DOS:  cpu time    0.0005: real time    0.0005
    --------------------------------------------
      LOOP:  cpu time   10.1311: real time   10.1389

 eigenvalue-minimisations  :   552
 total energy-change (2. order) :-0.2176861E+02  (-0.2138996E+02)
 number of electron     153.0000000 magnetization       1.0000000
 augmentation part      153.0000000 magnetization       1.0000000

 Free energy of the ion-electron system (eV)
  ---------------------------------------------------
  alpha Z        PSCENC =        41.16232785
  Ewald energy   TEWEN  =     16180.77449483
  -Hartree energ DENC   =    -33211.76192629
  -exchange      EXHF   =         0.00000000
  -V(xc)+E(xc)   XCENC  =       622.99410966
  PAW double counting   =     16421.75059358   -17800.06104309
  entropy T*S    EENTRO =         0.00922733
  eigenvalues    EBANDS =      -972.64426880
  atomic energy  EATOM  =     18662.21924712
  Solvation  Ediel_sol  =         0.00000000
  ---------------------------------------------------
  free energy    TOTEN  =       -55.55723782 eV

  energy without entropy =      -55.56646515  energy(sigma->0) =      -55.56031359


--------------------------------------------------------------------------------------------------------




--------------------------------------- Iteration      1(   5)  ---------------------------------------


     EDDAV:  cpu time   12.0942: real time   12.1013
       DOS:  cpu time    0.0006: real time    0.0006
    CHARGE:  cpu time    0.6954: real time    0.6957
    MIXING:  cpu time    0.0221: real time    0.0222
    --------------------------------------------
      LOOP:  cpu time   12.8123: real time   12.8198

 eigenvalue-minimisations  :   688
 total energy-change (2. order) :-0.1807384E+01  (-0.1634585E+01)
 number of electron     153.0000040 magnetization       1.0000000
 augmentation part       87.3592893 magnetization       0.3833313

 Broyden mixing:
  rms(total) = 0.24192E+01    rms(broyden)= 0.24191E+01
  rms(prec ) = 0.27899E+01
  weight for this iteration     100.00

 Free energy of the ion-electron system (eV)
  ---------------------------------------------------
  alpha Z        PSCENC =        41.16232785
  Ewald energy   TEWEN  =     16180.77449483
  -Hartree energ DENC   =    -33211.76192629
  -exchange      EXHF   =         0.00000000
  -V(xc)+E(xc)   XCENC  =       622.99410966
  PAW double counting   =     16421.75059358   -17800.06104309
  entropy T*S    EENTRO =         0.00968374
  eigenvalues    EBANDS =      -974.45210948
  atomic energy  EATOM  =     18662.21924712
  Solvation  Ediel_sol  =         0.00000000
  ---------------------------------------------------
  free energy    TOTEN  =       -57.36462209 eV

  energy without entropy =      -57.37430583  energy(sigma->0) =      -57.36785000


--------------------------------------------------------------------------------------------------------




--------------------------------------- Iteration      1(   6)  ---------------------------------------


    POTLOK:  cpu time    1.1575: real time    1.1585
    SETDIJ:  cpu time    0.0155: real time    0.0155
    EDDIAG:  cpu time    1.1023: real time    1.1028
  RMM-DIIS:  cpu time    7.0347: real time    7.0384
    ORTHCH:  cpu time    0.0608: real time    0.0608
       DOS:  cpu time    0.0007: real time    0.0007
    CHARGE:  cpu time    0.6586: real time    0.6586
    MIXING:  cpu time    0.0228: real time    0.0228
    --------------------------------------------
      LOOP:  cpu time   10.0529: real time   10.0581

 eigenvalue-minimisations  :   422
 total energy-change (2. order) :-0.1222889E+00  (-0.1298759E+02)
 number of electron     153.0000044 magnetization       1.0000000
 augmentation part       95.8365124 magnetization       0.0712052

 Broyden mixing:
  rms(total) = 0.16603E+01    rms(broyden)= 0.16601E+01
  rms(prec ) = 0.19166E+01
  weight for this iteration     100.00

 eigenvalues of (default mixing * dielectric matrix)
  average eigenvalue GAMMA=   0.5996
  0.5996

 Free energy of the ion-electron system (eV)
  ---------------------------------------------------
  alpha Z        PSCENC =        41.16232785
  Ewald energy   TEWEN  =     16180.77449483
  -Hartree energ DENC   =    -32949.51818307
  -exchange      EXHF   =         0.00000000
  -V(xc)+E(xc)   XCENC  =       610.63153123
  PAW double counting   =     16650.20550220   -17972.09192249
  entropy T*S    EENTRO =         0.00861892
  eigenvalues    EBANDS =     -1280.87852762
  atomic energy  EATOM  =     18662.21924712
  Solvation  Ediel_sol  =         0.00000000
  ---------------------------------------------------
  free energy    TOTEN  =       -57.48691103 eV

  energy without entropy =      -57.49552995  energy(sigma->0) =      -57.48978401


--------------------------------------------------------------------------------------------------------




--------------------------------------- Iteration      1(   7)  ---------------------------------------


    POTLOK:  cpu time    1.1549: real time    1.1588
    SETDIJ:  cpu time    0.0160: real time    0.0160
    EDDIAG:  cpu time    1.1022: real time    1.1027
  RMM-DIIS:  cpu time    6.7865: real time    6.7891
    ORTHCH:  cpu time    0.0618: real time    0.0620
       DOS:  cpu time    0.0006: real time    0.0006
    CHARGE:  cpu time    0.6655: real time    0.6656
    MIXING:  cpu time    0.0241: real time    0.0241
    --------------------------------------------
      LOOP:  cpu time    9.8116: real time    9.8188

 eigenvalue-minimisations  :   377
 total energy-change (2. order) : 0.8197113E+01  (-0.2712340E+01)
 number of electron     153.0000043 magnetization       1.0000000
 augmentation part       92.9912545 magnetization       0.1040050

 Broyden mixing:
  rms(total) = 0.42364E+00    rms(broyden)= 0.42361E+00
  rms(prec ) = 0.53105E+00
  weight for this iteration     100.00

 eigenvalues of (default mixing * dielectric matrix)
  average eigenvalue GAMMA=   0.8801
  1.0681  0.6921

 Free energy of the ion-electron system (eV)
  ---------------------------------------------------
  alpha Z        PSCENC =        41.16232785
  Ewald energy   TEWEN  =     16180.77449483
  -Hartree energ DENC   =    -33086.17099989
  -exchange      EXHF   =         0.00000000
  -V(xc)+E(xc)   XCENC  =       615.08557636
  PAW double counting   =     16976.68501542   -18349.01522168
  entropy T*S    EENTRO =         0.00929159
  eigenvalues    EBANDS =     -1090.03952965
  atomic energy  EATOM  =     18662.21924712
  Solvation  Ediel_sol  =         0.00000000
  ---------------------------------------------------
  free energy    TOTEN  =       -49.28979805 eV

  energy without entropy =      -49.29908964  energy(sigma->0) =      -49.29289525


--------------------------------------------------------------------------------------------------------




--------------------------------------- Iteration      1(   8)  ---------------------------------------


    POTLOK:  cpu time    1.1560: real time    1.1566
    SETDIJ:  cpu time    0.0165: real time    0.0165
    EDDIAG:  cpu time    1.1015: real time    1.1025
  RMM-DIIS:  cpu time    6.8648: real time    6.8673
    ORTHCH:  cpu time    0.0623: real time    0.0625
       DOS:  cpu time    0.0006: real time    0.0006
    CHARGE:  cpu time    0.6436: real time    0.6436
    MIXING:  cpu time    0.0238: real time    0.0238
    --------------------------------------------
      LOOP:  cpu time    9.8691: real time    9.8733

 eigenvalue-minimisations  :   422
 total energy-change (2. order) : 0.3529060E+00  (-0.4679409E+00)
 number of electron     153.0000042 magnetization       1.0000000
 augmentation part       92.1381632 magnetization       0.1016630

 Broyden mixing:
  rms(total) = 0.30492E+00    rms(broyden)= 0.30489E+00
  rms(prec ) = 0.34578E+00
  weight for this iteration     100.00

 eigenvalues of (default mixing * dielectric matrix)
  average eigenvalue GAMMA=   0.8747
  1.2175  0.7034  0.7034

 Free energy of the ion-electron system (eV)
  ---------------------------------------------------
  alpha Z        PSCENC =        41.16232785
  Ewald energy   TEWEN  =     16180.77449483
  -Hartree energ DENC   =    -33134.95520475
  -exchange      EXHF   =         0.00000000
  -V(xc)+E(xc)   XCENC  =       615.55299422
  PAW double counting   =     17288.75278737   -18679.89395239
  entropy T*S    EENTRO =         0.00934323
  eigenvalues    EBANDS =     -1022.55892953
  atomic energy  EATOM  =     18662.21924712
  Solvation  Ediel_sol  =         0.00000000
  ---------------------------------------------------
  free energy    TOTEN  =       -48.93689205 eV

  energy without entropy =      -48.94623528  energy(sigma->0) =      -48.94000646


--------------------------------------------------------------------------------------------------------




--------------------------------------- Iteration      1(   9)  ---------------------------------------


    POTLOK:  cpu time    1.1566: real time    1.1578
    SETDIJ:  cpu time    0.0162: real time    0.0162
    EDDIAG:  cpu time    1.1022: real time    1.1029
  RMM-DIIS:  cpu time    6.7115: real time    6.7175
    ORTHCH:  cpu time    0.0604: real time    0.0604
       DOS:  cpu time    0.0004: real time    0.0004
    CHARGE:  cpu time    0.6876: real time    0.6880
    MIXING:  cpu time    0.0256: real time    0.0256
    --------------------------------------------
      LOOP:  cpu time    9.7606: real time    9.7688

 eigenvalue-minimisations  :   407
 total energy-change (2. order) : 0.3532875E-01  (-0.1058468E+00)
 number of electron     153.0000042 magnetization       1.0000000
 augmentation part       92.2876087 magnetization       0.0876162

 Broyden mixing:
  rms(total) = 0.19822E+00    rms(broyden)= 0.19822E+00
  rms(prec ) = 0.23534E+00
  weight for this iteration     100.00

 eigenvalues of (default mixing * dielectric matrix)
  average eigenvalue GAMMA=   1.0062
  1.9994  0.7648  0.7648  0.4961

 Free energy of the ion-electron system (eV)
  ---------------------------------------------------
  alpha Z        PSCENC =        41.16232785
  Ewald energy   TEWEN  =     16180.77449483
  -Hartree energ DENC   =    -33134.27987112
  -exchange      EXHF   =         0.00000000
  -V(xc)+E(xc)   XCENC  =       615.15101579
  PAW double counting   =     17385.76099790   -18779.17141662
  entropy T*S    EENTRO =         0.00925045
  eigenvalues    EBANDS =     -1020.52760950
  atomic energy  EATOM  =     18662.21924712
  Solvation  Ediel_sol  =         0.00000000
  ---------------------------------------------------
  free energy    TOTEN  =       -48.90156330 eV

  energy without entropy =      -48.91081375  energy(sigma->0) =      -48.90464678


--------------------------------------------------------------------------------------------------------




--------------------------------------- Iteration      1(  10)  ---------------------------------------


    POTLOK:  cpu time    1.1608: real time    1.1617
    SETDIJ:  cpu time    0.0166: real time    0.0166
    EDDIAG:  cpu time    1.0986: real time    1.0995
  RMM-DIIS:  cpu time    7.8969: real time    7.9010
    ORTHCH:  cpu time    0.0605: real time    0.0607
       DOS:  cpu time    0.0004: real time    0.0004
    CHARGE:  cpu time    0.6894: real time    0.6896
    MIXING:  cpu time    0.0253: real time    0.0253
    --------------------------------------------
      LOOP:  cpu time   10.9486: real time   10.9549

 eigenvalue-minimisations  :   424
 total energy-change (2. order) : 0.6820562E-01  (-0.2433347E-01)
 number of electron     153.0000042 magnetization       1.0000000
 augmentation part       92.4428826 magnetization       0.0746234

 Broyden mixing:
  rms(total) = 0.61762E-01    rms(broyden)= 0.61753E-01
  rms(prec ) = 0.78749E-01
  weight for this iteration     100.00

 eigenvalues of (default mixing * dielectric matrix)
  average eigenvalue GAMMA=   0.9958
  2.0231  0.8489  0.8489  0.7808  0.4776

 Free energy of the ion-electron system (eV)
  ---------------------------------------------------
  alpha Z        PSCENC =        41.16232785
  Ewald energy   TEWEN  =     16180.77449483
  -Hartree energ DENC   =    -33133.54993397
  -exchange      EXHF   =         0.00000000
  -V(xc)+E(xc)   XCENC  =       614.71390700
  PAW double counting   =     17491.19927558   -18886.71684672
  entropy T*S    EENTRO =         0.00932648
  eigenvalues    EBANDS =     -1018.64515586
  atomic energy  EATOM  =     18662.21924712
  Solvation  Ediel_sol  =         0.00000000
  ---------------------------------------------------
  free energy    TOTEN  =       -48.83335768 eV

  energy without entropy =      -48.84268416  energy(sigma->0) =      -48.83646650


--------------------------------------------------------------------------------------------------------




--------------------------------------- Iteration      1(  11)  ---------------------------------------


    POTLOK:  cpu time    1.1612: real time    1.1646
    SETDIJ:  cpu time    0.0165: real time    0.0165
    EDDIAG:  cpu time    1.1007: real time    1.1011
  RMM-DIIS:  cpu time    7.3656: real time    7.3695
    ORTHCH:  cpu time    0.0566: real time    0.0566
       DOS:  cpu time    0.0004: real time    0.0004
    CHARGE:  cpu time    0.6922: real time    0.6925
    MIXING:  cpu time    0.0265: real time    0.0265
    --------------------------------------------
      LOOP:  cpu time   10.4197: real time   10.4279

 eigenvalue-minimisations  :   438
 total energy-change (2. order) : 0.6957082E-02  (-0.7748090E-02)
 number of electron     153.0000042 magnetization       1.0000000
 augmentation part       92.3788236 magnetization       0.0788761

 Broyden mixing:
  rms(total) = 0.42361E-01    rms(broyden)= 0.42358E-01
  rms(prec ) = 0.54314E-01
  weight for this iteration     100.00

 eigenvalues of (default mixing * dielectric matrix)
  average eigenvalue GAMMA=   1.0193
  2.1017  1.3072  0.8546  0.6824  0.6824  0.4877

 Free energy of the ion-electron system (eV)
  ---------------------------------------------------
  alpha Z        PSCENC =        41.16232785
  Ewald energy   TEWEN  =     16180.77449483
  -Hartree energ DENC   =    -33140.83910565
  -exchange      EXHF   =         0.00000000
  -V(xc)+E(xc)   XCENC  =       614.83547927
  PAW double counting   =     17534.16266866   -18931.80061971
  entropy T*S    EENTRO =         0.00924610
  eigenvalues    EBANDS =     -1009.35013906
  atomic energy  EATOM  =     18662.21924712
  Solvation  Ediel_sol  =         0.00000000
  ---------------------------------------------------
  free energy    TOTEN  =       -48.82640059 eV

  energy without entropy =      -48.83564669  energy(sigma->0) =      -48.82948263


--------------------------------------------------------------------------------------------------------




--------------------------------------- Iteration      1(  12)  ---------------------------------------


    POTLOK:  cpu time    1.1604: real time    1.1608
    SETDIJ:  cpu time    0.0167: real time    0.0167
    EDDIAG:  cpu time    1.1036: real time    1.1041
  RMM-DIIS:  cpu time    6.7083: real time    6.7119
    ORTHCH:  cpu time    0.0566: real time    0.0566
       DOS:  cpu time    0.0004: real time    0.0004
    CHARGE:  cpu time    0.6909: real time    0.6912
    MIXING:  cpu time    0.0285: real time    0.0285
    --------------------------------------------
      LOOP:  cpu time    9.7654: real time    9.7703

 eigenvalue-minimisations  :   412
 total energy-change (2. order) : 0.3491538E-02  (-0.2094233E-02)
 number of electron     153.0000042 magnetization       1.0000000
 augmentation part       92.3893276 magnetization       0.0790840

 Broyden mixing:
  rms(total) = 0.22417E-01    rms(broyden)= 0.22416E-01
  rms(prec ) = 0.33232E-01
  weight for this iteration     100.00

 eigenvalues of (default mixing * dielectric matrix)
  average eigenvalue GAMMA=   1.0436
  2.3805  1.5889  0.8574  0.7115  0.7115  0.5868  0.4685

 Free energy of the ion-electron system (eV)
  ---------------------------------------------------
  alpha Z        PSCENC =        41.16232785
  Ewald energy   TEWEN  =     16180.77449483
  -Hartree energ DENC   =    -33144.03021114
  -exchange      EXHF   =         0.00000000
  -V(xc)+E(xc)   XCENC  =       614.87051347
  PAW double counting   =     17547.79387544   -18945.96273558
  entropy T*S    EENTRO =         0.00929731
  eigenvalues    EBANDS =     -1005.65971834
  atomic energy  EATOM  =     18662.21924712
  Solvation  Ediel_sol  =         0.00000000
  ---------------------------------------------------
  free energy    TOTEN  =       -48.82290905 eV

  energy without entropy =      -48.83220636  energy(sigma->0) =      -48.82600816


--------------------------------------------------------------------------------------------------------




--------------------------------------- Iteration      1(  13)  ---------------------------------------


    POTLOK:  cpu time    1.1607: real time    1.1615
    SETDIJ:  cpu time    0.0167: real time    0.0167
    EDDIAG:  cpu time    1.1017: real time    1.1029
  RMM-DIIS:  cpu time    7.7512: real time    7.7545
    ORTHCH:  cpu time    0.0568: real time    0.0568
       DOS:  cpu time    0.0004: real time    0.0004
    CHARGE:  cpu time    0.6924: real time    0.6928
    MIXING:  cpu time    0.0273: real time    0.0273
    --------------------------------------------
      LOOP:  cpu time   10.8073: real time   10.8127

 eigenvalue-minimisations  :   416
 total energy-change (2. order) : 0.1275228E-02  (-0.6444697E-03)
 number of electron     153.0000042 magnetization       1.0000000
 augmentation part       92.4085966 magnetization       0.0794177

 Broyden mixing:
  rms(total) = 0.97987E-02    rms(broyden)= 0.97981E-02
  rms(prec ) = 0.20215E-01
  weight for this iteration     100.00

 eigenvalues of (default mixing * dielectric matrix)
  average eigenvalue GAMMA=   1.0723
  2.4352  1.6965  1.0169  1.0169  0.7144  0.7144  0.5326  0.4515

 Free energy of the ion-electron system (eV)
  ---------------------------------------------------
  alpha Z        PSCENC =        41.16232785
  Ewald energy   TEWEN  =     16180.77449483
  -Hartree energ DENC   =    -33146.79203835
  -exchange      EXHF   =         0.00000000
  -V(xc)+E(xc)   XCENC  =       614.86218901
  PAW double counting   =     17554.46586409   -18952.70843198
  entropy T*S    EENTRO =         0.00927074
  eigenvalues    EBANDS =     -1002.81455714
  atomic energy  EATOM  =     18662.21924712
  Solvation  Ediel_sol  =         0.00000000
  ---------------------------------------------------
  free energy    TOTEN  =       -48.82163383 eV

  energy without entropy =      -48.83090457  energy(sigma->0) =      -48.82472407


--------------------------------------------------------------------------------------------------------




--------------------------------------- Iteration      1(  14)  ---------------------------------------


    POTLOK:  cpu time    1.1597: real time    1.1634
    SETDIJ:  cpu time    0.0165: real time    0.0165
    EDDIAG:  cpu time    1.1027: real time    1.1032
  RMM-DIIS:  cpu time    6.7781: real time    6.7829
    ORTHCH:  cpu time    0.0568: real time    0.0568
       DOS:  cpu time    0.0004: real time    0.0004
    CHARGE:  cpu time    0.6914: real time    0.6916
    MIXING:  cpu time    0.0288: real time    0.0288
    --------------------------------------------
      LOOP:  cpu time    9.8344: real time    9.8437

 eigenvalue-minimisations  :   411
 total energy-change (2. order) :-0.8162609E-03  (-0.3528614E-03)
 number of electron     153.0000042 magnetization       1.0000000
 augmentation part       92.4162850 magnetization       0.0791543

 Broyden mixing:
  rms(total) = 0.12293E-01    rms(broyden)= 0.12292E-01
  rms(prec ) = 0.18347E-01
  weight for this iteration     100.00

 eigenvalues of (default mixing * dielectric matrix)
  average eigenvalue GAMMA=   1.0970
  2.2588  2.2588  1.1199  0.9200  0.9200  0.7157  0.7157  0.5037  0.4603

 Free energy of the ion-electron system (eV)
  ---------------------------------------------------
  alpha Z        PSCENC =        41.16232785
  Ewald energy   TEWEN  =     16180.77449483
  -Hartree energ DENC   =    -33151.19154181
  -exchange      EXHF   =         0.00000000
  -V(xc)+E(xc)   XCENC  =       614.88118127
  PAW double counting   =     17549.99324325   -18947.99004746
  entropy T*S    EENTRO =         0.00927805
  eigenvalues    EBANDS =      -998.68063318
  atomic energy  EATOM  =     18662.21924712
  Solvation  Ediel_sol  =         0.00000000
  ---------------------------------------------------
  free energy    TOTEN  =       -48.82245009 eV

  energy without entropy =      -48.83172814  energy(sigma->0) =      -48.82554277


--------------------------------------------------------------------------------------------------------




--------------------------------------- Iteration      1(  15)  ---------------------------------------


    POTLOK:  cpu time    1.1592: real time    1.1597
    SETDIJ:  cpu time    0.0169: real time    0.0169
    EDDIAG:  cpu time    1.1033: real time    1.1039
  RMM-DIIS:  cpu time    6.6771: real time    6.6801
    ORTHCH:  cpu time    0.0570: real time    0.0570
       DOS:  cpu time    0.0004: real time    0.0004
    CHARGE:  cpu time    0.6912: real time    0.6913
    MIXING:  cpu time    0.0292: real time    0.0292
    --------------------------------------------
      LOOP:  cpu time    9.7343: real time    9.7384

 eigenvalue-minimisations  :   399
 total energy-change (2. order) :-0.9688978E-03  (-0.1904297E-03)
 number of electron     153.0000042 magnetization       1.0000000
 augmentation part       92.4037803 magnetization       0.0797451

 Broyden mixing:
  rms(total) = 0.51319E-02    rms(broyden)= 0.51314E-02
  rms(prec ) = 0.99938E-02
  weight for this iteration     100.00

 eigenvalues of (default mixing * dielectric matrix)
  average eigenvalue GAMMA=   1.1440
  2.5822  2.5822  1.1424  1.0885  1.0885  0.6938  0.6938  0.6155  0.4936  0.4596

 Free energy of the ion-electron system (eV)
  ---------------------------------------------------
  alpha Z        PSCENC =        41.16232785
  Ewald energy   TEWEN  =     16180.77449483
  -Hartree energ DENC   =    -33155.40346522
  -exchange      EXHF   =         0.00000000
  -V(xc)+E(xc)   XCENC  =       614.93210266
  PAW double counting   =     17544.62499145   -18942.56879256
  entropy T*S    EENTRO =         0.00927637
  eigenvalues    EBANDS =      -994.57360148
  atomic energy  EATOM  =     18662.21924712
  Solvation  Ediel_sol  =         0.00000000
  ---------------------------------------------------
  free energy    TOTEN  =       -48.82341898 eV

  energy without entropy =      -48.83269535  energy(sigma->0) =      -48.82651111


--------------------------------------------------------------------------------------------------------




--------------------------------------- Iteration      1(  16)  ---------------------------------------


    POTLOK:  cpu time    1.1592: real time    1.1599
    SETDIJ:  cpu time    0.0168: real time    0.0168
    EDDIAG:  cpu time    1.1042: real time    1.1048
  RMM-DIIS:  cpu time    7.0593: real time    7.0621
    ORTHCH:  cpu time    0.0567: real time    0.0567
       DOS:  cpu time    0.0004: real time    0.0004
    CHARGE:  cpu time    0.6973: real time    0.6977
    MIXING:  cpu time    0.0302: real time    0.0302
    --------------------------------------------
      LOOP:  cpu time   10.1240: real time   10.1284

 eigenvalue-minimisations  :   392
 total energy-change (2. order) :-0.1285989E-02  (-0.1221845E-03)
 number of electron     153.0000042 magnetization       1.0000000
 augmentation part       92.3991813 magnetization       0.0800727

 Broyden mixing:
  rms(total) = 0.69422E-02    rms(broyden)= 0.69420E-02
  rms(prec ) = 0.95750E-02
  weight for this iteration     100.00

 eigenvalues of (default mixing * dielectric matrix)
  average eigenvalue GAMMA=   1.1457
  2.7464  2.7464  1.1711  1.1711  1.0297  0.7427  0.7427  0.7682  0.4539  0.5150
  0.5150

 Free energy of the ion-electron system (eV)
  ---------------------------------------------------
  alpha Z        PSCENC =        41.16232785
  Ewald energy   TEWEN  =     16180.77449483
  -Hartree energ DENC   =    -33158.13633518
  -exchange      EXHF   =         0.00000000
  -V(xc)+E(xc)   XCENC  =       614.96315438
  PAW double counting   =     17540.99854829   -18938.90309807
  entropy T*S    EENTRO =         0.00926700
  eigenvalues    EBANDS =      -991.91231119
  atomic energy  EATOM  =     18662.21924712
  Solvation  Ediel_sol  =         0.00000000
  ---------------------------------------------------
  free energy    TOTEN  =       -48.82470497 eV

  energy without entropy =      -48.83397197  energy(sigma->0) =      -48.82779397


--------------------------------------------------------------------------------------------------------




--------------------------------------- Iteration      1(  17)  ---------------------------------------


    POTLOK:  cpu time    1.1616: real time    1.1620
    SETDIJ:  cpu time    0.0167: real time    0.0167
    EDDIAG:  cpu time    1.1049: real time    1.1052
  RMM-DIIS:  cpu time    6.6932: real time    6.6961
    ORTHCH:  cpu time    0.0565: real time    0.0565
       DOS:  cpu time    0.0004: real time    0.0004
    CHARGE:  cpu time    0.6985: real time    0.6989
    MIXING:  cpu time    0.0312: real time    0.0312
    --------------------------------------------
      LOOP:  cpu time    9.7629: real time    9.7670

 eigenvalue-minimisations  :   392
 total energy-change (2. order) :-0.1373326E-02  (-0.6124490E-04)
 number of electron     153.0000042 magnetization       1.0000000
 augmentation part       92.4083997 magnetization       0.0799545

 Broyden mixing:
  rms(total) = 0.34005E-02    rms(broyden)= 0.34000E-02
  rms(prec ) = 0.54406E-02
  weight for this iteration     100.00

 eigenvalues of (default mixing * dielectric matrix)
  average eigenvalue GAMMA=   1.2642
  3.7256  2.6024  1.6448  1.6448  0.9611  0.9611  0.7417  0.7417  0.6872  0.5200
  0.4571  0.4824

 Free energy of the ion-electron system (eV)
  ---------------------------------------------------
  alpha Z        PSCENC =        41.16232785
  Ewald energy   TEWEN  =     16180.77449483
  -Hartree energ DENC   =    -33159.76850756
  -exchange      EXHF   =         0.00000000
  -V(xc)+E(xc)   XCENC  =       614.96598769
  PAW double counting   =     17538.09226112   -18935.86812298
  entropy T*S    EENTRO =         0.00926756
  eigenvalues    EBANDS =      -990.41303393
  atomic energy  EATOM  =     18662.21924712
  Solvation  Ediel_sol  =         0.00000000
  ---------------------------------------------------
  free energy    TOTEN  =       -48.82607830 eV

  energy without entropy =      -48.83534587  energy(sigma->0) =      -48.82916749


--------------------------------------------------------------------------------------------------------




--------------------------------------- Iteration      1(  18)  ---------------------------------------


    POTLOK:  cpu time    1.1596: real time    1.1636
    SETDIJ:  cpu time    0.0165: real time    0.0165
    EDDIAG:  cpu time    1.1025: real time    1.1029
  RMM-DIIS:  cpu time    6.8408: real time    6.8435
    ORTHCH:  cpu time    0.0564: real time    0.0564
       DOS:  cpu time    0.0005: real time    0.0005
    CHARGE:  cpu time    0.6978: real time    0.6981
    MIXING:  cpu time    0.0327: real time    0.0327
    --------------------------------------------
      LOOP:  cpu time    9.9068: real time    9.9141

 eigenvalue-minimisations  :   406
 total energy-change (2. order) :-0.1170891E-02  (-0.3241459E-04)
 number of electron     153.0000042 magnetization       1.0000000
 augmentation part       92.4064230 magnetization       0.0800735

 Broyden mixing:
  rms(total) = 0.18409E-02    rms(broyden)= 0.18408E-02
  rms(prec ) = 0.30388E-02
  weight for this iteration     100.00

 eigenvalues of (default mixing * dielectric matrix)
  average eigenvalue GAMMA=   1.3207
  4.7614  2.6218  2.0860  1.4575  0.9803  0.9803  0.7513  0.7513  0.7149  0.6160
  0.5115  0.4568  0.4801

 Free energy of the ion-electron system (eV)
  ---------------------------------------------------
  alpha Z        PSCENC =        41.16232785
  Ewald energy   TEWEN  =     16180.77449483
  -Hartree energ DENC   =    -33161.26855027
  -exchange      EXHF   =         0.00000000
  -V(xc)+E(xc)   XCENC  =       614.97066453
  PAW double counting   =     17537.35180325   -18935.12760526
  entropy T*S    EENTRO =         0.00926674
  eigenvalues    EBANDS =      -988.91889797
  atomic energy  EATOM  =     18662.21924712
  Solvation  Ediel_sol  =         0.00000000
  ---------------------------------------------------
  free energy    TOTEN  =       -48.82724919 eV

  energy without entropy =      -48.83651593  energy(sigma->0) =      -48.83033811


--------------------------------------------------------------------------------------------------------




--------------------------------------- Iteration      1(  19)  ---------------------------------------


    POTLOK:  cpu time    1.1623: real time    1.1635
    SETDIJ:  cpu time    0.0165: real time    0.0165
    EDDIAG:  cpu time    1.1015: real time    1.1021
  RMM-DIIS:  cpu time    7.1456: real time    7.1488
    ORTHCH:  cpu time    0.0567: real time    0.0567
       DOS:  cpu time    0.0004: real time    0.0004
    CHARGE:  cpu time    0.6935: real time    0.6938
    MIXING:  cpu time    0.0345: real time    0.0345
    --------------------------------------------
      LOOP:  cpu time   10.2109: real time   10.2162

 eigenvalue-minimisations  :   423
 total energy-change (2. order) :-0.5914143E-03  (-0.1266390E-04)
 number of electron     153.0000042 magnetization       1.0000000
 augmentation part       92.4040831 magnetization       0.0800742

 Broyden mixing:
  rms(total) = 0.13108E-02    rms(broyden)= 0.13106E-02
  rms(prec ) = 0.22547E-02
  weight for this iteration     100.00

 eigenvalues of (default mixing * dielectric matrix)
  average eigenvalue GAMMA=   1.3735
  5.4985  2.6762  2.1869  1.3555  1.3555  0.9857  0.9857  0.7434  0.7434  0.6901
  0.5642  0.4550  0.5067  0.4820

 Free energy of the ion-electron system (eV)
  ---------------------------------------------------
  alpha Z        PSCENC =        41.16232785
  Ewald energy   TEWEN  =     16180.77449483
  -Hartree energ DENC   =    -33161.93348649
  -exchange      EXHF   =         0.00000000
  -V(xc)+E(xc)   XCENC  =       614.97332399
  PAW double counting   =     17537.38439272   -18935.18357071
  entropy T*S    EENTRO =         0.00926666
  eigenvalues    EBANDS =      -988.23383658
  atomic energy  EATOM  =     18662.21924712
  Solvation  Ediel_sol  =         0.00000000
  ---------------------------------------------------
  free energy    TOTEN  =       -48.82784061 eV

  energy without entropy =      -48.83710727  energy(sigma->0) =      -48.83092949


--------------------------------------------------------------------------------------------------------




--------------------------------------- Iteration      1(  20)  ---------------------------------------


    POTLOK:  cpu time    1.1608: real time    1.1619
    SETDIJ:  cpu time    0.0166: real time    0.0166
    EDDIAG:  cpu time    1.1010: real time    1.1025
  RMM-DIIS:  cpu time    6.8826: real time    6.8861
    ORTHCH:  cpu time    0.0565: real time    0.0565
       DOS:  cpu time    0.0004: real time    0.0004
    CHARGE:  cpu time    0.6981: real time    0.6984
    MIXING:  cpu time    0.0351: real time    0.0351
    --------------------------------------------
      LOOP:  cpu time    9.9511: real time    9.9575

 eigenvalue-minimisations  :   434
 total energy-change (2. order) :-0.6709661E-03  (-0.6468009E-05)
 number of electron     153.0000042 magnetization       1.0000000
 augmentation part       92.4032558 magnetization       0.0799881

 Broyden mixing:
  rms(total) = 0.92517E-03    rms(broyden)= 0.92515E-03
  rms(prec ) = 0.14897E-02
  weight for this iteration     100.00

 eigenvalues of (default mixing * dielectric matrix)
  average eigenvalue GAMMA=   1.4190
  6.1347  2.7988  2.2780  1.6169  1.6169  0.9781  0.9781  0.7625  0.7625  0.6848
  0.6848  0.5423  0.5129  0.4559  0.4777

 Free energy of the ion-electron system (eV)
  ---------------------------------------------------
  alpha Z        PSCENC =        41.16232785
  Ewald energy   TEWEN  =     16180.77449483
  -Hartree energ DENC   =    -33162.24227909
  -exchange      EXHF   =         0.00000000
  -V(xc)+E(xc)   XCENC  =       614.97395353
  PAW double counting   =     17537.80347352   -18935.62936025
  entropy T*S    EENTRO =         0.00926687
  eigenvalues    EBANDS =      -987.89963596
  atomic energy  EATOM  =     18662.21924712
  Solvation  Ediel_sol  =         0.00000000
  ---------------------------------------------------
  free energy    TOTEN  =       -48.82851157 eV

  energy without entropy =      -48.83777845  energy(sigma->0) =      -48.83160053


--------------------------------------------------------------------------------------------------------




--------------------------------------- Iteration      1(  21)  ---------------------------------------


    POTLOK:  cpu time    1.1489: real time    1.1711
    SETDIJ:  cpu time    0.0164: real time    0.0164
    EDDIAG:  cpu time    1.1011: real time    1.1019
  RMM-DIIS:  cpu time    6.6262: real time    6.6305
    ORTHCH:  cpu time    0.0566: real time    0.0566
       DOS:  cpu time    0.0004: real time    0.0004
    CHARGE:  cpu time    0.6924: real time    0.6927
    MIXING:  cpu time    0.0368: real time    0.0368
    --------------------------------------------
      LOOP:  cpu time    9.6788: real time    9.7064

 eigenvalue-minimisations  :   409
 total energy-change (2. order) :-0.3860885E-03  (-0.2785743E-05)
 number of electron     153.0000042 magnetization       1.0000000
 augmentation part       92.4045906 magnetization       0.0800520

 Broyden mixing:
  rms(total) = 0.59054E-03    rms(broyden)= 0.59043E-03
  rms(prec ) = 0.97101E-03
  weight for this iteration     100.00

 eigenvalues of (default mixing * dielectric matrix)
  average eigenvalue GAMMA=   1.4541
  6.5581  3.0906  2.3398  2.0836  1.4009  1.0498  0.9687  0.9687  0.7490  0.7490
  0.7044  0.6249  0.5445  0.4559  0.4997  0.4786

 Free energy of the ion-electron system (eV)
  ---------------------------------------------------
  alpha Z        PSCENC =        41.16232785
  Ewald energy   TEWEN  =     16180.77449483
  -Hartree energ DENC   =    -33162.26234681
  -exchange      EXHF   =         0.00000000
  -V(xc)+E(xc)   XCENC  =       614.97130967
  PAW double counting   =     17537.98058228   -18935.80106347
  entropy T*S    EENTRO =         0.00926842
  eigenvalues    EBANDS =      -987.88271754
  atomic energy  EATOM  =     18662.21924712
  Solvation  Ediel_sol  =         0.00000000
  ---------------------------------------------------
  free energy    TOTEN  =       -48.82889766 eV

  energy without entropy =      -48.83816608  energy(sigma->0) =      -48.83198713


--------------------------------------------------------------------------------------------------------




--------------------------------------- Iteration      1(  22)  ---------------------------------------


    POTLOK:  cpu time    1.1610: real time    1.1616
    SETDIJ:  cpu time    0.0165: real time    0.0165
    EDDIAG:  cpu time    1.1016: real time    1.1022
  RMM-DIIS:  cpu time    6.6748: real time    6.6776
    ORTHCH:  cpu time    0.0569: real time    0.0569
       DOS:  cpu time    0.0004: real time    0.0004
    CHARGE:  cpu time    0.6929: real time    0.6932
    MIXING:  cpu time    0.0382: real time    0.0382
    --------------------------------------------
      LOOP:  cpu time    9.7422: real time    9.7466

 eigenvalue-minimisations  :   400
 total energy-change (2. order) :-0.2833530E-03  (-0.1945181E-05)
 number of electron     153.0000042 magnetization       1.0000000
 augmentation part       92.4054714 magnetization       0.0800859

 Broyden mixing:
  rms(total) = 0.43471E-03    rms(broyden)= 0.43470E-03
  rms(prec ) = 0.66343E-03
  weight for this iteration     100.00

 eigenvalues of (default mixing * dielectric matrix)
  average eigenvalue GAMMA=   1.5036
  6.9586  3.6119  2.4721  2.1992  1.4207  1.4207  0.9840  0.9840  0.7740  0.7740
  0.7103  0.7103  0.5877  0.4554  0.5191  0.5005  0.4788

 Free energy of the ion-electron system (eV)
  ---------------------------------------------------
  alpha Z        PSCENC =        41.16232785
  Ewald energy   TEWEN  =     16180.77449483
  -Hartree energ DENC   =    -33162.26361952
  -exchange      EXHF   =         0.00000000
  -V(xc)+E(xc)   XCENC  =       614.96900948
  PAW double counting   =     17538.11664931   -18935.92997450
  entropy T*S    EENTRO =         0.00926798
  eigenvalues    EBANDS =      -987.88658355
  atomic energy  EATOM  =     18662.21924712
  Solvation  Ediel_sol  =         0.00000000
  ---------------------------------------------------
  free energy    TOTEN  =       -48.82918101 eV

  energy without entropy =      -48.83844900  energy(sigma->0) =      -48.83227034


--------------------------------------------------------------------------------------------------------




--------------------------------------- Iteration      1(  23)  ---------------------------------------


    POTLOK:  cpu time    1.1597: real time    1.1602
    SETDIJ:  cpu time    0.0165: real time    0.0165
    EDDIAG:  cpu time    1.1008: real time    1.1011
  RMM-DIIS:  cpu time    6.5725: real time    6.5753
    ORTHCH:  cpu time    0.0570: real time    0.0570
       DOS:  cpu time    0.0005: real time    0.0007
    CHARGE:  cpu time    0.6925: real time    0.6926
    MIXING:  cpu time    0.0410: real time    0.0410
    --------------------------------------------
      LOOP:  cpu time    9.6405: real time    9.6443

 eigenvalue-minimisations  :   403
 total energy-change (2. order) :-0.2008926E-03  (-0.1381139E-05)
 number of electron     153.0000042 magnetization       1.0000000
 augmentation part       92.4052679 magnetization       0.0800860

 Broyden mixing:
  rms(total) = 0.27553E-03    rms(broyden)= 0.27551E-03
  rms(prec ) = 0.41196E-03
  weight for this iteration     100.00

 eigenvalues of (default mixing * dielectric matrix)
  average eigenvalue GAMMA=   1.5378
  7.3531  4.1309  2.5121  2.2051  1.5240  1.5240  0.9777  0.9777  0.9779  0.7493
  0.7493  0.7904  0.6756  0.5840  0.4557  0.5088  0.5088  0.4766

 Free energy of the ion-electron system (eV)
  ---------------------------------------------------
  alpha Z        PSCENC =        41.16232785
  Ewald energy   TEWEN  =     16180.77449483
  -Hartree energ DENC   =    -33162.31382419
  -exchange      EXHF   =         0.00000000
  -V(xc)+E(xc)   XCENC  =       614.96887509
  PAW double counting   =     17538.18724605   -18936.00200972
  entropy T*S    EENTRO =         0.00926785
  eigenvalues    EBANDS =      -987.83500679
  atomic energy  EATOM  =     18662.21924712
  Solvation  Ediel_sol  =         0.00000000
  ---------------------------------------------------
  free energy    TOTEN  =       -48.82938191 eV

  energy without entropy =      -48.83864975  energy(sigma->0) =      -48.83247119


--------------------------------------------------------------------------------------------------------




--------------------------------------- Iteration      1(  24)  ---------------------------------------


    POTLOK:  cpu time    1.1607: real time    1.1616
    SETDIJ:  cpu time    0.0165: real time    0.0165
    EDDIAG:  cpu time    1.1008: real time    1.1018
  RMM-DIIS:  cpu time    6.6308: real time    6.6341
    ORTHCH:  cpu time    0.0561: real time    0.0561
       DOS:  cpu time    0.0005: real time    0.0005
    CHARGE:  cpu time    0.6924: real time    0.6927
    MIXING:  cpu time    0.0420: real time    0.0420
    --------------------------------------------
      LOOP:  cpu time    9.6997: real time    9.7052

 eigenvalue-minimisations  :   397
 total energy-change (2. order) :-0.8489210E-04  (-0.5433521E-06)
 number of electron     153.0000042 magnetization       1.0000000
 augmentation part       92.4045826 magnetization       0.0800749

 Broyden mixing:
  rms(total) = 0.17877E-03    rms(broyden)= 0.17876E-03
  rms(prec ) = 0.27594E-03
  weight for this iteration     100.00

 eigenvalues of (default mixing * dielectric matrix)
  average eigenvalue GAMMA=   1.5516
  7.6504  4.4554  2.5048  2.2024  1.8919  1.3023  1.3023  0.9845  0.9845  0.7928
  0.7928  0.7269  0.7269  0.6176  0.5787  0.4557  0.4778  0.5023  0.5298

 Free energy of the ion-electron system (eV)
  ---------------------------------------------------
  alpha Z        PSCENC =        41.16232785
  Ewald energy   TEWEN  =     16180.77449483
  -Hartree energ DENC   =    -33162.36176192
  -exchange      EXHF   =         0.00000000
  -V(xc)+E(xc)   XCENC  =       614.96977289
  PAW double counting   =     17538.18506578   -18936.00553570
  entropy T*S    EENTRO =         0.00926751
  eigenvalues    EBANDS =      -987.78234516
  atomic energy  EATOM  =     18662.21924712
  Solvation  Ediel_sol  =         0.00000000
  ---------------------------------------------------
  free energy    TOTEN  =       -48.82946680 eV

  energy without entropy =      -48.83873431  energy(sigma->0) =      -48.83255597


--------------------------------------------------------------------------------------------------------




--------------------------------------- Iteration      1(  25)  ---------------------------------------


    POTLOK:  cpu time    1.1620: real time    1.1660
    SETDIJ:  cpu time    0.0166: real time    0.0166
    EDDIAG:  cpu time    1.1024: real time    1.1030
  RMM-DIIS:  cpu time    6.5264: real time    6.5291
    ORTHCH:  cpu time    0.0564: real time    0.0564
       DOS:  cpu time    0.0005: real time    0.0005
    CHARGE:  cpu time    0.6930: real time    0.6933
    MIXING:  cpu time    0.0446: real time    0.0446
    --------------------------------------------
      LOOP:  cpu time    9.6020: real time    9.6095

 eigenvalue-minimisations  :   390
 total energy-change (2. order) :-0.6733771E-04  (-0.4885836E-06)
 number of electron     153.0000042 magnetization       1.0000000
 augmentation part       92.4045149 magnetization       0.0800769

 Broyden mixing:
  rms(total) = 0.15314E-03    rms(broyden)= 0.15314E-03
  rms(prec ) = 0.22111E-03
  weight for this iteration     100.00

 eigenvalues of (default mixing * dielectric matrix)
  average eigenvalue GAMMA=   1.5934
  7.9645  4.7885  2.5305  2.5305  1.9813  1.4250  1.4250  0.9851  0.9851  1.0033
  0.7507  0.7507  0.7934  0.7934  0.6289  0.5725  0.4557  0.4774  0.5052  0.5222

 Free energy of the ion-electron system (eV)
  ---------------------------------------------------
  alpha Z        PSCENC =        41.16232785
  Ewald energy   TEWEN  =     16180.77449483
  -Hartree energ DENC   =    -33162.37542476
  -exchange      EXHF   =         0.00000000
  -V(xc)+E(xc)   XCENC  =       614.96982497
  PAW double counting   =     17538.12447796   -18935.94383717
  entropy T*S    EENTRO =         0.00926759
  eigenvalues    EBANDS =      -987.76991252
  atomic energy  EATOM  =     18662.21924712
  Solvation  Ediel_sol  =         0.00000000
  ---------------------------------------------------
  free energy    TOTEN  =       -48.82953414 eV

  energy without entropy =      -48.83880173  energy(sigma->0) =      -48.83262333


--------------------------------------------------------------------------------------------------------




--------------------------------------- Iteration      1(  26)  ---------------------------------------


    POTLOK:  cpu time    1.1600: real time    1.1606
    SETDIJ:  cpu time    0.0165: real time    0.0165
    EDDIAG:  cpu time    1.1045: real time    1.1049
  RMM-DIIS:  cpu time    6.3823: real time    6.3850
    ORTHCH:  cpu time    0.0559: real time    0.0559
       DOS:  cpu time    0.0005: real time    0.0005
    CHARGE:  cpu time    0.6920: real time    0.6924
    MIXING:  cpu time    0.0474: real time    0.0474
    --------------------------------------------
      LOOP:  cpu time    9.4591: real time    9.4631

 eigenvalue-minimisations  :   387
 total energy-change (2. order) :-0.4834792E-04  (-0.4435287E-06)
 number of electron     153.0000042 magnetization       1.0000000
 augmentation part       92.4048285 magnetization       0.0800797

 Broyden mixing:
  rms(total) = 0.10241E-03    rms(broyden)= 0.10239E-03
  rms(prec ) = 0.14454E-03
  weight for this iteration     100.00

 eigenvalues of (default mixing * dielectric matrix)
  average eigenvalue GAMMA=   1.6273
  8.1902  5.2657  2.9245  2.5853  1.8657  1.8657  1.2593  1.2593  0.9880  0.9880
  0.8315  0.8315  0.7436  0.7436  0.6491  0.6491  0.5754  0.4557  0.4773  0.5067
  0.5190

 Free energy of the ion-electron system (eV)
  ---------------------------------------------------
  alpha Z        PSCENC =        41.16232785
  Ewald energy   TEWEN  =     16180.77449483
  -Hartree energ DENC   =    -33162.35835314
  -exchange      EXHF   =         0.00000000
  -V(xc)+E(xc)   XCENC  =       614.96943478
  PAW double counting   =     17538.02872163   -18935.84309192
  entropy T*S    EENTRO =         0.00926764
  eigenvalues    EBANDS =      -987.79163127
  atomic energy  EATOM  =     18662.21924712
  Solvation  Ediel_sol  =         0.00000000
  ---------------------------------------------------
  free energy    TOTEN  =       -48.82958248 eV

  energy without entropy =      -48.83885013  energy(sigma->0) =      -48.83267170


--------------------------------------------------------------------------------------------------------




--------------------------------------- Iteration      1(  27)  ---------------------------------------


    POTLOK:  cpu time    1.1594: real time    1.1608
    SETDIJ:  cpu time    0.0165: real time    0.0165
    EDDIAG:  cpu time    1.1016: real time    1.1020
  RMM-DIIS:  cpu time    5.0370: real time    5.0393
    ORTHCH:  cpu time    0.0565: real time    0.0565
       DOS:  cpu time    0.0005: real time    0.0005
    CHARGE:  cpu time    0.6931: real time    0.6934
    MIXING:  cpu time    0.0518: real time    0.0518
    --------------------------------------------
      LOOP:  cpu time    8.1162: real time    8.1207

 eigenvalue-minimisations  :   301
 total energy-change (2. order) :-0.1379659E-04  (-0.1267869E-06)
 number of electron     153.0000042 magnetization       1.0000000
 augmentation part       92.4048545 magnetization       0.0800852

 Broyden mixing:
  rms(total) = 0.54241E-04    rms(broyden)= 0.54235E-04
  rms(prec ) = 0.79994E-04
  weight for this iteration     100.00

 eigenvalues of (default mixing * dielectric matrix)
  average eigenvalue GAMMA=   1.6026
  8.2292  5.4450  3.0683  2.5452  1.8800  1.8800  1.3149  1.3149  0.9946  0.9946
  0.8771  0.8771  0.7434  0.7434  0.6828  0.6542  0.5644  0.4557  0.5249  0.5027
  0.4788  0.4857

 Free energy of the ion-electron system (eV)
  ---------------------------------------------------
  alpha Z        PSCENC =        41.16232785
  Ewald energy   TEWEN  =     16180.77449483
  -Hartree energ DENC   =    -33162.35614651
  -exchange      EXHF   =         0.00000000
  -V(xc)+E(xc)   XCENC  =       614.96941629
  PAW double counting   =     17538.02067081   -18935.83484892
  entropy T*S    EENTRO =         0.00926762
  eigenvalues    EBANDS =      -987.79402536
  atomic energy  EATOM  =     18662.21924712
  Solvation  Ediel_sol  =         0.00000000
  ---------------------------------------------------
  free energy    TOTEN  =       -48.82959628 eV

  energy without entropy =      -48.83886390  energy(sigma->0) =      -48.83268549


--------------------------------------------------------------------------------------------------------




--------------------------------------- Iteration      1(  28)  ---------------------------------------


    POTLOK:  cpu time    1.1601: real time    1.1613
    SETDIJ:  cpu time    0.0160: real time    0.0160
    EDDIAG:  cpu time    1.1009: real time    1.1013
  RMM-DIIS:  cpu time    4.4893: real time    4.4919
    ORTHCH:  cpu time    0.0563: real time    0.0563
       DOS:  cpu time    0.0004: real time    0.0004
    CHARGE:  cpu time    0.6927: real time    0.6929
    MIXING:  cpu time    0.0549: real time    0.0549
[...]
     66      -4.9557      1.00000
     67      -4.9288      1.00000
     68      -4.9194      1.00000
     69      -4.9031      1.00000
     70      -4.8615      1.00000
     71      -4.8449      1.00000
     72      -4.8118      1.00000
     73      -4.7691      1.00000
     74      -4.5637      1.00000
     75      -4.2305      1.00000
     76      -4.1633      1.00000
     77      -3.5828      1.00000
     78      -3.0833     -0.00000
     79      -2.9146     -0.00000
     80      -2.6795     -0.00000
     81      -2.4937     -0.00000
     82      -2.0044     -0.00000
     83      -1.9711     -0.00000
     84      -1.8169     -0.00000
     85      -1.4711     -0.00000
     86      -1.1193     -0.00000
     87      -0.9856     -0.00000
     88      -0.7340      0.00000
     89      -0.4718      0.00000
     90      -0.3012      0.00000
     91      -0.1236      0.00000
     92       0.1392      0.00000

 spin component 2

 k-point     1 :       0.0000    0.0000    0.0000
  band No.  band energies     occupation 
      1     -27.4481      1.00000
      2     -13.7521      1.00000
      3     -10.9811      1.00000
      4     -10.4739      1.00000
      5     -10.3746      1.00000
      6     -10.0769      1.00000
      7      -8.5734      1.00000
      8      -8.1507      1.00000
      9      -7.6500      1.00000
     10      -7.4585      1.00000
     11      -7.3950      1.00000
     12      -7.2568      1.00000
     13      -7.2456      1.00000
     14      -7.0906      1.00000
     15      -7.0250      1.00000
     16      -6.8992      1.00000
     17      -6.7990      1.00000
     18      -6.7528      1.00000
     19      -6.6814      1.00000
     20      -6.5900      1.00000
     21      -6.5859      1.00000
     22      -6.5565      1.00000
     23      -6.4875      1.00000
     24      -6.4531      1.00000
     25      -6.4245      1.00000
     26      -6.3891      1.00000
     27      -6.3502      1.00000
     28      -6.2831      1.00000
     29      -6.2583      1.00000
     30      -6.2398      1.00000
     31      -6.1745      1.00000
     32      -6.1487      1.00000
     33      -6.0829      1.00000
     34      -6.0665      1.00000
     35      -5.9109      1.00000
     36      -5.8549      1.00000
     37      -5.8140      1.00000
     38      -5.7157      1.00000
     39      -5.6960      1.00000
     40      -5.6605      1.00000
     41      -5.5951      1.00000
     42      -5.5539      1.00000
     43      -5.5380      1.00000
     44      -5.4950      1.00000
     45      -5.4553      1.00000
     46      -5.4096      1.00000
     47      -5.3824      1.00000
     48      -5.3651      1.00000
     49      -5.3524      1.00000
     50      -5.3303      1.00000
     51      -5.3211      1.00000
     52      -5.2810      1.00000
     53      -5.2714      1.00000
     54      -5.2506      1.00000
     55      -5.2122      1.00000
     56      -5.1901      1.00000
     57      -5.1675      1.00000
     58      -5.1566      1.00000
     59      -5.1252      1.00000
     60      -5.0836      1.00000
     61      -5.0723      1.00000
     62      -5.0322      1.00000
     63      -5.0270      1.00000
     64      -4.9947      1.00000
     65      -4.9484      1.00000
     66      -4.9283      1.00000
     67      -4.9060      1.00000
     68      -4.8823      1.00000
     69      -4.8707      1.00000
     70      -4.8303      1.00000
     71      -4.8097      1.00000
     72      -4.7876      1.00000
     73      -4.7402      1.00000
     74      -4.5206      1.00000
     75      -4.1677      1.03357
     76      -4.1275      0.96643
     77      -3.3749     -0.00000
     78      -3.0310     -0.00000
     79      -2.8633     -0.00000
     80      -2.6029     -0.00000
     81      -2.3990     -0.00000
     82      -1.9733     -0.00000
     83      -1.8958     -0.00000
     84      -1.7416     -0.00000
     85      -1.3562     -0.00000
     86      -0.9987      0.00000
     87      -0.9003      0.00000
     88      -0.6659      0.00000
     89      -0.3694      0.00000
     90      -0.2491      0.00000
     91      -0.0659      0.00000
     92       0.1147      0.00000


--------------------------------------------------------------------------------------------------------


 soft charge-density along one line, spin component           1
         0         1         2         3         4         5         6         7         8         9
 total charge-density along one line
 
 soft charge-density along one line, spin component           2
         0         1         2         3         4         5         6         7         8         9
 total charge-density along one line
 
 pseudopotential strength for first ion, spin component:           1
-10.539   0.001  -0.017   0.002  -0.010   1.036  -0.001   0.015
  0.001 -10.515  -0.007   0.008   0.004  -0.001   1.018   0.005
 -0.017  -0.007 -10.498   0.003  -0.010   0.015   0.005   1.003
  0.002   0.008   0.003 -10.503  -0.002  -0.001  -0.008  -0.002
 -0.010   0.004  -0.010  -0.002 -10.522   0.007  -0.003   0.009
  1.036  -0.001   0.015  -0.001   0.007   6.280   0.001  -0.012
 -0.001   1.018   0.005  -0.008  -0.003   0.001   6.290  -0.003
  0.015   0.005   1.003  -0.002   0.009  -0.012  -0.003   6.301
 -0.001  -0.008  -0.002   1.007   0.002   0.001   0.008   0.001
  0.007  -0.003   0.009   0.002   1.023  -0.005   0.002  -0.007
 -0.007   0.001  -0.005  -0.000  -0.004   0.005   0.000  -0.001
 -0.014   0.001  -0.009  -0.000  -0.007   0.009   0.000  -0.001
 -0.013  -0.001   0.005  -0.000   0.010   0.009   0.001  -0.004
 -0.000  -0.008  -0.001  -0.013  -0.000   0.000   0.005   0.001
 -0.006  -0.000   0.008  -0.001  -0.013   0.003   0.000  -0.006
 -0.014  -0.001   0.005  -0.001   0.011   0.009   0.001  -0.004
 -0.001  -0.008  -0.001  -0.013  -0.000   0.001   0.004   0.001
 -0.006  -0.001   0.009  -0.002  -0.014   0.002   0.001  -0.006
 pseudopotential strength for first ion, spin component:           2
-10.498   0.000  -0.009  -0.008   0.003   1.003  -0.000   0.007
  0.000 -10.502  -0.007   0.007   0.002  -0.000   1.006   0.005
 -0.009  -0.007 -10.484   0.001  -0.007   0.007   0.005   0.992
 -0.008   0.007   0.001 -10.487  -0.005   0.006  -0.006  -0.001
  0.003   0.002  -0.007  -0.005 -10.507  -0.003  -0.002   0.006
  1.003  -0.000   0.007   0.006  -0.003   6.301   0.001  -0.005
 -0.000   1.006   0.005  -0.006  -0.002   0.001   6.296  -0.004
  0.007   0.005   0.992  -0.001   0.006  -0.005  -0.004   6.307
  0.006  -0.006  -0.001   0.994   0.004  -0.004   0.005   0.001
 -0.003  -0.002   0.006   0.004   1.010   0.002   0.001  -0.004
 -0.003   0.002  -0.002  -0.000  -0.002   0.001   0.000  -0.002
 -0.006   0.003  -0.004  -0.001  -0.004   0.001   0.001  -0.003
 -0.015  -0.001   0.006   0.000   0.009   0.012  -0.000  -0.005
  0.000  -0.009  -0.000  -0.014   0.000  -0.000   0.007  -0.001
 -0.009   0.000   0.009   0.000  -0.015   0.007  -0.000  -0.007
 -0.017  -0.001   0.006   0.001   0.010   0.013  -0.000  -0.006
  0.001  -0.010  -0.000  -0.016   0.001  -0.001   0.007  -0.001
 -0.011   0.001   0.010   0.001  -0.017   0.008  -0.001  -0.009
 total augmentation occupancy for first ion, spin component:           1
  1.932   0.004  -0.007   0.001  -0.004  -0.012  -0.001   0.007  -0.000   0.003  -0.015   0.013   0.033  -0.000   0.034  -0.020
  0.004   1.928  -0.006   0.007  -0.001  -0.001  -0.020   0.005  -0.001   0.000  -0.004  -0.001   0.002   0.038  -0.003  -0.001
 -0.007  -0.006   1.947   0.003  -0.004   0.007   0.005  -0.028  -0.003   0.004  -0.008   0.010  -0.011   0.001  -0.018   0.007
  0.001   0.007   0.003   1.937  -0.004  -0.000  -0.001  -0.003  -0.022   0.003   0.004   0.001   0.006   0.058   0.002  -0.000
 -0.004  -0.001  -0.004  -0.004   1.939   0.003   0.000   0.004   0.003  -0.016  -0.009   0.006  -0.012   0.006   0.035   0.013
 -0.012  -0.001   0.007  -0.000   0.003   0.013   0.000   0.002   0.000   0.001  -0.027  -0.000   0.020   0.000   0.008  -0.001
 -0.001  -0.020   0.005  -0.001   0.000   0.000   0.007   0.000   0.001  -0.000   0.008  -0.001   0.001   0.012   0.001  -0.000
  0.007   0.005  -0.028  -0.003   0.004   0.002   0.000   0.007  -0.000   0.001  -0.039   0.005  -0.006  -0.001  -0.007   0.001
 -0.000  -0.001  -0.003  -0.022   0.003   0.000   0.001  -0.000   0.008  -0.001  -0.003   0.001  -0.001   0.019  -0.001  -0.000
  0.003   0.000   0.004   0.003  -0.016   0.001  -0.000   0.001  -0.001   0.012  -0.014   0.000  -0.020  -0.003   0.021   0.001
 -0.015  -0.004  -0.008   0.004  -0.009  -0.027   0.008  -0.039  -0.003  -0.014   1.619  -0.113   0.119   0.003   0.179  -0.016
  0.013  -0.001   0.010   0.001   0.006  -0.000  -0.001   0.005   0.001   0.000  -0.113   0.013  -0.017   0.001  -0.026   0.002
  0.033   0.002  -0.011   0.006  -0.012   0.020   0.001  -0.006  -0.001  -0.020   0.119  -0.017   0.177   0.002  -0.039  -0.011
 -0.000   0.038   0.001   0.058   0.006   0.000   0.012  -0.001   0.019  -0.003   0.003   0.001   0.002   0.083  -0.007  -0.001
  0.034  -0.003  -0.018   0.002   0.035   0.008   0.001  -0.007  -0.001   0.021   0.179  -0.026  -0.039  -0.007   0.137   0.001
 -0.020  -0.001   0.007  -0.000   0.013  -0.001  -0.000   0.001  -0.000   0.001  -0.016   0.002  -0.011  -0.001   0.001   0.001
  0.000  -0.014  -0.001  -0.022   0.000  -0.000  -0.001   0.000  -0.001   0.000  -0.000  -0.000  -0.001  -0.005   0.000   0.000
 -0.013  -0.000   0.010  -0.001  -0.020  -0.000  -0.000   0.001   0.000  -0.001  -0.025   0.003   0.001   0.000  -0.010   0.000
 total augmentation occupancy for first ion, spin component:           2
  0.017  -0.001   0.002  -0.006   0.007  -0.003  -0.000  -0.002   0.001  -0.002   0.034   0.006  -0.010   0.007  -0.017  -0.001
 -0.001   0.000  -0.000   0.001  -0.001  -0.000   0.001  -0.000   0.001   0.000  -0.003  -0.001   0.002  -0.002   0.002   0.000
  0.002  -0.000   0.001  -0.001   0.001  -0.002  -0.000   0.002   0.000  -0.001   0.005   0.000  -0.000   0.004  -0.001   0.000
 -0.006   0.001  -0.001   0.004  -0.003   0.001   0.001   0.000   0.002   0.000  -0.012  -0.002   0.003  -0.006   0.007   0.000
  0.007  -0.001   0.001  -0.003   0.003  -0.002   0.000  -0.001   0.000   0.002   0.014   0.002  -0.002   0.003  -0.009  -0.000
 -0.003  -0.000  -0.002   0.001  -0.002   0.001  -0.000   0.000  -0.000   0.000  -0.008  -0.001   0.002  -0.002   0.004   0.000
 -0.000   0.001  -0.000   0.001   0.000  -0.000  -0.000   0.000  -0.000  -0.000   0.000   0.000   0.000   0.000  -0.000  -0.000
 -0.002  -0.000   0.002   0.000  -0.001   0.000   0.000  -0.000  -0.000   0.000  -0.002  -0.000   0.000  -0.000   0.001   0.000
  0.001   0.001   0.000   0.002   0.000  -0.000  -0.000  -0.000  -0.000  -0.000   0.002   0.000  -0.001   0.001  -0.001  -0.000
 -0.002   0.000  -0.001   0.000   0.002   0.000  -0.000   0.000  -0.000  -0.000  -0.003  -0.000   0.001  -0.001   0.001  -0.000
  0.034  -0.003   0.005  -0.012   0.014  -0.008   0.000  -0.002   0.002  -0.003   0.086   0.005  -0.019   0.018  -0.037  -0.000
  0.006  -0.001   0.000  -0.002   0.002  -0.001   0.000  -0.000   0.000  -0.000   0.005   0.001  -0.001   0.001  -0.002  -0.000
 -0.010   0.002  -0.000   0.003  -0.002   0.002   0.000   0.000  -0.001   0.001  -0.019  -0.001   0.003  -0.003   0.005   0.000
  0.007  -0.002   0.004  -0.006   0.003  -0.002   0.000  -0.000   0.001  -0.001   0.018   0.001  -0.003   0.003  -0.006  -0.000
 -0.017   0.002  -0.001   0.007  -0.009   0.004  -0.000   0.001  -0.001   0.001  -0.037  -0.002   0.005  -0.006   0.013   0.000
 -0.001   0.000   0.000   0.000  -0.000   0.000  -0.000   0.000  -0.000  -0.000  -0.000  -0.000   0.000  -0.000   0.000   0.000
  0.000  -0.000   0.000  -0.001   0.000   0.000  -0.000  -0.000  -0.000   0.000  -0.000   0.000   0.000   0.000   0.000  -0.000
 -0.001   0.000   0.000   0.001  -0.001   0.000   0.000   0.000  -0.000   0.000  -0.000  -0.000   0.000  -0.000   0.000   0.000


------------------------ aborting loop because EDIFF is reached ----------------------------------------


    CHARGE:  cpu time    0.6899: real time    0.6903
    FORLOC:  cpu time    0.0651: real time    0.0651
    FORNL :  cpu time    1.5301: real time    1.5311
    STRESS:  cpu time    5.8655: real time    5.8678
    FORCOR:  cpu time    1.1752: real time    1.1760
    FORHAR:  cpu time    0.1886: real time    0.1888
    MIXING:  cpu time    0.1112: real time    0.1112
    OFIELD:  cpu time    0.0001: real time    0.0001

  FORCE on cell =-STRESS in cart. coord.  units (eV):
  Direction    XX          YY          ZZ          XY          YZ          ZX
  --------------------------------------------------------------------------------------
  Alpha Z    41.16233    41.16233    41.16233
  Ewald   10186.29907  7476.39726 -1481.93778  -797.25800   328.68721   117.35377
  Hartree 15310.44843 12948.26047  4903.65390  -708.92084   289.98738    79.88210
  E(xc)    -875.72794  -877.23856  -878.94000    -0.13130     0.05101     0.19410
  Local  -26894.00157-21853.62546 -4857.75408  1505.71244  -617.58693  -193.03760
  n-local  -330.22314  -323.25602  -329.13212    -1.15287    -0.26397     0.50420
  augment  1222.31140  1226.39029  1232.55603     0.26757    -0.58490    -1.27032
  Kinetic  1332.38129  1360.66848  1368.34751     0.75656    -0.54762    -3.38794
  Fock        0.00000     0.00000     0.00000     0.00000     0.00000     0.00000
  -------------------------------------------------------------------------------------
  Total      -7.35014    -1.24122    -2.04422    -0.72645    -0.25782     0.23831
  in kB      -3.48925    -0.58923    -0.97043    -0.34486    -0.12239     0.11313
  external pressure =       -1.68 kB  Pullay stress =        0.00 kB


 VOLUME and BASIS-vectors are now :
 -----------------------------------------------------------------------------
  energy-cutoff  :      600.00
  volume of cell :     3375.00
      direct lattice vectors                 reciprocal lattice vectors
    15.000000000  0.000000000  0.000000000     0.066666667  0.000000000  0.000000000
     0.000000000 15.000000000  0.000000000     0.000000000  0.066666667  0.000000000
     0.000000000  0.000000000 15.000000000     0.000000000  0.000000000  0.066666667

  length of vectors
    15.000000000 15.000000000 15.000000000     0.066666667  0.066666667  0.066666667


 FORCES acting on ions
    electron-ion (+dipol)            ewald-force                    non-local-force                 convergence-correction
 -----------------------------------------------------------------------------------------------
   0.109E+04 0.685E+03 -.211E+02   -.108E+04 -.682E+03 0.215E+02   -.489E+01 -.320E+01 -.379E+00   -.246E-04 -.783E-05 0.600E-05
   0.452E+03 -.328E+03 0.898E+03   -.450E+03 0.326E+03 -.898E+03   -.136E+01 0.232E+01 0.929E-01   -.123E-04 -.156E-04 -.628E-04
   0.300E+03 0.128E+04 -.206E+03   -.298E+03 -.127E+04 0.203E+03   -.207E+01 -.899E+01 0.222E+01   -.949E-05 -.125E-04 0.149E-04
   -.843E+03 -.147E+03 0.890E+03   0.840E+03 0.147E+03 -.885E+03   0.242E+01 0.511E+00 -.434E+01   0.139E-04 0.102E-04 -.165E-04
   -.834E+03 0.990E+03 0.178E+03   0.830E+03 -.984E+03 -.176E+03   0.493E+01 -.581E+01 -.159E+01   0.169E-04 0.563E-05 0.133E-04
   -.142E+03 0.494E+03 -.941E+03   0.141E+03 -.491E+03 0.940E+03   0.147E+01 -.281E+01 0.311E+00   0.701E-05 -.920E-05 0.640E-04
   0.182E+03 0.618E+03 0.121E+04   -.181E+03 -.614E+03 -.120E+04   -.124E+01 -.428E+01 -.598E+01   -.935E-05 0.185E-04 -.286E-04
   0.124E+04 -.357E+03 0.156E+03   -.123E+04 0.354E+03 -.153E+03   -.911E+01 0.330E+01 -.291E+01   -.243E-04 -.263E-04 -.338E-05
   0.579E+03 -.206E+03 -.121E+04   -.576E+03 0.205E+03 0.121E+04   -.359E+01 0.464E+00 0.698E+01   0.115E-04 -.255E-04 0.306E-04
   0.447E+03 -.125E+04 -.155E+03   -.444E+03 0.124E+04 0.154E+03   -.323E+01 0.720E+01 0.193E+01   -.482E-05 0.264E-04 0.761E-05
   -.477E+03 -.104E+04 0.701E+03   0.473E+03 0.104E+04 -.695E+03   0.402E+01 0.622E+01 -.658E+01   0.182E-04 -.568E-05 -.188E-04
   -.846E+03 0.444E+02 -.402E+03   0.845E+03 -.449E+02 0.398E+03   0.554E+00 0.414E+00 0.374E+01   -.197E-04 -.104E-04 -.300E-05
   -.567E+03 -.742E+03 -.845E+03   0.564E+03 0.737E+03 0.842E+03   0.326E+01 0.416E+01 0.294E+01   0.245E-04 -.208E-04 0.338E-04
   -.133E+03 -.395E+02 -.135E+03   0.117E+03 0.400E+02 0.135E+03   0.198E+02 -.925E+00 0.496E-01   -.472E-05 -.205E-06 -.237E-05
   -.406E+03 -.182E+01 -.109E+03   0.457E+03 -.233E+00 0.111E+03   -.558E+02 0.236E+01 -.296E+01   0.257E-04 -.544E-06 -.478E-05
 -----------------------------------------------------------------------------------------------
   0.447E+02 -.942E+00 0.645E+01   -.114E-12 0.462E-13 -.227E-12   -.447E+02 0.943E+00 -.645E+01   0.844E-05 -.740E-04 0.300E-04
 
 
 POSITION                                       TOTAL-FORCE (eV/Angst)
 -----------------------------------------------------------------------------------
      4.34521      6.26617      8.32880         0.263188      0.054839     -0.005850
      5.62467      8.20818      7.37739         0.005629      0.032050      0.105670
      5.94748      4.39179      8.44124        -0.131980     -0.192959      0.062030
      8.00943      7.61551      7.18829        -0.079034     -0.066699      0.242458
      8.20575      5.18789      7.93652         0.250544      0.401157      0.057310
      6.66778      6.54433      9.21190         0.415433      0.004812     -0.286657
      6.28145      5.98307      6.68010        -0.150490      0.018435      0.264717
      3.37722      8.49760      8.22952        -0.069493      0.257706     -0.097409
      4.99599      8.16990      9.88301         0.278857      0.089635     -0.257156
      5.31880     10.27870      8.52549        -0.170556     -0.199372      0.125089
      7.30619     10.00150      7.13072        -0.012735     -0.118517      0.141842
      9.38912      7.24211      9.10301        -0.568297     -0.020792     -0.097488
      7.28163      8.88492      9.26718        -0.003575     -0.109486     -0.274514
     11.07620      7.49440      9.73403         4.423129     -0.461405      0.241370
     12.28360      7.45038      9.79857        -4.450619      0.310595     -0.221413
 -----------------------------------------------------------------------------------
    total drift:                               -0.004526      0.001154      0.000780


--------------------------------------------------------------------------------------------------------



  FREE ENERGIE OF THE ION-ELECTRON SYSTEM (eV)
  ---------------------------------------------------
  free  energy   TOTEN  =       -48.82961381 eV

  energy  without entropy=      -48.83888148  energy(sigma->0) =      -48.83270303
 


--------------------------------------------------------------------------------------------------------


    POTLOK:  cpu time    1.1796: real time    1.1800


--------------------------------------------------------------------------------------------------------


     LOOP+:  cpu time  350.0482: real time  350.2824
    4ORBIT:  cpu time    0.0000: real time    0.0000

 total amount of memory used by VASP MPI-rank0   158680. kBytes
=======================================================================

   base      :      30000. kBytes
   nonl-proj :      12601. kBytes
   fftplans  :      27994. kBytes
   grid      :      74150. kBytes
   one-center:         93. kBytes
   wavefun   :      13842. kBytes
 
  
  
 General timing and accounting informations for this job:
 ========================================================
  
                  Total CPU time used (sec):      354.041
                            User time (sec):      341.710
                          System time (sec):       12.331
                         Elapsed time (sec):      354.314
  
                   Maximum memory used (kb):      280852.
                   Average memory used (kb):           0.
  
                          Minor page faults:       291936
                          Major page faults:            0
                 Voluntary context switches:          738
