 vasp.5.4.4.18Apr17-6-g9f103f2a35 (build May 08 2019 13:49:07) complex          
  
 executed on             LinuxIFC date 2019.11.13  15:49:41
 running on   24 total cores
 distrk:  each k-point on   24 cores,    1 groups
 distr:  one band on NCORES_PER_BAND=   6 cores,    4 groups


--------------------------------------------------------------------------------------------------------


 INCAR:
 POTCAR:    PAW_PBE Cu 22Jun2005                  
 POTCAR:    PAW_PBE C 08Apr2002                   
 POTCAR:    PAW_PBE O 08Apr2002                   
 POTCAR:    PAW_PBE Cu 22Jun2005                  
   VRHFIN =Cu: d10 p1                                                           
   LEXCH  = PE                                                                  
   EATOM  =  1390.9808 eV,  102.2342 Ry                                         
                                                                                
   TITEL  = PAW_PBE Cu 22Jun2005                                                
   LULTRA =        F    use ultrasoft PP ?                                      
   IUNSCR =        1    unscreen: 0-lin 1-nonlin 2-no                           
   RPACOR =    2.000    partial core radius                                     
   POMASS =   63.546; ZVAL   =   11.000    mass and valenz                      
   RCORE  =    2.300    outmost cutoff radius                                   
   RWIGS  =    2.200; RWIGS  =    1.164    wigner-seitz radius (au A)           
   ENMAX  =  295.446; ENMIN  =  221.585 eV                                      
   ICORE  =        3    local potential                                         
   LCOR   =        T    correct aug charges                                     
   LPAW   =        T    paw PP                                                  
   EAUG   =  586.980                                                            
   DEXC   =    0.000                                                            
   RMAX   =    2.344    core radius for proj-oper                               
   RAUG   =    1.300    factor for augmentation sphere                          
   RDEP   =    2.302    radius for radial grids                                 
   RDEPT  =    1.771    core radius for aug-charge                              
                                                                                
   Atomic configuration                                                         
    9 entries                                                                   
     n  l   j            E        occ.                                          
     1  0  0.50     -8850.2468   2.0000                                         
     2  0  0.50     -1062.3498   2.0000                                         
     2  1  1.50      -916.8226   6.0000                                         
     3  0  0.50      -114.6929   2.0000                                         
     3  1  1.50       -72.1325   6.0000                                         
     3  2  2.50        -5.0394  10.0000                                         
     4  0  0.50        -4.6097   1.0000                                         
     4  1  0.50        -4.0817   0.0000                                         
     4  3  2.50        -1.3606   0.0000                                         
   Description                                                                  
     l       E           TYP  RCUT    TYP  RCUT                                 
     2     -5.0393973     23  2.200                                             
     2     10.8846608     23  2.200                                             
     0     -4.6097109     23  2.200                                             
     0      8.2520465     23  2.200                                             
     1     -2.7211652     23  2.200                                             
     1     21.7055443     23  2.200                                             
     3      2.7211652     23  2.300                                             
  local pseudopotential read in
  partial core-charges read in
  partial kinetic energy density read in
  atomic valenz-charges read in
  non local Contribution for L=           2  read in
    real space projection operators read in
  non local Contribution for L=           2  read in
    real space projection operators read in
  non local Contribution for L=           0  read in
    real space projection operators read in
  non local Contribution for L=           0  read in
    real space projection operators read in
  non local Contribution for L=           1  read in
    real space projection operators read in
  non local Contribution for L=           1  read in
    real space projection operators read in
    PAW grid and wavefunctions read in
 
   number of l-projection  operators is LMAX  =           6
   number of lm-projection operators is LMMAX =          18
 
 POTCAR:    PAW_PBE C 08Apr2002                   
   VRHFIN =C: s2p2                                                              
   LEXCH  = PE                                                                  
   EATOM  =   147.1560 eV,   10.8157 Ry                                         
                                                                                
   TITEL  = PAW_PBE C 08Apr2002                                                 
   LULTRA =        F    use ultrasoft PP ?                                      
   IUNSCR =        1    unscreen: 0-lin 1-nonlin 2-no                           
   RPACOR =    1.200    partial core radius                                     
   POMASS =   12.011; ZVAL   =    4.000    mass and valenz                      
   RCORE  =    1.500    outmost cutoff radius                                   
   RWIGS  =    1.630; RWIGS  =    0.863    wigner-seitz radius (au A)           
   ENMAX  =  400.000; ENMIN  =  300.000 eV                                      
   ICORE  =        2    local potential                                         
   LCOR   =        T    correct aug charges                                     
   LPAW   =        T    paw PP                                                  
   EAUG   =  644.873                                                            
   DEXC   =    0.000                                                            
   RMAX   =    1.529    core radius for proj-oper                               
   RAUG   =    1.300    factor for augmentation sphere                          
   RDEP   =    1.501    radius for radial grids                                 
   RDEPT  =    1.300    core radius for aug-charge                              
                                                                                
   Atomic configuration                                                         
    4 entries                                                                   
     n  l   j            E        occ.                                          
     1  0  0.50      -273.3789   2.0000                                         
     2  0  0.50       -13.7508   2.0000                                         
     2  1  0.50        -5.2854   2.0000                                         
     3  2  1.50        -5.4423   0.0000                                         
   Description                                                                  
     l       E           TYP  RCUT    TYP  RCUT                                 
     0    -13.7508458     23  1.200                                             
     0     -8.2022199     23  1.200                                             
     1     -5.2854383     23  1.500                                             
     1     34.0145650     23  1.500                                             
     2     -5.4423304      7  1.500                                             
  local pseudopotential read in
  partial core-charges read in
  partial kinetic energy density read in
  atomic valenz-charges read in
  non local Contribution for L=           0  read in
    real space projection operators read in
  non local Contribution for L=           0  read in
    real space projection operators read in
  non local Contribution for L=           1  read in
    real space projection operators read in
  non local Contribution for L=           1  read in
    real space projection operators read in
    PAW grid and wavefunctions read in
 
   number of l-projection  operators is LMAX  =           4
   number of lm-projection operators is LMMAX =           8
 
 POTCAR:    PAW_PBE O 08Apr2002                   
   VRHFIN =O: s2p4                                                              
   LEXCH  = PE                                                                  
   EATOM  =   432.3788 eV,   31.7789 Ry                                         
                                                                                
   TITEL  = PAW_PBE O 08Apr2002                                                 
   LULTRA =        F    use ultrasoft PP ?                                      
   IUNSCR =        1    unscreen: 0-lin 1-nonlin 2-no                           
   RPACOR =    1.200    partial core radius                                     
   POMASS =   16.000; ZVAL   =    6.000    mass and valenz                      
   RCORE  =    1.520    outmost cutoff radius                                   
   RWIGS  =    1.550; RWIGS  =    0.820    wigner-seitz radius (au A)           
   ENMAX  =  400.000; ENMIN  =  300.000 eV                                      
   ICORE  =        2    local potential                                         
   LCOR   =        T    correct aug charges                                     
   LPAW   =        T    paw PP                                                  
   EAUG   =  605.392                                                            
   DEXC   =    0.000                                                            
   RMAX   =    1.553    core radius for proj-oper                               
   RAUG   =    1.300    factor for augmentation sphere                          
   RDEP   =    1.550    radius for radial grids                                 
   RDEPT  =    1.329    core radius for aug-charge                              
                                                                                
   Atomic configuration                                                         
    4 entries                                                                   
     n  l   j            E        occ.                                          
     1  0  0.50      -514.6923   2.0000                                         
     2  0  0.50       -23.9615   2.0000                                         
     2  1  0.50        -9.0305   4.0000                                         
     3  2  1.50        -9.5241   0.0000                                         
   Description                                                                  
     l       E           TYP  RCUT    TYP  RCUT                                 
     0    -23.9615318     23  1.200                                             
     0     -9.5240782     23  1.200                                             
     1     -9.0304911     23  1.520                                             
     1      8.1634956     23  1.520                                             
     2     -9.5240782      7  1.500                                             
  local pseudopotential read in
  partial core-charges read in
  partial kinetic energy density read in
  kinetic energy density of atom read in
  atomic valenz-charges read in
  non local Contribution for L=           0  read in
    real space projection operators read in
  non local Contribution for L=           0  read in
    real space projection operators read in
  non local Contribution for L=           1  read in
    real space projection operators read in
  non local Contribution for L=           1  read in
    real space projection operators read in
    PAW grid and wavefunctions read in
 
   number of l-projection  operators is LMAX  =           4
   number of lm-projection operators is LMMAX =           8
 
  PAW_PBE Cu 22Jun2005                  :
 energy of atom  1       EATOM=-1390.9808
 kinetic energy error for atom=    0.0033 (will be added to EATOM!!)
  PAW_PBE C 08Apr2002                   :
 energy of atom  2       EATOM= -147.1560
 kinetic energy error for atom=    0.0057 (will be added to EATOM!!)
  PAW_PBE O 08Apr2002                   :
 energy of atom  3       EATOM= -432.3788
 kinetic energy error for atom=    0.0168 (will be added to EATOM!!)
 
 
 POSCAR: Cu13 C1 O1                              
  positions in cartesian coordinates
  No initial velocities read in
 exchange correlation table for  LEXCH =        8
   RHO(1)=    0.500       N(1)  =     2000
   RHO(2)=  100.500       N(2)  =     4000
 


--------------------------------------------------------------------------------------------------------


 ion  position               nearest neighbor table
   1  0.288  0.417  0.558-   6 2.48   8 2.48   2 2.52   3 2.55   9 2.60   7 2.60
   2  0.374  0.549  0.499-  10 2.30   8 2.36  11 2.38   7 2.43   9 2.49   4 2.52   1 2.52  13 2.52
                             6 2.61
   3  0.401  0.290  0.553-   7 2.40   5 2.41   6 2.46   1 2.55
   4  0.534  0.501  0.476-   7 2.34   5 2.37  12 2.43  11 2.48   2 2.52  13 2.57   6 2.67
   5  0.547  0.354  0.532-   6 2.35   4 2.37   3 2.41   7 2.50  12 2.59
   6  0.442  0.437  0.614-  13 2.30   5 2.35   3 2.46   1 2.48   9 2.55   2 2.61   4 2.67   7 2.67

   7  0.416  0.404  0.441-   4 2.34   3 2.40   2 2.43   5 2.50   1 2.60   6 2.67
   8  0.225  0.569  0.542-   9 2.32   2 2.36   1 2.48  10 2.63
   9  0.326  0.553  0.658-  10 2.32   8 2.32   2 2.49  13 2.54   6 2.55   1 2.60
  10  0.356  0.680  0.576-   2 2.30   9 2.32  11 2.47  13 2.53   8 2.63
  11  0.487  0.659  0.479-   2 2.38  13 2.38  10 2.47   4 2.48
  12  0.630  0.487  0.605-  14 1.87   4 2.43   5 2.59  13 2.60
  13  0.488  0.584  0.619-   6 2.30  11 2.38   2 2.52  10 2.53   9 2.54   4 2.57  12 2.60
  14  0.748  0.490  0.645-  15 1.17  12 1.87
  15  0.823  0.510  0.657-  14 1.17
 

IMPORTANT INFORMATION: All symmetrisations will be switched off!
NOSYMM: (Re-)initialisation of all symmetry stuff for point group C_1.

 
 

Automatic generation of k-mesh.
 generate k-points for:    1    1    1
Space group operators:
 irot       det(A)        alpha          n_x          n_y          n_z        tau_x        tau_y        tau_z
    1     1.000000     0.000000     1.000000     0.000000     0.000000     0.000000     0.000000     0.000000
 
 Subroutine IBZKPT returns following result:
 ===========================================
 
 Found      1 irreducible k-points:
 
 Following reciprocal coordinates:
            Coordinates               Weight
  0.000000  0.000000  0.000000      1.000000
 
 Following cartesian coordinates:
            Coordinates               Weight
  0.000000  0.000000  0.000000      1.000000
 


--------------------------------------------------------------------------------------------------------




 Dimension of arrays:
   k-points           NKPTS =      1   k-points in BZ     NKDIM =      1   number of bands    NBANDS=     92
   number of dos      NEDOS =    301   number of ions     NIONS =     15
   non local maximal  LDIM  =      6   non local SUM 2l+1 LMDIM =     18
   total plane-waves  NPLWV = ******
   max r-space proj   IRMAX =      1   max aug-charges    IRDMAX=  15028
   dimension x,y,z NGX =   120 NGY =  120 NGZ =  120
   dimension x,y,z NGXF=   240 NGYF=  240 NGZF=  240
   support grid    NGXF=   240 NGYF=  240 NGZF=  240
   ions per type =              13   1   1
   NGX,Y,Z   is equivalent  to a cutoff of  13.30, 13.30, 13.30 a.u.
   NGXF,Y,Z  is equivalent  to a cutoff of  26.60, 26.60, 26.60 a.u.

 SYSTEM =  CuCO                                    
 POSCAR =  Cu13 C1 O1                              

 Startparameter for this run:
   NWRITE =      2    write-flag & timer
   PREC   = accura    normal or accurate (medium, high low for compatibility)
   ISTART =      0    job   : 0-new  1-cont  2-samecut
   ICHARG =      2    charge: 1-file 2-atom 10-const
   ISPIN  =      2    spin polarized calculation?
   LNONCOLLINEAR =      F non collinear calculations
   LSORBIT =      F    spin-orbit coupling
   INIWAV =      1    electr: 0-lowe 1-rand  2-diag
   LASPH  =      F    aspherical Exc in radial PAW
   METAGGA=      F    non-selfconsistent MetaGGA calc.

 Electronic Relaxation 1
   ENCUT  =  600.0 eV  44.10 Ry    6.64 a.u.  29.96 29.96 29.96*2*pi/ulx,y,z
   ENINI  =  600.0     initial cutoff
   ENAUG  =  644.9 eV  augmentation charge cutoff
   NELM   =    300;   NELMIN=  3; NELMDL= -5     # of ELM steps 
   EDIFF  = 0.1E-06   stopping-criterion for ELM
   LREAL  =      F    real-space projection
   NLSPLINE    = F    spline interpolate recip. space projectors
   LCOMPAT=      F    compatible to vasp.4.4
   GGA_COMPAT  = T    GGA compatible to vasp.4.4-vasp.4.6
   LMAXPAW     = -100 max onsite density
   LMAXMIX     =    2 max onsite mixed and CHGCAR
   VOSKOWN=      0    Vosko Wilk Nusair interpolation
   ROPT   =    0.00000   0.00000   0.00000
 Ionic relaxation
   EDIFFG = -.1E-02   stopping-criterion for IOM
   NSW    =      0    number of steps for IOM
   NBLOCK =      1;   KBLOCK =      1    inner block; outer block 
   IBRION =     -1    ionic relax: 0-MD 1-quasi-New 2-CG
   NFREE  =      0    steps in history (QN), initial steepest desc. (CG)
   ISIF   =      2    stress and relaxation
   IWAVPR =     10    prediction:  0-non 1-charg 2-wave 3-comb
   ISYM   =      0    0-nonsym 1-usesym 2-fastsym
   LCORR  =      T    Harris-Foulkes like correction to forces

   POTIM  = 0.5000    time-step for ionic-motion
   TEIN   =    0.0    initial temperature
   TEBEG  =    0.0;   TEEND  =   0.0 temperature during run
   SMASS  =  -3.00    Nose mass-parameter (am)
   estimated Nose-frequenzy (Omega)   =  0.10E-29 period in steps =****** mass=  -0.514E-26a.u.
   SCALEE = 1.0000    scale energy and forces
   NPACO  =    256;   APACO  = 16.0  distance and # of slots for P.C.
   PSTRESS=    0.0 pullay stress

  Mass of Ions in am
   POMASS =  63.55 12.01 16.00
  Ionic Valenz
   ZVAL   =  11.00  4.00  6.00
  Atomic Wigner-Seitz radii
   RWIGS  =  -1.00 -1.00 -1.00
  virtual crystal weights 
   VCA    =   1.00  1.00  1.00
   NELECT =     153.0000    total number of electrons
   NUPDOWN=       1.0000    fix difference up-down

 DOS related values:
   EMIN   =  10.00;   EMAX   =-10.00  energy-range for DOS
   EFERMI =   0.00
   ISMEAR =     1;   SIGMA  =   0.10  broadening in eV -4-tet -1-fermi 0-gaus

 Electronic relaxation 2 (details)
   IALGO  =     68    algorithm
   LDIAG  =      T    sub-space diagonalisation (order eigenvalues)
   LSUBROT=      F    optimize rotation matrix (better conditioning)
   TURBO    =      0    0=normal 1=particle mesh
   IRESTART =      0    0=no restart 2=restart with 2 vectors
   NREBOOT  =      0    no. of reboots
   NMIN     =      0    reboot dimension
   EREF     =   0.00    reference energy to select bands
   IMIX   =      4    mixing-type and parameters
     AMIX     =   0.40;   BMIX     =  1.00
     AMIX_MAG =   1.60;   BMIX_MAG =  1.00
     AMIN     =   0.10
     WC   =   100.;   INIMIX=   1;  MIXPRE=   1;  MAXMIX= -45

 Intra band minimization:
   WEIMIN = 0.0000     energy-eigenvalue tresh-hold
   EBREAK =  0.27E-09  absolut break condition
   DEPER  =   0.30     relativ break condition  

   TIME   =   0.40     timestep for ELM

  volume/ion in A,a.u.               =     225.00      1518.37
  Fermi-wavevector in a.u.,A,eV,Ry     =   0.583733  1.103095  4.636102  0.340744
  Thomas-Fermi vector in A             =   1.629149
 
 Write flags
   LWAVE        =      F    write WAVECAR
   LDOWNSAMPLE  =      F    k-point downsampling of WAVECAR
   LCHARG       =      F    write CHGCAR
   LVTOT        =      F    write LOCPOT, total local potential
   LVHAR        =      F    write LOCPOT, Hartree potential only
   LELF         =      F    write electronic localiz. function (ELF)
   LORBIT       =      0    0 simple, 1 ext, 2 COOP (PROOUT), +10 PAW based schemes


 Dipole corrections
   LMONO  =      F    monopole corrections only (constant potential shift)
   LDIPOL =      F    correct potential (dipole corrections)
   IDIPOL =      0    1-x, 2-y, 3-z, 4-all directions 
   EPSILON=  1.0000000 bulk dielectric constant

 Exchange correlation treatment:
   GGA     =    PE    GGA type
   LEXCH   =     8    internal setting for exchange type
   VOSKOWN=      0    Vosko Wilk Nusair interpolation
   LHFCALC =     F    Hartree Fock is set to
   LHFONE  =     F    Hartree Fock one center treatment
   AEXX    =    0.0000 exact exchange contribution

 Linear response parameters
   LEPSILON=     F    determine dielectric tensor
   LRPA    =     F    only Hartree local field effects (RPA)
   LNABLA  =     F    use nabla operator in PAW spheres
   LVEL    =     F    velocity operator in full k-point grid
   LINTERFAST=   F  fast interpolation
   KINTER  =     0    interpolate to denser k-point grid
   CSHIFT  =0.1000    complex shift for real part using Kramers Kronig
   OMEGAMAX=  -1.0    maximum frequency
   DEG_THRESHOLD= 0.2000000E-02 threshold for treating states as degnerate
   RTIME   =   -0.100 relaxation time in fs
  (WPLASMAI=    0.000 imaginary part of plasma frequency in eV, 0.658/RTIME)
   DFIELD  = 0.0000000 0.0000000 0.0000000 field for delta impulse in time
 
 Orbital magnetization related:
   ORBITALMAG=     F  switch on orbital magnetization
   LCHIMAG   =     F  perturbation theory with respect to B field
   DQ        =  0.001000  dq finite difference perturbation B field
   LLRAUG    =     F  two centre corrections for induced B field



--------------------------------------------------------------------------------------------------------


 Static calculation
 charge density and potential will be updated during run
 spin polarized calculation
 RMM-DIIS sequential band-by-band and
  variant of blocked Davidson during initial phase
 perform sub-space diagonalisation
    before iterative eigenvector-optimisation
 modified Broyden-mixing scheme, WC =      100.0
 initial mixing is a Kerker type mixing with AMIX =  0.4000 and BMIX =      1.0000
 Hartree-type preconditioning will be used
 using additional bands           15
 reciprocal scheme for non local part
 use partial core corrections
 calculate Harris-corrections to forces 
   (improved forces if not selfconsistent)
 use gradient corrections 
 use of overlap-Matrix (Vanderbilt PP)
 Methfessel and Paxton  Order N= 1 SIGMA  =   0.10


--------------------------------------------------------------------------------------------------------


  energy-cutoff  :      600.00
  volume of cell :     3375.00
      direct lattice vectors                 reciprocal lattice vectors
    15.000000000  0.000000000  0.000000000     0.066666667  0.000000000  0.000000000
     0.000000000 15.000000000  0.000000000     0.000000000  0.066666667  0.000000000
     0.000000000  0.000000000 15.000000000     0.000000000  0.000000000  0.066666667

  length of vectors
    15.000000000 15.000000000 15.000000000     0.066666667  0.066666667  0.066666667


 
 k-points in units of 2pi/SCALE and weight: read from INCAR                         
   0.00000000  0.00000000  0.00000000       1.000
 
 k-points in reciprocal lattice and weights: read from INCAR                         
   0.00000000  0.00000000  0.00000000       1.000
 
 position of ions in fractional coordinates (direct lattice) 
   0.28811533  0.41710333  0.55762200
   0.37440467  0.54873867  0.49923800
   0.40106200  0.29041000  0.55313733
   0.53350133  0.50073867  0.47574267
   0.54685067  0.35382333  0.53221800
   0.44218800  0.43707333  0.61445867
   0.41646000  0.40372200  0.44142467
   0.22473800  0.56919200  0.54237333
   0.32602000  0.55281467  0.65824600
   0.35589667  0.68038000  0.57620467
   0.48664267  0.65901933  0.47892933
   0.63033133  0.48650200  0.60509467
   0.48764067  0.58374333  0.61863200
   0.74844667  0.49048800  0.64484867
   0.82274667  0.50959200  0.65719067
 
 position of ions in cartesian coordinates  (Angst):
   4.32173000  6.25655000  8.36433000
   5.61607000  8.23108000  7.48857000
   6.01593000  4.35615000  8.29706000
   8.00252000  7.51108000  7.13614000
   8.20276000  5.30735000  7.98327000
   6.63282000  6.55610000  9.21688000
   6.24690000  6.05583000  6.62137000
   3.37107000  8.53788000  8.13560000
   4.89030000  8.29222000  9.87369000
   5.33845000 10.20570000  8.64307000
   7.29964000  9.88529000  7.18394000
   9.45497000  7.29753000  9.07642000
   7.31461000  8.75615000  9.27948000
  11.22670000  7.35732000  9.67273000
  12.34120000  7.64388000  9.85786000
 


--------------------------------------------------------------------------------------------------------


 k-point  1 :   0.0000 0.0000 0.0000  plane waves:  112451

 maximum and minimum number of plane-waves per node :     18753    18726

 maximum number of plane-waves:    112451
 maximum index in each direction: 
   IXMAX=   29   IYMAX=   29   IZMAX=   29
   IXMIN=  -29   IYMIN=  -29   IZMIN=  -29


 parallel 3D FFT for wavefunctions:
    minimum data exchange during FFTs selected (reduces bandwidth)
 parallel 3D FFT for charge:
    minimum data exchange during FFTs selected (reduces bandwidth)


 total amount of memory used by VASP MPI-rank0   158680. kBytes
=======================================================================

   base      :      30000. kBytes
   nonl-proj :      12601. kBytes
   fftplans  :      27994. kBytes
   grid      :      74150. kBytes
   one-center:         93. kBytes
   wavefun   :      13842. kBytes
 
     INWAV:  cpu time    0.0000: real time    0.0001
 Broyden mixing: mesh for mixing (old mesh)
   NGX = 59   NGY = 59   NGZ = 59
  (NGX  =240   NGY  =240   NGZ  =240)
  gives a total of 205379 points

 initial charge density was supplied:
 charge density of overlapping atoms calculated
 number of electron     153.0000000 magnetization       1.0000000
 keeping initial charge density in first step


--------------------------------------------------------------------------------------------------------


 Maximum index for augmentation-charges          714 (set IRDMAX)


--------------------------------------------------------------------------------------------------------


 First call to EWALD:  gamma=   0.118
 Maximum number of real-space cells 3x 3x 3
 Maximum number of reciprocal cells 3x 3x 3

    FEWALD:  cpu time    0.0016: real time    0.0017


--------------------------------------- Iteration      1(   1)  ---------------------------------------


    POTLOK:  cpu time    1.2016: real time    1.2163
    SETDIJ:  cpu time    0.0186: real time    0.0186
     EDDAV:  cpu time    7.5301: real time    7.5543
       DOS:  cpu time    0.0010: real time    0.0010
    --------------------------------------------
      LOOP:  cpu time    8.7514: real time    8.7901

 eigenvalue-minimisations  :   376
 total energy-change (2. order) : 0.1118961E+04  (-0.4463895E+04)
 number of electron     153.0000000 magnetization       1.0000000
 augmentation part      153.0000000 magnetization       1.0000000

 Free energy of the ion-electron system (eV)
  ---------------------------------------------------
  alpha Z        PSCENC =        41.16232785
  Ewald energy   TEWEN  =     16401.45987457
  -Hartree energ DENC   =    -33422.68106251
  -exchange      EXHF   =         0.00000000
  -V(xc)+E(xc)   XCENC  =       623.51494283
  PAW double counting   =     16421.75059358   -17800.06104309
  entropy T*S    EENTRO =        -0.02547848
  eigenvalues    EBANDS =       191.62198633
  atomic energy  EATOM  =     18662.21924712
  Solvation  Ediel_sol  =         0.00000000
  ---------------------------------------------------
  free energy    TOTEN  =      1118.96138819 eV

  energy without entropy =     1118.98686667  energy(sigma->0) =     1118.96988102


--------------------------------------------------------------------------------------------------------




--------------------------------------- Iteration      1(   2)  ---------------------------------------


     EDDAV:  cpu time    7.4464: real time    7.4729
       DOS:  cpu time    0.0008: real time    0.0008
    --------------------------------------------
      LOOP:  cpu time    7.4472: real time    7.4737

 eigenvalue-minimisations  :   368
 total energy-change (2. order) :-0.1031466E+04  (-0.9806454E+03)
 number of electron     153.0000000 magnetization       1.0000000
 augmentation part      153.0000000 magnetization       1.0000000

 Free energy of the ion-electron system (eV)
  ---------------------------------------------------
  alpha Z        PSCENC =        41.16232785
  Ewald energy   TEWEN  =     16401.45987457
  -Hartree energ DENC   =    -33422.68106251
  -exchange      EXHF   =         0.00000000
  -V(xc)+E(xc)   XCENC  =       623.51494283
  PAW double counting   =     16421.75059358   -17800.06104309
  entropy T*S    EENTRO =         0.00602191
  eigenvalues    EBANDS =      -839.87530206
  atomic energy  EATOM  =     18662.21924712
  Solvation  Ediel_sol  =         0.00000000
  ---------------------------------------------------
  free energy    TOTEN  =        87.49560019 eV

  energy without entropy =       87.48957828  energy(sigma->0) =       87.49359288


--------------------------------------------------------------------------------------------------------




--------------------------------------- Iteration      1(   3)  ---------------------------------------


     EDDAV:  cpu time   11.7435: real time   11.7814
       DOS:  cpu time    0.0007: real time    0.0007
    --------------------------------------------
      LOOP:  cpu time   11.7442: real time   11.7822

 eigenvalue-minimisations  :   656
 total energy-change (2. order) :-0.1205992E+03  (-0.1123606E+03)
 number of electron     153.0000000 magnetization       1.0000000
 augmentation part      153.0000000 magnetization       1.0000000

 Free energy of the ion-electron system (eV)
  ---------------------------------------------------
  alpha Z        PSCENC =        41.16232785
  Ewald energy   TEWEN  =     16401.45987457
  -Hartree energ DENC   =    -33422.68106251
  -exchange      EXHF   =         0.00000000
  -V(xc)+E(xc)   XCENC  =       623.51494283
  PAW double counting   =     16421.75059358   -17800.06104309
  entropy T*S    EENTRO =         0.00708227
  eigenvalues    EBANDS =      -960.47554951
  atomic energy  EATOM  =     18662.21924712
  Solvation  Ediel_sol  =         0.00000000
  ---------------------------------------------------
  free energy    TOTEN  =       -33.10358690 eV

  energy without entropy =      -33.11066917  energy(sigma->0) =      -33.10594766


--------------------------------------------------------------------------------------------------------




--------------------------------------- Iteration      1(   4)  ---------------------------------------


     EDDAV:  cpu time   10.2971: real time   10.3281
       DOS:  cpu time    0.0007: real time    0.0007
    --------------------------------------------
      LOOP:  cpu time   10.2978: real time   10.3288

 eigenvalue-minimisations  :   560
 total energy-change (2. order) :-0.2230355E+02  (-0.2200284E+02)
 number of electron     153.0000000 magnetization       1.0000000
 augmentation part      153.0000000 magnetization       1.0000000

 Free energy of the ion-electron system (eV)
  ---------------------------------------------------
  alpha Z        PSCENC =        41.16232785
  Ewald energy   TEWEN  =     16401.45987457
  -Hartree energ DENC   =    -33422.68106251
  -exchange      EXHF   =         0.00000000
  -V(xc)+E(xc)   XCENC  =       623.51494283
  PAW double counting   =     16421.75059358   -17800.06104309
  entropy T*S    EENTRO =         0.00879411
  eigenvalues    EBANDS =      -982.78081476
  atomic energy  EATOM  =     18662.21924712
  Solvation  Ediel_sol  =         0.00000000
  ---------------------------------------------------
  free energy    TOTEN  =       -55.40714031 eV

  energy without entropy =      -55.41593442  energy(sigma->0) =      -55.41007168


--------------------------------------------------------------------------------------------------------




--------------------------------------- Iteration      1(   5)  ---------------------------------------


     EDDAV:  cpu time   12.1841: real time   12.2022
       DOS:  cpu time    0.0009: real time    0.0009
    CHARGE:  cpu time    0.6860: real time    0.6865
    MIXING:  cpu time    0.0228: real time    0.0230
    --------------------------------------------
      LOOP:  cpu time   12.8939: real time   12.9127

 eigenvalue-minimisations  :   688
 total energy-change (2. order) :-0.1598081E+01  (-0.1462004E+01)
 number of electron     153.0000047 magnetization       1.0000000
 augmentation part       87.4753028 magnetization       0.3899585

 Broyden mixing:
  rms(total) = 0.23577E+01    rms(broyden)= 0.23576E+01
  rms(prec ) = 0.27069E+01
  weight for this iteration     100.00

 Free energy of the ion-electron system (eV)
  ---------------------------------------------------
  alpha Z        PSCENC =        41.16232785
  Ewald energy   TEWEN  =     16401.45987457
  -Hartree energ DENC   =    -33422.68106251
  -exchange      EXHF   =         0.00000000
  -V(xc)+E(xc)   XCENC  =       623.51494283
  PAW double counting   =     16421.75059358   -17800.06104309
  entropy T*S    EENTRO =         0.00932708
  eigenvalues    EBANDS =      -984.37942839
  atomic energy  EATOM  =     18662.21924712
  Solvation  Ediel_sol  =         0.00000000
  ---------------------------------------------------
  free energy    TOTEN  =       -57.00522097 eV

  energy without entropy =      -57.01454805  energy(sigma->0) =      -57.00833000


--------------------------------------------------------------------------------------------------------




--------------------------------------- Iteration      1(   6)  ---------------------------------------


    POTLOK:  cpu time    1.1405: real time    1.1445
    SETDIJ:  cpu time    0.0189: real time    0.0189
    EDDIAG:  cpu time    1.1076: real time    1.1090
  RMM-DIIS:  cpu time    6.8574: real time    6.8641
    ORTHCH:  cpu time    0.0524: real time    0.0524
       DOS:  cpu time    0.0004: real time    0.0004
    CHARGE:  cpu time    0.6570: real time    0.6570
    MIXING:  cpu time    0.0252: real time    0.0253
    --------------------------------------------
      LOOP:  cpu time    9.8594: real time    9.8716

 eigenvalue-minimisations  :   426
 total energy-change (2. order) : 0.7828659E+00  (-0.1200442E+02)
 number of electron     153.0000051 magnetization       1.0000000
 augmentation part       95.6641656 magnetization       0.0957663

 Broyden mixing:
  rms(total) = 0.15514E+01    rms(broyden)= 0.15512E+01
  rms(prec ) = 0.17901E+01
  weight for this iteration     100.00

 eigenvalues of (default mixing * dielectric matrix)
  average eigenvalue GAMMA=   0.6133
  0.6133

 Free energy of the ion-electron system (eV)
  ---------------------------------------------------
  alpha Z        PSCENC =        41.16232785
  Ewald energy   TEWEN  =     16401.45987457
  -Hartree energ DENC   =    -33172.03739673
  -exchange      EXHF   =         0.00000000
  -V(xc)+E(xc)   XCENC  =       611.34837168
  PAW double counting   =     16705.57858679   -18029.86838123
  entropy T*S    EENTRO =         0.00825886
  eigenvalues    EBANDS =     -1276.09324392
  atomic energy  EATOM  =     18662.21924712
  Solvation  Ediel_sol  =         0.00000000
  ---------------------------------------------------
  free energy    TOTEN  =       -56.22235502 eV

  energy without entropy =      -56.23061388  energy(sigma->0) =      -56.22510797


--------------------------------------------------------------------------------------------------------




--------------------------------------- Iteration      1(   7)  ---------------------------------------


    POTLOK:  cpu time    1.1394: real time    1.1411
    SETDIJ:  cpu time    0.0190: real time    0.0190
    EDDIAG:  cpu time    1.1092: real time    1.1097
  RMM-DIIS:  cpu time    6.4012: real time    6.4052
    ORTHCH:  cpu time    0.0519: real time    0.0519
       DOS:  cpu time    0.0004: real time    0.0004
    CHARGE:  cpu time    0.6772: real time    0.6776
    MIXING:  cpu time    0.0241: real time    0.0241
    --------------------------------------------
      LOOP:  cpu time    9.4223: real time    9.4290

 eigenvalue-minimisations  :   383
 total energy-change (2. order) : 0.7155030E+01  (-0.2486506E+01)
 number of electron     153.0000050 magnetization       1.0000000
 augmentation part       92.8714143 magnetization       0.1195054

 Broyden mixing:
  rms(total) = 0.38876E+00    rms(broyden)= 0.38874E+00
  rms(prec ) = 0.48450E+00
  weight for this iteration     100.00

 eigenvalues of (default mixing * dielectric matrix)
  average eigenvalue GAMMA=   0.9260
  1.1797  0.6722

 Free energy of the ion-electron system (eV)
  ---------------------------------------------------
  alpha Z        PSCENC =        41.16232785
  Ewald energy   TEWEN  =     16401.45987457
  -Hartree energ DENC   =    -33306.67434248
  -exchange      EXHF   =         0.00000000
  -V(xc)+E(xc)   XCENC  =       615.73050637
  PAW double counting   =     17046.28200322   -18420.09918327
  entropy T*S    EENTRO =         0.00910144
  eigenvalues    EBANDS =     -1089.15685964
  atomic energy  EATOM  =     18662.21924712
  Solvation  Ediel_sol  =         0.00000000
  ---------------------------------------------------
  free energy    TOTEN  =       -49.06732483 eV

  energy without entropy =      -49.07642627  energy(sigma->0) =      -49.07035864


--------------------------------------------------------------------------------------------------------




--------------------------------------- Iteration      1(   8)  ---------------------------------------


    POTLOK:  cpu time    1.1414: real time    1.1436
    SETDIJ:  cpu time    0.0189: real time    0.0189
    EDDIAG:  cpu time    1.1077: real time    1.1088
  RMM-DIIS:  cpu time    6.8689: real time    6.8750
    ORTHCH:  cpu time    0.0522: real time    0.0522
       DOS:  cpu time    0.0004: real time    0.0004
    CHARGE:  cpu time    0.7234: real time    0.7238
    MIXING:  cpu time    0.0247: real time    0.0247
    --------------------------------------------
      LOOP:  cpu time    9.9376: real time    9.9474

 eigenvalue-minimisations  :   424
 total energy-change (2. order) : 0.2613587E+00  (-0.4235758E+00)
 number of electron     153.0000049 magnetization       1.0000000
 augmentation part       92.0735812 magnetization       0.1191659

 Broyden mixing:
  rms(total) = 0.30883E+00    rms(broyden)= 0.30881E+00
  rms(prec ) = 0.34987E+00
  weight for this iteration     100.00

 eigenvalues of (default mixing * dielectric matrix)
  average eigenvalue GAMMA=   0.9134
  1.3168  0.7117  0.7117

 Free energy of the ion-electron system (eV)
  ---------------------------------------------------
  alpha Z        PSCENC =        41.16232785
  Ewald energy   TEWEN  =     16401.45987457
  -Hartree energ DENC   =    -33355.44137301
  -exchange      EXHF   =         0.00000000
  -V(xc)+E(xc)   XCENC  =       616.12111179
  PAW double counting   =     17399.80338464   -18793.24317098
  entropy T*S    EENTRO =         0.00934736
  eigenvalues    EBANDS =     -1020.89671546
  atomic energy  EATOM  =     18662.21924712
  Solvation  Ediel_sol  =         0.00000000
  ---------------------------------------------------
  free energy    TOTEN  =       -48.80596611 eV

  energy without entropy =      -48.81531347  energy(sigma->0) =      -48.80908190


--------------------------------------------------------------------------------------------------------




--------------------------------------- Iteration      1(   9)  ---------------------------------------


    POTLOK:  cpu time    1.1422: real time    1.1427
    SETDIJ:  cpu time    0.0190: real time    0.0190
    EDDIAG:  cpu time    1.1087: real time    1.1095
  RMM-DIIS:  cpu time    6.8664: real time    6.8726
    ORTHCH:  cpu time    0.0521: real time    0.0521
       DOS:  cpu time    0.0004: real time    0.0004
    CHARGE:  cpu time    0.6864: real time    0.6869
    MIXING:  cpu time    0.0255: real time    0.0255
    --------------------------------------------
      LOOP:  cpu time    9.9008: real time    9.9088

 eigenvalue-minimisations  :   409
 total energy-change (2. order) : 0.4355366E-01  (-0.1088368E+00)
 number of electron     153.0000049 magnetization       1.0000000
 augmentation part       92.2741796 magnetization       0.1066202

 Broyden mixing:
  rms(total) = 0.19494E+00    rms(broyden)= 0.19493E+00
  rms(prec ) = 0.23225E+00
  weight for this iteration     100.00

 eigenvalues of (default mixing * dielectric matrix)
  average eigenvalue GAMMA=   1.0284
  2.0632  0.7803  0.7803  0.4900

 Free energy of the ion-electron system (eV)
  ---------------------------------------------------
  alpha Z        PSCENC =        41.16232785
  Ewald energy   TEWEN  =     16401.45987457
  -Hartree energ DENC   =    -33352.79744595
  -exchange      EXHF   =         0.00000000
  -V(xc)+E(xc)   XCENC  =       615.65351429
  PAW double counting   =     17498.61908948   -18893.62038657
  entropy T*S    EENTRO =         0.00932787
  eigenvalues    EBANDS =     -1021.46796109
  atomic energy  EATOM  =     18662.21924712
  Solvation  Ediel_sol  =         0.00000000
  ---------------------------------------------------
  free energy    TOTEN  =       -48.76241244 eV

  energy without entropy =      -48.77174031  energy(sigma->0) =      -48.76552173


--------------------------------------------------------------------------------------------------------




--------------------------------------- Iteration      1(  10)  ---------------------------------------


    POTLOK:  cpu time    1.1440: real time    1.1476
    SETDIJ:  cpu time    0.0188: real time    0.0188
    EDDIAG:  cpu time    1.1092: real time    1.1098
  RMM-DIIS:  cpu time    7.0655: real time    7.0967
    ORTHCH:  cpu time    0.0519: real time    0.0519
       DOS:  cpu time    0.0004: real time    0.0004
    CHARGE:  cpu time    0.6847: real time    0.6863
    MIXING:  cpu time    0.0262: real time    0.0262
    --------------------------------------------
      LOOP:  cpu time   10.1007: real time   10.1379

 eigenvalue-minimisations  :   416
 total energy-change (2. order) : 0.7105348E-01  (-0.2195236E-01)
 number of electron     153.0000049 magnetization       1.0000000
 augmentation part       92.4475761 magnetization       0.0939538

 Broyden mixing:
  rms(total) = 0.66188E-01    rms(broyden)= 0.66184E-01
  rms(prec ) = 0.85898E-01
  weight for this iteration     100.00

 eigenvalues of (default mixing * dielectric matrix)
  average eigenvalue GAMMA=   1.0338
  2.1003  1.0295  0.7812  0.7812  0.4766

 Free energy of the ion-electron system (eV)
  ---------------------------------------------------
  alpha Z        PSCENC =        41.16232785
  Ewald energy   TEWEN  =     16401.45987457
  -Hartree energ DENC   =    -33351.27656106
  -exchange      EXHF   =         0.00000000
  -V(xc)+E(xc)   XCENC  =       615.22168707
  PAW double counting   =     17604.22566187   -19001.01907622
  entropy T*S    EENTRO =         0.00934498
  eigenvalues    EBANDS =     -1020.69386515
  atomic energy  EATOM  =     18662.21924712
  Solvation  Ediel_sol  =         0.00000000
  ---------------------------------------------------
  free energy    TOTEN  =       -48.69135896 eV

  energy without entropy =      -48.70070394  energy(sigma->0) =      -48.69447396


--------------------------------------------------------------------------------------------------------




--------------------------------------- Iteration      1(  11)  ---------------------------------------


    POTLOK:  cpu time    1.1408: real time    1.1441
    SETDIJ:  cpu time    0.0189: real time    0.0190
    EDDIAG:  cpu time    1.1070: real time    1.1094
  RMM-DIIS:  cpu time    7.0904: real time    7.1097
    ORTHCH:  cpu time    0.0518: real time    0.0520
       DOS:  cpu time    0.0005: real time    0.0005
    CHARGE:  cpu time    0.6701: real time    0.6727
    MIXING:  cpu time    0.0268: real time    0.0270
    --------------------------------------------
      LOOP:  cpu time   10.1063: real time   10.1345

 eigenvalue-minimisations  :   426
 total energy-change (2. order) : 0.1137058E-01  (-0.8788317E-02)
 number of electron     153.0000049 magnetization       1.0000000
 augmentation part       92.3770747 magnetization       0.0961074

 Broyden mixing:
  rms(total) = 0.45514E-01    rms(broyden)= 0.45510E-01
  rms(prec ) = 0.57740E-01
  weight for this iteration     100.00

 eigenvalues of (default mixing * dielectric matrix)
  average eigenvalue GAMMA=   1.0265
  2.1345  1.4207  0.7811  0.7811  0.5564  0.4855

 Free energy of the ion-electron system (eV)
  ---------------------------------------------------
  alpha Z        PSCENC =        41.16232785
  Ewald energy   TEWEN  =     16401.45987457
  -Hartree energ DENC   =    -33359.16612095
  -exchange      EXHF   =         0.00000000
  -V(xc)+E(xc)   XCENC  =       615.33868048
  PAW double counting   =     17651.26951731   -19050.23430331
  entropy T*S    EENTRO =         0.00929237
  eigenvalues    EBANDS =     -1010.73850382
  atomic energy  EATOM  =     18662.21924712
  Solvation  Ediel_sol  =         0.00000000
  ---------------------------------------------------
  free energy    TOTEN  =       -48.67998838 eV

  energy without entropy =      -48.68928075  energy(sigma->0) =      -48.68308584


--------------------------------------------------------------------------------------------------------




--------------------------------------- Iteration      1(  12)  ---------------------------------------


    POTLOK:  cpu time    1.1407: real time    1.1447
    SETDIJ:  cpu time    0.0192: real time    0.0192
    EDDIAG:  cpu time    1.1029: real time    1.1056
  RMM-DIIS:  cpu time    7.0741: real time    7.0959
    ORTHCH:  cpu time    0.0505: real time    0.0505
       DOS:  cpu time    0.0004: real time    0.0004
    CHARGE:  cpu time    0.6790: real time    0.6816
    MIXING:  cpu time    0.0274: real time    0.0276
    --------------------------------------------
      LOOP:  cpu time   10.0941: real time   10.1255

 eigenvalue-minimisations  :   426
 total energy-change (2. order) : 0.3107829E-02  (-0.2394799E-02)
 number of electron     153.0000049 magnetization       1.0000000
 augmentation part       92.3747248 magnetization       0.0950375

 Broyden mixing:
  rms(total) = 0.22032E-01    rms(broyden)= 0.22031E-01
  rms(prec ) = 0.33493E-01
  weight for this iteration     100.00

 eigenvalues of (default mixing * dielectric matrix)
  average eigenvalue GAMMA=   1.0715
  2.3794  1.6589  1.0411  0.7099  0.7099  0.5477  0.4533

 Free energy of the ion-electron system (eV)
  ---------------------------------------------------
  alpha Z        PSCENC =        41.16232785
  Ewald energy   TEWEN  =     16401.45987457
  -Hartree energ DENC   =    -33362.28527173
  -exchange      EXHF   =         0.00000000
  -V(xc)+E(xc)   XCENC  =       615.38271005
  PAW double counting   =     17661.00004070   -19060.39460121
  entropy T*S    EENTRO =         0.00931683
  eigenvalues    EBANDS =     -1007.23052473
  atomic energy  EATOM  =     18662.21924712
  Solvation  Ediel_sol  =         0.00000000
  ---------------------------------------------------
  free energy    TOTEN  =       -48.67688055 eV

  energy without entropy =      -48.68619738  energy(sigma->0) =      -48.67998616


--------------------------------------------------------------------------------------------------------




--------------------------------------- Iteration      1(  13)  ---------------------------------------


    POTLOK:  cpu time    1.1423: real time    1.1473
    SETDIJ:  cpu time    0.0190: real time    0.0190
    EDDIAG:  cpu time    1.1004: real time    1.1039
  RMM-DIIS:  cpu time    6.8662: real time    6.8909
    ORTHCH:  cpu time    0.0511: real time    0.0512
       DOS:  cpu time    0.0003: real time    0.0003
    CHARGE:  cpu time    0.6786: real time    0.6806
    MIXING:  cpu time    0.0289: real time    0.0290
    --------------------------------------------
      LOOP:  cpu time    9.8869: real time    9.9222

 eigenvalue-minimisations  :   424
 total energy-change (2. order) : 0.1335462E-02  (-0.6586412E-03)
 number of electron     153.0000049 magnetization       1.0000000
 augmentation part       92.3939823 magnetization       0.0952154

 Broyden mixing:
  rms(total) = 0.93514E-02    rms(broyden)= 0.93508E-02
  rms(prec ) = 0.19832E-01
  weight for this iteration     100.00

 eigenvalues of (default mixing * dielectric matrix)
  average eigenvalue GAMMA=   1.1053
  2.4330  1.8238  1.3180  0.7969  0.7488  0.7488  0.5310  0.4421

 Free energy of the ion-electron system (eV)
  ---------------------------------------------------
  alpha Z        PSCENC =        41.16232785
  Ewald energy   TEWEN  =     16401.45987457
  -Hartree energ DENC   =    -33366.08398583
  -exchange      EXHF   =         0.00000000
  -V(xc)+E(xc)   XCENC  =       615.39186803
  PAW double counting   =     17665.21603309   -19064.61370631
  entropy T*S    EENTRO =         0.00931328
  eigenvalues    EBANDS =     -1003.43651689
  atomic energy  EATOM  =     18662.21924712
  Solvation  Ediel_sol  =         0.00000000
  ---------------------------------------------------
  free energy    TOTEN  =       -48.67554509 eV

  energy without entropy =      -48.68485837  energy(sigma->0) =      -48.67864952


--------------------------------------------------------------------------------------------------------




--------------------------------------- Iteration      1(  14)  ---------------------------------------


    POTLOK:  cpu time    1.1393: real time    1.1437
    SETDIJ:  cpu time    0.0193: real time    0.0193
    EDDIAG:  cpu time    1.1015: real time    1.1049
  RMM-DIIS:  cpu time    6.7103: real time    6.7336
    ORTHCH:  cpu time    0.0505: real time    0.0508
       DOS:  cpu time    0.0004: real time    0.0004
    CHARGE:  cpu time    0.6779: real time    0.6801
    MIXING:  cpu time    0.0292: real time    0.0292
    --------------------------------------------
      LOOP:  cpu time    9.7284: real time    9.7621

 eigenvalue-minimisations  :   417
 total energy-change (2. order) :-0.9964023E-03  (-0.3237602E-03)
 number of electron     153.0000049 magnetization       1.0000000
 augmentation part       92.3993191 magnetization       0.0956005

 Broyden mixing:
  rms(total) = 0.10426E-01    rms(broyden)= 0.10425E-01
  rms(prec ) = 0.16552E-01
  weight for this iteration     100.00

 eigenvalues of (default mixing * dielectric matrix)
  average eigenvalue GAMMA=   1.1355
  2.3748  2.3748  1.3554  0.9909  0.7330  0.7330  0.7070  0.5050  0.4458

 Free energy of the ion-electron system (eV)
  ---------------------------------------------------
  alpha Z        PSCENC =        41.16232785
  Ewald energy   TEWEN  =     16401.45987457
  -Hartree energ DENC   =    -33371.02757462
  -exchange      EXHF   =         0.00000000
  -V(xc)+E(xc)   XCENC  =       615.42544844
  PAW double counting   =     17659.55895680   -19058.71679058
  entropy T*S    EENTRO =         0.00931132
  eigenvalues    EBANDS =      -998.76734240
  atomic energy  EATOM  =     18662.21924712
  Solvation  Ediel_sol  =         0.00000000
  ---------------------------------------------------
  free energy    TOTEN  =       -48.67654149 eV

  energy without entropy =      -48.68585281  energy(sigma->0) =      -48.67964527


--------------------------------------------------------------------------------------------------------




--------------------------------------- Iteration      1(  15)  ---------------------------------------


    POTLOK:  cpu time    1.1397: real time    1.1441
    SETDIJ:  cpu time    0.0188: real time    0.0189
    EDDIAG:  cpu time    1.1021: real time    1.1054
  RMM-DIIS:  cpu time    6.6696: real time    6.6948
    ORTHCH:  cpu time    0.0522: real time    0.0523
       DOS:  cpu time    0.0004: real time    0.0004
    CHARGE:  cpu time    0.6785: real time    0.6800
    MIXING:  cpu time    0.0299: real time    0.0300
    --------------------------------------------
      LOOP:  cpu time    9.6913: real time    9.7259

 eigenvalue-minimisations  :   404
 total energy-change (2. order) :-0.1229746E-02  (-0.1491268E-03)
 number of electron     153.0000049 magnetization       1.0000000
 augmentation part       92.3961716 magnetization       0.0958987

 Broyden mixing:
  rms(total) = 0.63105E-02    rms(broyden)= 0.63103E-02
  rms(prec ) = 0.10765E-01
  weight for this iteration     100.00

 eigenvalues of (default mixing * dielectric matrix)
  average eigenvalue GAMMA=   1.1843
  2.6713  2.6713  1.3388  1.3388  0.8324  0.7350  0.7350  0.5778  0.4459  0.4965

 Free energy of the ion-electron system (eV)
  ---------------------------------------------------
  alpha Z        PSCENC =        41.16232785
  Ewald energy   TEWEN  =     16401.45987457
  -Hartree energ DENC   =    -33374.70727583
  -exchange      EXHF   =         0.00000000
  -V(xc)+E(xc)   XCENC  =       615.46283505
  PAW double counting   =     17653.22238757   -19052.22243464
  entropy T*S    EENTRO =         0.00931283
  eigenvalues    EBANDS =      -995.28404577
  atomic energy  EATOM  =     18662.21924712
  Solvation  Ediel_sol  =         0.00000000
  ---------------------------------------------------
  free energy    TOTEN  =       -48.67777124 eV

  energy without entropy =      -48.68708407  energy(sigma->0) =      -48.68087552


--------------------------------------------------------------------------------------------------------




--------------------------------------- Iteration      1(  16)  ---------------------------------------


    POTLOK:  cpu time    1.1401: real time    1.1433
    SETDIJ:  cpu time    0.0190: real time    0.0190
    EDDIAG:  cpu time    1.0986: real time    1.1020
  RMM-DIIS:  cpu time    6.3221: real time    6.3469
    ORTHCH:  cpu time    0.0519: real time    0.0519
       DOS:  cpu time    0.0004: real time    0.0004
    CHARGE:  cpu time    0.6809: real time    0.6829
    MIXING:  cpu time    0.0311: real time    0.0312
    --------------------------------------------
      LOOP:  cpu time    9.3441: real time    9.3775

 eigenvalue-minimisations  :   393
 total energy-change (2. order) :-0.1508470E-02  (-0.1149718E-03)
 number of electron     153.0000049 magnetization       1.0000000
 augmentation part       92.3895626 magnetization       0.0959012

 Broyden mixing:
  rms(total) = 0.55075E-02    rms(broyden)= 0.55071E-02
  rms(prec ) = 0.80209E-02
  weight for this iteration     100.00

 eigenvalues of (default mixing * dielectric matrix)
  average eigenvalue GAMMA=   1.2243
  3.2156  2.6419  1.4826  1.4826  0.8750  0.7507  0.7507  0.7960  0.4437  0.5142
  0.5142

 Free energy of the ion-electron system (eV)
  ---------------------------------------------------
  alpha Z        PSCENC =        41.16232785
  Ewald energy   TEWEN  =     16401.45987457
  -Hartree energ DENC   =    -33377.52782540
  -exchange      EXHF   =         0.00000000
  -V(xc)+E(xc)   XCENC  =       615.49263715
  PAW double counting   =     17649.38651362   -19048.34972522
  entropy T*S    EENTRO =         0.00930636
  eigenvalues    EBANDS =      -992.53163574
  atomic energy  EATOM  =     18662.21924712
  Solvation  Ediel_sol  =         0.00000000
  ---------------------------------------------------
  free energy    TOTEN  =       -48.67927971 eV

  energy without entropy =      -48.68858606  energy(sigma->0) =      -48.68238183


--------------------------------------------------------------------------------------------------------




--------------------------------------- Iteration      1(  17)  ---------------------------------------


    POTLOK:  cpu time    1.1424: real time    1.1473
    SETDIJ:  cpu time    0.0191: real time    0.0191
    EDDIAG:  cpu time    1.0984: real time    1.1018
  RMM-DIIS:  cpu time    6.2882: real time    6.3093
    ORTHCH:  cpu time    0.0521: real time    0.0522
       DOS:  cpu time    0.0004: real time    0.0004
    CHARGE:  cpu time    0.6812: real time    0.6831
    MIXING:  cpu time    0.0320: real time    0.0320
    --------------------------------------------
      LOOP:  cpu time    9.3138: real time    9.3452

 eigenvalue-minimisations  :   394
 total energy-change (2. order) :-0.1734737E-02  (-0.5445940E-04)
 number of electron     153.0000049 magnetization       1.0000000
 augmentation part       92.3919386 magnetization       0.0958596

 Broyden mixing:
  rms(total) = 0.23456E-02    rms(broyden)= 0.23455E-02
  rms(prec ) = 0.40817E-02
  weight for this iteration     100.00

 eigenvalues of (default mixing * dielectric matrix)
  average eigenvalue GAMMA=   1.3239
  4.2590  2.6005  2.0047  1.4509  1.0386  0.8844  0.7536  0.7536  0.6764  0.4443
  0.5277  0.4934

 Free energy of the ion-electron system (eV)
  ---------------------------------------------------
  alpha Z        PSCENC =        41.16232785
  Ewald energy   TEWEN  =     16401.45987457
  -Hartree energ DENC   =    -33379.53015114
  -exchange      EXHF   =         0.00000000
  -V(xc)+E(xc)   XCENC  =       615.50189317
  PAW double counting   =     17647.05218402   -19045.96701604
  entropy T*S    EENTRO =         0.00930508
  eigenvalues    EBANDS =      -990.58867907
  atomic energy  EATOM  =     18662.21924712
  Solvation  Ediel_sol  =         0.00000000
  ---------------------------------------------------
  free energy    TOTEN  =       -48.68101444 eV

  energy without entropy =      -48.69031952  energy(sigma->0) =      -48.68411614


--------------------------------------------------------------------------------------------------------




--------------------------------------- Iteration      1(  18)  ---------------------------------------


    POTLOK:  cpu time    1.1423: real time    1.1466
    SETDIJ:  cpu time    0.0189: real time    0.0189
    EDDIAG:  cpu time    1.0962: real time    1.1013
  RMM-DIIS:  cpu time    6.7186: real time    6.7428
    ORTHCH:  cpu time    0.0519: real time    0.0520
       DOS:  cpu time    0.0004: real time    0.0004
    CHARGE:  cpu time    0.6812: real time    0.6833
    MIXING:  cpu time    0.0329: real time    0.0329
    --------------------------------------------
      LOOP:  cpu time    9.7422: real time    9.7782

 eigenvalue-minimisations  :   410
 total energy-change (2. order) :-0.8953350E-03  (-0.2016004E-04)
 number of electron     153.0000049 magnetization       1.0000000
 augmentation part       92.3914323 magnetization       0.0959719

 Broyden mixing:
  rms(total) = 0.14583E-02    rms(broyden)= 0.14582E-02
  rms(prec ) = 0.26838E-02
  weight for this iteration     100.00

 eigenvalues of (default mixing * dielectric matrix)
  average eigenvalue GAMMA=   1.3607
  5.0345  2.6413  2.2002  1.2839  1.2839  0.8621  0.8621  0.7395  0.7395  0.5932
  0.4445  0.5168  0.4880

 Free energy of the ion-electron system (eV)
  ---------------------------------------------------
  alpha Z        PSCENC =        41.16232785
  Ewald energy   TEWEN  =     16401.45987457
  -Hartree energ DENC   =    -33380.47615596
  -exchange      EXHF   =         0.00000000
  -V(xc)+E(xc)   XCENC  =       615.50360526
  PAW double counting   =     17646.93414758   -19045.86217675
  entropy T*S    EENTRO =         0.00930474
  eigenvalues    EBANDS =      -989.63208419
  atomic energy  EATOM  =     18662.21924712
  Solvation  Ediel_sol  =         0.00000000
  ---------------------------------------------------
  free energy    TOTEN  =       -48.68190978 eV

  energy without entropy =      -48.69121452  energy(sigma->0) =      -48.68501136


--------------------------------------------------------------------------------------------------------




--------------------------------------- Iteration      1(  19)  ---------------------------------------


    POTLOK:  cpu time    1.1417: real time    1.1444
    SETDIJ:  cpu time    0.0186: real time    0.0188
    EDDIAG:  cpu time    1.0988: real time    1.1021
  RMM-DIIS:  cpu time    7.4851: real time    7.5241
    ORTHCH:  cpu time    0.0521: real time    0.0521
       DOS:  cpu time    0.0004: real time    0.0004
    CHARGE:  cpu time    0.6809: real time    0.6831
    MIXING:  cpu time    0.0346: real time    0.0346
    --------------------------------------------
      LOOP:  cpu time   10.5123: real time   10.5595

 eigenvalue-minimisations  :   460
 total energy-change (2. order) :-0.7720195E-03  (-0.1336967E-04)
 number of electron     153.0000049 magnetization       1.0000000
 augmentation part       92.3903858 magnetization       0.0960141

 Broyden mixing:
  rms(total) = 0.11626E-02    rms(broyden)= 0.11625E-02
  rms(prec ) = 0.20166E-02
  weight for this iteration     100.00

 eigenvalues of (default mixing * dielectric matrix)
  average eigenvalue GAMMA=   1.4286
  5.8066  2.7347  2.2477  1.5307  1.5307  0.9769  0.9769  0.7447  0.7447  0.6921
  0.5718  0.4442  0.5057  0.4935

 Free energy of the ion-electron system (eV)
  ---------------------------------------------------
  alpha Z        PSCENC =        41.16232785
  Ewald energy   TEWEN  =     16401.45987457
  -Hartree energ DENC   =    -33381.06613317
  -exchange      EXHF   =         0.00000000
  -V(xc)+E(xc)   XCENC  =       615.50339259
  PAW double counting   =     17647.22737846   -19046.17647580
  entropy T*S    EENTRO =         0.00930495
  eigenvalues    EBANDS =      -989.02159838
  atomic energy  EATOM  =     18662.21924712
  Solvation  Ediel_sol  =         0.00000000
  ---------------------------------------------------
  free energy    TOTEN  =       -48.68268180 eV

  energy without entropy =      -48.69198675  energy(sigma->0) =      -48.68578345


--------------------------------------------------------------------------------------------------------




--------------------------------------- Iteration      1(  20)  ---------------------------------------


    POTLOK:  cpu time    1.1429: real time    1.1458
    SETDIJ:  cpu time    0.0190: real time    0.0190
    EDDIAG:  cpu time    1.0959: real time    1.1007
  RMM-DIIS:  cpu time    6.3814: real time    6.4035
    ORTHCH:  cpu time    0.0540: real time    0.0540
       DOS:  cpu time    0.0005: real time    0.0005
    CHARGE:  cpu time    0.6776: real time    0.6810
    MIXING:  cpu time    0.0360: real time    0.0361
    --------------------------------------------
      LOOP:  cpu time    9.4073: real time    9.4407

 eigenvalue-minimisations  :   400
 total energy-change (2. order) :-0.5613454E-03  (-0.4565833E-05)
 number of electron     153.0000049 magnetization       1.0000000
 augmentation part       92.3909446 magnetization       0.0959639

 Broyden mixing:
  rms(total) = 0.75474E-03    rms(broyden)= 0.75471E-03
  rms(prec ) = 0.13040E-02
  weight for this iteration     100.00

 eigenvalues of (default mixing * dielectric matrix)
  average eigenvalue GAMMA=   1.4534
  6.3118  2.8376  2.3131  1.9604  1.3392  1.1557  0.8804  0.8804  0.7466  0.7466
  0.6411  0.4443  0.4911  0.5265  0.5265

 Free energy of the ion-electron system (eV)
  ---------------------------------------------------
  alpha Z        PSCENC =        41.16232785
  Ewald energy   TEWEN  =     16401.45987457
  -Hartree energ DENC   =    -33381.19306537
  -exchange      EXHF   =         0.00000000
  -V(xc)+E(xc)   XCENC  =       615.50214092
  PAW double counting   =     17647.44125927   -19046.39589227
  entropy T*S    EENTRO =         0.00930595
  eigenvalues    EBANDS =      -988.88844118
  atomic energy  EATOM  =     18662.21924712
  Solvation  Ediel_sol  =         0.00000000
  ---------------------------------------------------
  free energy    TOTEN  =       -48.68324314 eV

  energy without entropy =      -48.69254909  energy(sigma->0) =      -48.68634513


--------------------------------------------------------------------------------------------------------




--------------------------------------- Iteration      1(  21)  ---------------------------------------


    POTLOK:  cpu time    1.1420: real time    1.1469
    SETDIJ:  cpu time    0.0189: real time    0.0189
    EDDIAG:  cpu time    1.0997: real time    1.1031
  RMM-DIIS:  cpu time    6.6493: real time    6.6725
    ORTHCH:  cpu time    0.0524: real time    0.0524
       DOS:  cpu time    0.0004: real time    0.0004
    CHARGE:  cpu time    0.6765: real time    0.6786
    MIXING:  cpu time    0.0375: real time    0.0376
    --------------------------------------------
      LOOP:  cpu time    9.6768: real time    9.7104

 eigenvalue-minimisations  :   407
 total energy-change (2. order) :-0.3601870E-03  (-0.2754786E-05)
 number of electron     153.0000049 magnetization       1.0000000
 augmentation part       92.3919384 magnetization       0.0959475

 Broyden mixing:
  rms(total) = 0.54081E-03    rms(broyden)= 0.54078E-03
  rms(prec ) = 0.89696E-03
  weight for this iteration     100.00

 eigenvalues of (default mixing * dielectric matrix)
  average eigenvalue GAMMA=   1.4934
  6.6005  3.2200  2.4166  2.1350  1.3765  1.3765  0.9698  0.9698  0.7505  0.7505
  0.7165  0.6341  0.4443  0.5349  0.5100  0.4888

 Free energy of the ion-electron system (eV)
  ---------------------------------------------------
  alpha Z        PSCENC =        41.16232785
  Ewald energy   TEWEN  =     16401.45987457
  -Hartree energ DENC   =    -33381.18163341
  -exchange      EXHF   =         0.00000000
  -V(xc)+E(xc)   XCENC  =       615.50054933
  PAW double counting   =     17647.59247899   -19046.54288282
  entropy T*S    EENTRO =         0.00930647
  eigenvalues    EBANDS =      -988.90287142
  atomic energy  EATOM  =     18662.21924712
  Solvation  Ediel_sol  =         0.00000000
  ---------------------------------------------------
  free energy    TOTEN  =       -48.68360333 eV

  energy without entropy =      -48.69290980  energy(sigma->0) =      -48.68670549


--------------------------------------------------------------------------------------------------------




--------------------------------------- Iteration      1(  22)  ---------------------------------------


    POTLOK:  cpu time    1.1414: real time    1.1451
    SETDIJ:  cpu time    0.0185: real time    0.0185
    EDDIAG:  cpu time    1.1004: real time    1.1039
  RMM-DIIS:  cpu time    6.5353: real time    6.5624
    ORTHCH:  cpu time    0.0529: real time    0.0532
       DOS:  cpu time    0.0004: real time    0.0004
    CHARGE:  cpu time    0.6761: real time    0.6781
    MIXING:  cpu time    0.0394: real time    0.0394
    --------------------------------------------
      LOOP:  cpu time    9.5644: real time    9.6009

 eigenvalue-minimisations  :   395
 total energy-change (2. order) :-0.2785529E-03  (-0.2073619E-05)
 number of electron     153.0000049 magnetization       1.0000000
 augmentation part       92.3919869 magnetization       0.0959576

 Broyden mixing:
  rms(total) = 0.37724E-03    rms(broyden)= 0.37722E-03
  rms(prec ) = 0.60494E-03
  weight for this iteration     100.00

 eigenvalues of (default mixing * dielectric matrix)
  average eigenvalue GAMMA=   1.5415
  7.0383  3.9105  2.4986  2.1453  1.5192  1.5192  0.9993  0.9993  0.7636  0.7636
  0.7781  0.7019  0.4443  0.5890  0.5354  0.4909  0.5082

 Free energy of the ion-electron system (eV)
  ---------------------------------------------------
  alpha Z        PSCENC =        41.16232785
  Ewald energy   TEWEN  =     16401.45987457
  -Hartree energ DENC   =    -33381.25984508
  -exchange      EXHF   =         0.00000000
  -V(xc)+E(xc)   XCENC  =       615.49944445
  PAW double counting   =     17647.77309423   -19046.72344564
  entropy T*S    EENTRO =         0.00930595
  eigenvalues    EBANDS =      -988.82388534
  atomic energy  EATOM  =     18662.21924712
  Solvation  Ediel_sol  =         0.00000000
  ---------------------------------------------------
  free energy    TOTEN  =       -48.68388188 eV

  energy without entropy =      -48.69318783  energy(sigma->0) =      -48.68698387


--------------------------------------------------------------------------------------------------------




--------------------------------------- Iteration      1(  23)  ---------------------------------------


    POTLOK:  cpu time    1.1411: real time    1.1439
    SETDIJ:  cpu time    0.0189: real time    0.0191
    EDDIAG:  cpu time    1.1019: real time    1.1051
  RMM-DIIS:  cpu time    6.5777: real time    6.6021
    ORTHCH:  cpu time    0.0544: real time    0.0548
       DOS:  cpu time    0.0005: real time    0.0005
    CHARGE:  cpu time    0.6757: real time    0.6773
    MIXING:  cpu time    0.0416: real time    0.0416
    --------------------------------------------
      LOOP:  cpu time    9.6118: real time    9.6445

 eigenvalue-minimisations  :   407
 total energy-change (2. order) :-0.1288487E-03  (-0.8024000E-06)
 number of electron     153.0000049 magnetization       1.0000000
 augmentation part       92.3915479 magnetization       0.0959459

 Broyden mixing:
  rms(total) = 0.22121E-03    rms(broyden)= 0.22120E-03
  rms(prec ) = 0.36422E-03
  weight for this iteration     100.00

 eigenvalues of (default mixing * dielectric matrix)
  average eigenvalue GAMMA=   1.5713
  7.4362  4.2708  2.4693  2.2422  1.8093  1.3129  1.3129  0.9793  0.9793  0.7559
  0.7559  0.7474  0.6680  0.4443  0.5745  0.4897  0.5180  0.5180

 Free energy of the ion-electron system (eV)
  ---------------------------------------------------
  alpha Z        PSCENC =        41.16232785
  Ewald energy   TEWEN  =     16401.45987457
  -Hartree energ DENC   =    -33381.33402387
  -exchange      EXHF   =         0.00000000
  -V(xc)+E(xc)   XCENC  =       615.49968986
  PAW double counting   =     17647.81643643   -19046.76997417
  entropy T*S    EENTRO =         0.00930587
  eigenvalues    EBANDS =      -988.74689440
  atomic energy  EATOM  =     18662.21924712
  Solvation  Ediel_sol  =         0.00000000
  ---------------------------------------------------
  free energy    TOTEN  =       -48.68401073 eV

  energy without entropy =      -48.69331661  energy(sigma->0) =      -48.68711269


--------------------------------------------------------------------------------------------------------




--------------------------------------- Iteration      1(  24)  ---------------------------------------


    POTLOK:  cpu time    1.1432: real time    1.1473
    SETDIJ:  cpu time    0.0184: real time    0.0184
    EDDIAG:  cpu time    1.1008: real time    1.1042
  RMM-DIIS:  cpu time    6.3907: real time    6.4142
    ORTHCH:  cpu time    0.0541: real time    0.0541
       DOS:  cpu time    0.0004: real time    0.0004
    CHARGE:  cpu time    0.6766: real time    0.6785
    MIXING:  cpu time    0.0430: real time    0.0430
    --------------------------------------------
      LOOP:  cpu time    9.4273: real time    9.4602

 eigenvalue-minimisations  :   393
 total energy-change (2. order) :-0.1047371E-03  (-0.7807286E-06)
 number of electron     153.0000049 magnetization       1.0000000
 augmentation part       92.3911096 magnetization       0.0959346

 Broyden mixing:
  rms(total) = 0.18439E-03    rms(broyden)= 0.18438E-03
  rms(prec ) = 0.27065E-03
  weight for this iteration     100.00

 eigenvalues of (default mixing * dielectric matrix)
  average eigenvalue GAMMA=   1.5915
  7.6978  4.5713  2.4394  2.4394  1.8494  1.4594  1.4594  0.9906  0.9906  0.8273
  0.8273  0.7499  0.7499  0.6329  0.4443  0.5760  0.4898  0.5316  0.5114

 Free energy of the ion-electron system (eV)
  ---------------------------------------------------
  alpha Z        PSCENC =        41.16232785
  Ewald energy   TEWEN  =     16401.45987457
  -Hartree energ DENC   =    -33381.36550753
  -exchange      EXHF   =         0.00000000
  -V(xc)+E(xc)   XCENC  =       615.50038583
  PAW double counting   =     17647.74040531   -19046.69644907
  entropy T*S    EENTRO =         0.00930589
  eigenvalues    EBANDS =      -988.71370544
  atomic energy  EATOM  =     18662.21924712
  Solvation  Ediel_sol  =         0.00000000
  ---------------------------------------------------
  free energy    TOTEN  =       -48.68411547 eV

  energy without entropy =      -48.69342136  energy(sigma->0) =      -48.68721743


--------------------------------------------------------------------------------------------------------




--------------------------------------- Iteration      1(  25)  ---------------------------------------


    POTLOK:  cpu time    1.1405: real time    1.1458
    SETDIJ:  cpu time    0.0190: real time    0.0190
    EDDIAG:  cpu time    1.1015: real time    1.1044
  RMM-DIIS:  cpu time    6.2431: real time    6.2653
    ORTHCH:  cpu time    0.0537: real time    0.0537
       DOS:  cpu time    0.0004: real time    0.0004
    CHARGE:  cpu time    0.6771: real time    0.6799
    MIXING:  cpu time    0.0453: real time    0.0453
    --------------------------------------------
      LOOP:  cpu time    9.2807: real time    9.3138

 eigenvalue-minimisations  :   392
 total energy-change (2. order) :-0.7625104E-04  (-0.7275128E-06)
 number of electron     153.0000049 magnetization       1.0000000
 augmentation part       92.3913324 magnetization       0.0959527

 Broyden mixing:
  rms(total) = 0.11245E-03    rms(broyden)= 0.11243E-03
  rms(prec ) = 0.16436E-03
  weight for this iteration     100.00

 eigenvalues of (default mixing * dielectric matrix)
  average eigenvalue GAMMA=   1.6421
  7.9772  5.0913  2.7078  2.6057  1.9808  1.7464  1.3013  1.3013  0.9793  0.9793
  0.7562  0.7562  0.7385  0.7385  0.4443  0.6298  0.5748  0.4897  0.5127  0.5305

 Free energy of the ion-electron system (eV)
  ---------------------------------------------------
  alpha Z        PSCENC =        41.16232785
  Ewald energy   TEWEN  =     16401.45987457
  -Hartree energ DENC   =    -33381.35641740
  -exchange      EXHF   =         0.00000000
  -V(xc)+E(xc)   XCENC  =       615.49999378
  PAW double counting   =     17647.63140938   -19046.58254841
  entropy T*S    EENTRO =         0.00930597
  eigenvalues    EBANDS =      -988.72738459
  atomic energy  EATOM  =     18662.21924712
  Solvation  Ediel_sol  =         0.00000000
  ---------------------------------------------------
  free energy    TOTEN  =       -48.68419172 eV

  energy without entropy =      -48.69349769  energy(sigma->0) =      -48.68729371


--------------------------------------------------------------------------------------------------------




--------------------------------------- Iteration      1(  26)  ---------------------------------------


    POTLOK:  cpu time    1.1402: real time    1.1449
    SETDIJ:  cpu time    0.0194: real time    0.0194
    EDDIAG:  cpu time    1.1010: real time    1.1041
  RMM-DIIS:  cpu time    6.2375: real time    6.2586
    ORTHCH:  cpu time    0.0531: real time    0.0532
       DOS:  cpu time    0.0005: real time    0.0005
    CHARGE:  cpu time    0.6759: real time    0.6792
    MIXING:  cpu time    0.0481: real time    0.0481
    --------------------------------------------
      LOOP:  cpu time    9.2756: real time    9.3080

 eigenvalue-minimisations  :   377
 total energy-change (2. order) :-0.2672599E-04  (-0.2797771E-06)
 number of electron     153.0000049 magnetization       1.0000000
 augmentation part       92.3916889 magnetization       0.0959441

 Broyden mixing:
  rms(total) = 0.10455E-03    rms(broyden)= 0.10455E-03
  rms(prec ) = 0.13405E-03
  weight for this iteration     100.00

 eigenvalues of (default mixing * dielectric matrix)
  average eigenvalue GAMMA=   1.6356
  8.1178  5.3478  3.0226  2.5120  2.0179  1.7742  1.3251  1.3251  0.9925  0.9925
  0.8194  0.8194  0.7297  0.7297  0.6399  0.6399  0.4443  0.5672  0.4898  0.5302
  0.5117

 Free energy of the ion-electron system (eV)
  ---------------------------------------------------
  alpha Z        PSCENC =        41.16232785
  Ewald energy   TEWEN  =     16401.45987457
  -Hartree energ DENC   =    -33381.34709947
  -exchange      EXHF   =         0.00000000
  -V(xc)+E(xc)   XCENC  =       615.49958330
  PAW double counting   =     17647.59541278   -19046.54283150
  entropy T*S    EENTRO =         0.00930596
  eigenvalues    EBANDS =      -988.74003905
  atomic energy  EATOM  =     18662.21924712
  Solvation  Ediel_sol  =         0.00000000
  ---------------------------------------------------
  free energy    TOTEN  =       -48.68421845 eV

  energy without entropy =      -48.69352440  energy(sigma->0) =      -48.68732043


--------------------------------------------------------------------------------------------------------




--------------------------------------- Iteration      1(  27)  ---------------------------------------


    POTLOK:  cpu time    1.1414: real time    1.1444
    SETDIJ:  cpu time    0.0187: real time    0.0187
    EDDIAG:  cpu time    1.1011: real time    1.1043
  RMM-DIIS:  cpu time    4.8828: real time    4.8995
    ORTHCH:  cpu time    0.0529: real time    0.0529
       DOS:  cpu time    0.0004: real time    0.0004
    CHARGE:  cpu time    0.6766: real time    0.6797
    MIXING:  cpu time    0.0513: real time    0.0514
    --------------------------------------------
      LOOP:  cpu time    7.9253: real time    7.9513

 eigenvalue-minimisations  :   289
 total energy-change (2. order) :-0.1044397E-04  (-0.9870390E-07)
 number of electron     153.0000049 magnetization       1.0000000
 augmentation part       92.3914915 magnetization       0.0959386

 Broyden mixing:
  rms(total) = 0.59744E-04    rms(broyden)= 0.59738E-04
  rms(prec ) = 0.83580E-04
  weight for this iteration     100.00

 eigenvalues of (default mixing * dielectric matrix)
  average eigenvalue GAMMA=   1.6472
  8.2136  5.6894  3.2626  2.4412  2.0856  1.8863  1.3634  1.3634  1.0180  1.0180
  1.0688  0.7546  0.7546  0.7730  0.7730  0.4443  0.6161  0.6161  0.4899  0.5129
  0.5269  0.5681

 Free energy of the ion-electron system (eV)
  ---------------------------------------------------
  alpha Z        PSCENC =        41.16232785
  Ewald energy   TEWEN  =     16401.45987457
  -Hartree energ DENC   =    -33381.35277194
  -exchange      EXHF   =         0.00000000
  -V(xc)+E(xc)   XCENC  =       615.49978486
  PAW double counting   =     17647.59638272   -19046.54538947
  entropy T*S    EENTRO =         0.00930593
  eigenvalues    EBANDS =      -988.73299054
  atomic energy  EATOM  =     18662.21924712
  Solvation  Ediel_sol  =         0.00000000
  ---------------------------------------------------
  free energy    TOTEN  =       -48.68422889 eV

  energy without entropy =      -48.69353482  energy(sigma->0) =      -48.68733087


--------------------------------------------------------------------------------------------------------




--------------------------------------- Iteration      1(  28)  ---------------------------------------


    POTLOK:  cpu time    1.1423: real time    1.1455
    SETDIJ:  cpu time    0.0190: real time    0.0190
    EDDIAG:  cpu time    1.1014: real time    1.1058
  RMM-DIIS:  cpu time    4.3782: real time    4.3923
    ORTHCH:  cpu time    0.0530: real time    0.0530
       DOS:  cpu time    0.0004: real time    0.0004
    CHARGE:  cpu time    0.6789: real time    0.6809
    MIXING:  cpu time    0.0548: real time    0.0551
[...]
     66      -4.9086      1.00000
     67      -4.8854      1.00000
     68      -4.8742      1.00000
     69      -4.8661      1.00000
     70      -4.8193      1.00000
     71      -4.7994      1.00000
     72      -4.7626      1.00000
     73      -4.7168      1.00000
     74      -4.5287      1.00000
     75      -4.1536      1.00000
     76      -4.0889      1.00000
     77      -3.5538      1.00000
     78      -3.0348     -0.00000
     79      -2.9588     -0.00000
     80      -2.5265     -0.00000
     81      -2.3635     -0.00000
     82      -1.9127     -0.00000
     83      -1.8450     -0.00000
     84      -1.7435     -0.00000
     85      -1.4777     -0.00000
     86      -1.0994     -0.00000
     87      -0.9550     -0.00000
     88      -0.7319      0.00000
     89      -0.3979      0.00000
     90      -0.2307      0.00000
     91      -0.0036      0.00000
     92       0.0628      0.00000

 spin component 2

 k-point     1 :       0.0000    0.0000    0.0000
  band No.  band energies     occupation 
      1     -28.3789      1.00000
      2     -13.8247      1.00000
      3     -11.2096      1.00000
      4     -11.0894      1.00000
      5     -10.8682      1.00000
      6     -10.1421      1.00000
      7      -8.6411      1.00000
      8      -8.1451      1.00000
      9      -7.6826      1.00000
     10      -7.5305      1.00000
     11      -7.4564      1.00000
     12      -7.2765      1.00000
     13      -7.1419      1.00000
     14      -7.1232      1.00000
     15      -6.9985      1.00000
     16      -6.9458      1.00000
     17      -6.7937      1.00000
     18      -6.6668      1.00000
     19      -6.6347      1.00000
     20      -6.5837      1.00000
     21      -6.5552      1.00000
     22      -6.5280      1.00000
     23      -6.5210      1.00000
     24      -6.4266      1.00000
     25      -6.3935      1.00000
     26      -6.3357      1.00000
     27      -6.3307      1.00000
     28      -6.2497      1.00000
     29      -6.2318      1.00000
     30      -6.1938      1.00000
     31      -6.1546      1.00000
     32      -6.1359      1.00000
     33      -6.0784      1.00000
     34      -6.0114      1.00000
     35      -5.9877      1.00000
     36      -5.8628      1.00000
     37      -5.8221      1.00000
     38      -5.6930      1.00000
     39      -5.6568      1.00000
     40      -5.6240      1.00000
     41      -5.5767      1.00000
     42      -5.5365      1.00000
     43      -5.4905      1.00000
     44      -5.4785      1.00000
     45      -5.4033      1.00000
     46      -5.3969      1.00000
     47      -5.3552      1.00000
     48      -5.3282      1.00000
     49      -5.3200      1.00000
     50      -5.2771      1.00000
     51      -5.2511      1.00000
     52      -5.2357      1.00000
     53      -5.2089      1.00000
     54      -5.1793      1.00000
     55      -5.1637      1.00000
     56      -5.1466      1.00000
     57      -5.1206      1.00000
     58      -5.1111      1.00000
     59      -5.0763      1.00000
     60      -5.0338      1.00000
     61      -5.0236      1.00000
     62      -5.0129      1.00000
     63      -4.9652      1.00000
     64      -4.9369      1.00000
     65      -4.9054      1.00000
     66      -4.8838      1.00000
     67      -4.8595      1.00000
     68      -4.8388      1.00000
     69      -4.8345      1.00000
     70      -4.7854      1.00000
     71      -4.7631      1.00000
     72      -4.7321      1.00000
     73      -4.6873      1.00000
     74      -4.4840      1.00000
     75      -4.0906      1.03449
     76      -4.0473      0.96551
     77      -3.3601     -0.00000
     78      -2.9788     -0.00000
     79      -2.9023     -0.00000
     80      -2.4602     -0.00000
     81      -2.2618     -0.00000
     82      -1.8781     -0.00000
     83      -1.7582     -0.00000
     84      -1.6835     -0.00000
     85      -1.3713     -0.00000
     86      -0.9424      0.00000
     87      -0.9059      0.00000
     88      -0.6656      0.00000
     89      -0.2817      0.00000
     90      -0.1718      0.00000
     91       0.0566      0.00000
     92       0.1159      0.00000


--------------------------------------------------------------------------------------------------------


 soft charge-density along one line, spin component           1
         0         1         2         3         4         5         6         7         8         9
 total charge-density along one line
 
 soft charge-density along one line, spin component           2
         0         1         2         3         4         5         6         7         8         9
 total charge-density along one line
 
 pseudopotential strength for first ion, spin component:           1
-10.474   0.001  -0.010  -0.000  -0.011   0.985  -0.000   0.010
  0.001 -10.445  -0.007   0.004   0.004  -0.000   0.963   0.005
 -0.010  -0.007 -10.433   0.003  -0.006   0.010   0.005   0.952
 -0.000   0.004   0.003 -10.440  -0.004   0.000  -0.005  -0.002
 -0.011   0.004  -0.006  -0.004 -10.456   0.009  -0.003   0.005
  0.985  -0.000   0.010   0.000   0.009   6.317   0.000  -0.009
 -0.000   0.963   0.005  -0.005  -0.003   0.000   6.330  -0.004
  0.010   0.005   0.952  -0.002   0.005  -0.009  -0.004   6.339
  0.000  -0.005  -0.002   0.957   0.003  -0.000   0.006   0.001
  0.009  -0.003   0.005   0.003   0.971  -0.006   0.002  -0.005
 -0.006   0.001  -0.005   0.000  -0.003   0.005  -0.000  -0.000
 -0.012   0.002  -0.010   0.000  -0.006   0.010  -0.001  -0.000
 -0.013   0.002   0.006  -0.000   0.011   0.008  -0.001  -0.004
 -0.000  -0.009   0.002  -0.013   0.000   0.000   0.005  -0.001
 -0.008  -0.000   0.008   0.002  -0.013   0.004   0.000  -0.005
 -0.014   0.002   0.006  -0.000   0.012   0.007  -0.001  -0.004
 -0.000  -0.010   0.002  -0.013   0.000   0.000   0.005  -0.001
 -0.008  -0.000   0.009   0.002  -0.014   0.003   0.000  -0.005
 pseudopotential strength for first ion, spin component:           2
-10.425   0.001  -0.002  -0.006   0.005   0.946  -0.001   0.002
  0.001 -10.429  -0.007   0.003   0.004  -0.001   0.949   0.005
 -0.002  -0.007 -10.416   0.002  -0.002   0.002   0.005   0.938
 -0.006   0.003   0.002 -10.424  -0.006   0.005  -0.003  -0.001
  0.005   0.004  -0.002  -0.006 -10.436  -0.004  -0.003   0.002
  0.946  -0.001   0.002   0.005  -0.004   6.342   0.001  -0.002
 -0.001   0.949   0.005  -0.003  -0.003   0.001   6.339  -0.004
  0.002   0.005   0.938  -0.001   0.002  -0.002  -0.004   6.346
  0.005  -0.003  -0.001   0.944   0.005  -0.003   0.002   0.001
 -0.004  -0.003   0.002   0.005   0.955   0.002   0.002  -0.002
 -0.002   0.002  -0.002   0.000  -0.001   0.001  -0.001  -0.001
 -0.003   0.003  -0.004  -0.000  -0.002   0.002  -0.001  -0.002
 -0.015   0.002   0.006   0.000   0.010   0.011  -0.001  -0.005
  0.000  -0.010   0.002  -0.014   0.000  -0.000   0.007  -0.002
 -0.011   0.000   0.009   0.003  -0.015   0.008  -0.000  -0.007
 -0.017   0.002   0.007   0.000   0.011   0.012  -0.001  -0.006
  0.000  -0.011   0.003  -0.016   0.001  -0.000   0.008  -0.002
 -0.013   0.000   0.010   0.003  -0.016   0.009  -0.000  -0.008
 total augmentation occupancy for first ion, spin component:           1
  1.931   0.004  -0.007   0.001  -0.005  -0.014  -0.002   0.005  -0.001   0.003  -0.013   0.012   0.034  -0.001   0.035  -0.021
  0.004   1.930  -0.006   0.007   0.001  -0.002  -0.022   0.004  -0.001   0.000  -0.001  -0.001  -0.005   0.039  -0.003   0.002
 -0.007  -0.006   1.948   0.004  -0.003   0.005   0.004  -0.028  -0.003   0.003  -0.005   0.010  -0.014  -0.003  -0.021   0.008
  0.001   0.007   0.004   1.937  -0.006  -0.001  -0.001  -0.003  -0.022   0.004   0.008   0.001   0.005   0.058  -0.001  -0.000
 -0.005   0.001  -0.003  -0.006   1.939   0.003   0.000   0.003   0.004  -0.017  -0.004   0.006  -0.015   0.009   0.036   0.014
 -0.014  -0.002   0.005  -0.001   0.003   0.012   0.000   0.001   0.000   0.001  -0.019  -0.001   0.018   0.001   0.009  -0.001
 -0.002  -0.022   0.004  -0.001   0.000   0.000   0.007   0.000   0.001  -0.000   0.005  -0.001  -0.001   0.011   0.002  -0.000
  0.005   0.004  -0.028  -0.003   0.003   0.001   0.000   0.006  -0.000   0.001  -0.036   0.005  -0.007  -0.001  -0.007   0.001
 -0.001  -0.001  -0.003  -0.022   0.004   0.000   0.001  -0.000   0.007  -0.001  -0.004   0.001  -0.000   0.016  -0.001  -0.000
  0.003   0.000   0.003   0.004  -0.017   0.001  -0.000   0.001  -0.001   0.011  -0.011   0.000  -0.020  -0.002   0.020   0.001
 -0.013  -0.001  -0.005   0.008  -0.004  -0.019   0.005  -0.036  -0.004  -0.011   1.577  -0.107   0.125  -0.013   0.174  -0.017
  0.012  -0.001   0.010   0.001   0.006  -0.001  -0.001   0.005   0.001   0.000  -0.107   0.013  -0.017   0.002  -0.024   0.002
  0.034  -0.005  -0.014   0.005  -0.015   0.018  -0.001  -0.007  -0.000  -0.020   0.125  -0.017   0.163   0.003  -0.033  -0.011
 -0.001   0.039  -0.003   0.058   0.009   0.001   0.011  -0.001   0.016  -0.002  -0.013   0.002   0.003   0.073  -0.004  -0.000
  0.035  -0.003  -0.021  -0.001   0.036   0.009   0.002  -0.007  -0.001   0.020   0.174  -0.024  -0.033  -0.004   0.129   0.001
 -0.021   0.002   0.008  -0.000   0.014  -0.001  -0.000   0.001  -0.000   0.001  -0.017   0.002  -0.011  -0.000   0.001   0.001
 -0.000  -0.015   0.003  -0.022   0.000  -0.000  -0.000   0.000  -0.001   0.000   0.002  -0.000  -0.001  -0.005   0.001   0.000
 -0.014  -0.000   0.011   0.002  -0.021  -0.000  -0.000   0.001   0.000  -0.001  -0.024   0.002   0.001   0.000  -0.009   0.000
 total augmentation occupancy for first ion, spin component:           2
  0.020  -0.000   0.003  -0.004   0.009  -0.004  -0.000  -0.002   0.001  -0.003   0.035   0.006  -0.012   0.003  -0.018  -0.001
 -0.000   0.000   0.000   0.001  -0.000  -0.000   0.001  -0.000   0.001   0.000  -0.001  -0.000   0.001  -0.002   0.000   0.000
  0.003   0.000   0.002  -0.001   0.001  -0.002  -0.000   0.001   0.000  -0.001   0.004   0.000  -0.000   0.001  -0.001   0.000
 -0.004   0.001  -0.001   0.002  -0.002   0.001   0.001   0.000   0.002   0.000  -0.007  -0.001   0.002  -0.004   0.003   0.000
  0.009  -0.000   0.001  -0.002   0.003  -0.003   0.000  -0.001   0.000   0.001   0.015   0.003  -0.003   0.001  -0.010  -0.000
 -0.004  -0.000  -0.002   0.001  -0.003   0.001   0.000   0.000  -0.000   0.001  -0.008  -0.001   0.002  -0.001   0.004   0.000
 -0.000   0.001  -0.000   0.001   0.000   0.000  -0.000   0.000  -0.000  -0.000  -0.000   0.000   0.000   0.000  -0.000   0.000
 -0.002  -0.000   0.001   0.000  -0.001   0.000   0.000   0.000  -0.000   0.000  -0.002  -0.000   0.000  -0.000   0.001   0.000
  0.001   0.001   0.000   0.002   0.000  -0.000  -0.000  -0.000  -0.000  -0.000   0.001   0.000  -0.000   0.000  -0.001  -0.000
 -0.003   0.000  -0.001   0.000   0.001   0.001  -0.000   0.000  -0.000  -0.000  -0.003  -0.000   0.001  -0.000   0.001   0.000
  0.035  -0.001   0.004  -0.007   0.015  -0.008  -0.000  -0.002   0.001  -0.003   0.077   0.005  -0.020   0.007  -0.034  -0.000
  0.006  -0.000   0.000  -0.001   0.003  -0.001   0.000  -0.000   0.000  -0.000   0.005   0.000  -0.001   0.000  -0.002  -0.000
 -0.012   0.001  -0.000   0.002  -0.003   0.002   0.000   0.000  -0.000   0.001  -0.020  -0.001   0.004  -0.001   0.006   0.000
  0.003  -0.002   0.001  -0.004   0.001  -0.001   0.000  -0.000   0.000  -0.000   0.007   0.000  -0.001   0.000  -0.002  -0.000
 -0.018   0.000  -0.001   0.003  -0.010   0.004  -0.000   0.001  -0.001   0.001  -0.034  -0.002   0.006  -0.002   0.012   0.000
 -0.001   0.000   0.000   0.000  -0.000   0.000   0.000   0.000  -0.000   0.000  -0.000  -0.000   0.000  -0.000   0.000   0.000
  0.000  -0.000   0.000  -0.001   0.000  -0.000  -0.000  -0.000   0.000  -0.000   0.000   0.000  -0.000   0.000  -0.000  -0.000
 -0.001   0.000   0.000   0.000  -0.001   0.000   0.000   0.000  -0.000   0.000  -0.000  -0.000   0.000  -0.000   0.000   0.000


------------------------ aborting loop because EDIFF is reached ----------------------------------------


    CHARGE:  cpu time    0.6734: real time    0.6768
    FORLOC:  cpu time    0.0649: real time    0.0649
    FORNL :  cpu time    1.5349: real time    1.5390
    STRESS:  cpu time    5.7041: real time    5.7183
    FORCOR:  cpu time    1.1492: real time    1.1538
    FORHAR:  cpu time    0.1887: real time    0.1891
    MIXING:  cpu time    0.1178: real time    0.1182
    OFIELD:  cpu time    0.0000: real time    0.0000

  FORCE on cell =-STRESS in cart. coord.  units (eV):
  Direction    XX          YY          ZZ          XY          YZ          ZX
  --------------------------------------------------------------------------------------
  Alpha Z    41.16233    41.16233    41.16233
  Ewald   10488.72926  7299.73997 -1387.02502  -710.93283   575.41028   145.78874
  Hartree 15615.68404 12765.33741  5000.33976  -699.07699   517.81071    90.13929
  E(xc)    -876.32689  -877.73323  -879.46994     0.15764     0.09823     0.31669
  Local  -27504.13095-21493.21218 -5050.01699  1418.94093 -1091.89064  -229.72305
  n-local  -328.75181  -320.24849  -327.19197    -2.47136    -0.45631    -0.65765
  augment  1223.16807  1225.59960  1232.32868    -0.82866    -0.21612    -1.01281
  Kinetic  1337.50072  1362.34903  1368.90769    -5.31891    -1.67033    -4.90343
  Fock        0.00000     0.00000     0.00000     0.00000     0.00000     0.00000
  -------------------------------------------------------------------------------------
  Total      -2.96522     2.99444    -0.96545     0.46982    -0.91419    -0.05220
  in kB      -1.40765     1.42152    -0.45832     0.22303    -0.43399    -0.02478
  external pressure =       -0.15 kB  Pullay stress =        0.00 kB


 VOLUME and BASIS-vectors are now :
 -----------------------------------------------------------------------------
  energy-cutoff  :      600.00
  volume of cell :     3375.00
      direct lattice vectors                 reciprocal lattice vectors
    15.000000000  0.000000000  0.000000000     0.066666667  0.000000000  0.000000000
     0.000000000 15.000000000  0.000000000     0.000000000  0.066666667  0.000000000
     0.000000000  0.000000000 15.000000000     0.000000000  0.000000000  0.066666667

  length of vectors
    15.000000000 15.000000000 15.000000000     0.066666667  0.066666667  0.066666667


 FORCES acting on ions
    electron-ion (+dipol)            ewald-force                    non-local-force                 convergence-correction
 -----------------------------------------------------------------------------------------------
   0.108E+04 0.711E+03 -.641E+02   -.107E+04 -.707E+03 0.635E+02   -.514E+01 -.358E+01 0.491E+00   0.197E-06 -.589E-05 0.338E-05
   0.445E+03 -.320E+03 0.857E+03   -.444E+03 0.318E+03 -.858E+03   -.117E+01 0.160E+01 0.225E+00   -.329E-05 0.267E-04 -.173E-04
   0.280E+03 0.128E+04 -.132E+03   -.278E+03 -.127E+04 0.131E+03   -.233E+01 -.893E+01 0.152E+01   0.908E-05 -.283E-04 0.832E-05
   -.841E+03 -.143E+03 0.928E+03   0.839E+03 0.142E+03 -.924E+03   0.234E+01 0.163E+01 -.386E+01   0.707E-05 0.103E-04 0.170E-04
   -.848E+03 0.101E+04 0.133E+03   0.844E+03 -.101E+04 -.133E+03   0.437E+01 -.565E+01 -.644E+00   0.670E-05 -.671E-05 0.116E-04
   -.875E+02 0.537E+03 -.972E+03   0.860E+02 -.535E+03 0.971E+03   0.131E+01 -.302E+01 0.691E+00   0.130E-04 0.308E-06 0.293E-04
   0.225E+03 0.598E+03 0.123E+04   -.224E+03 -.594E+03 -.122E+04   -.189E+01 -.445E+01 -.614E+01   0.600E-05 0.304E-05 0.210E-05
   0.125E+04 -.355E+03 0.232E+03   -.124E+04 0.352E+03 -.228E+03   -.868E+01 0.313E+01 -.378E+01   -.145E-04 0.153E-04 -.503E-05
   0.611E+03 -.194E+03 -.122E+04   -.607E+03 0.194E+03 0.122E+04   -.311E+01 -.771E+00 0.751E+01   0.154E-04 0.184E-04 -.441E-05
   0.400E+03 -.131E+04 -.197E+03   -.398E+03 0.131E+04 0.196E+03   -.240E+01 0.752E+01 0.150E+01   0.198E-06 0.160E-04 -.105E-05
   -.496E+03 -.108E+04 0.713E+03   0.492E+03 0.107E+04 -.707E+03   0.429E+01 0.625E+01 -.630E+01   -.143E-04 -.328E-05 0.183E-04
   -.867E+03 0.482E+01 -.388E+03   0.865E+03 -.483E+01 0.384E+03   0.223E+01 -.261E+00 0.346E+01   0.136E-04 0.132E-06 0.150E-05
   -.592E+03 -.710E+03 -.876E+03   0.590E+03 0.707E+03 0.873E+03   0.233E+01 0.404E+01 0.286E+01   0.486E-05 -.653E-05 0.165E-05
   -.114E+03 0.505E+02 -.947E+02   0.954E+02 -.554E+02 0.923E+02   0.194E+02 0.538E+01 0.257E+01   -.224E-05 -.172E-05 -.114E-05
   -.399E+03 -.673E+02 -.133E+03   0.455E+03 0.817E+02 0.142E+03   -.565E+02 -.148E+02 -.953E+01   0.702E-05 -.142E-05 -.907E-06
 -----------------------------------------------------------------------------------------------
   0.449E+02 0.119E+02 0.944E+01   0.171E-12 -.654E-12 0.853E-13   -.449E+02 -.119E+02 -.944E+01   0.487E-04 0.364E-04 0.633E-04
 
 
 POSITION                                       TOTAL-FORCE (eV/Angst)
 -----------------------------------------------------------------------------------
      4.32173      6.25655      8.36433         0.353974      0.130407     -0.096913
      5.61607      8.23108      7.48857         0.074225     -0.551684     -0.413755
      6.01593      4.35615      8.29706        -0.285296      0.050337      0.152707
      8.00252      7.51108      7.13614         0.135307      0.622561      0.403424
      8.20276      5.30735      7.98327         0.398874     -0.219212     -0.120730
      6.63282      6.55610      9.21688        -0.112990     -0.425264     -0.152914
      6.24690      6.05583      6.62137        -0.337335     -0.268165      0.355953
      3.37107      8.53788      8.13560        -0.356738      0.121891     -0.050764
      4.89030      8.29222      9.87369         0.452756     -0.692835      0.161361
      5.33845     10.20570      8.64307        -0.065013      0.776651     -0.061566
      7.29964      9.88529      7.18394         0.151347      0.197624      0.016096
      9.45497      7.29753      9.07642        -0.078266     -0.276285     -0.080207
      7.31461      8.75615      9.27948         0.207900      0.399507     -0.048511
     11.22670      7.35732      9.67273         0.437364      0.512390      0.162960
     12.34120      7.64388      9.85786        -0.976112     -0.377923     -0.227141
 -----------------------------------------------------------------------------------
    total drift:                               -0.002994      0.004689      0.001840


--------------------------------------------------------------------------------------------------------



  FREE ENERGIE OF THE ION-ELECTRON SYSTEM (eV)
  ---------------------------------------------------
  free  energy   TOTEN  =       -48.68424316 eV

  energy  without entropy=      -48.69354914  energy(sigma->0) =      -48.68734515
 


--------------------------------------------------------------------------------------------------------


    POTLOK:  cpu time    1.1631: real time    1.1677


--------------------------------------------------------------------------------------------------------


     LOOP+:  cpu time  344.3603: real time  345.4516
    4ORBIT:  cpu time    0.0000: real time    0.0000

 total amount of memory used by VASP MPI-rank0   158680. kBytes
=======================================================================

   base      :      30000. kBytes
   nonl-proj :      12601. kBytes
   fftplans  :      27994. kBytes
   grid      :      74150. kBytes
   one-center:         93. kBytes
   wavefun   :      13842. kBytes
 
  
  
 General timing and accounting informations for this job:
 ========================================================
  
                  Total CPU time used (sec):      348.298
                            User time (sec):      336.636
                          System time (sec):       11.662
                         Elapsed time (sec):      349.431
  
                   Maximum memory used (kb):      281160.
                   Average memory used (kb):           0.
  
                          Minor page faults:       289008
                          Major page faults:            0
                 Voluntary context switches:          818
