<?xml version="1.0" encoding="ISO-8859-1"?>
<modeling>
 <generator>
  <i name="program" type="string">vasp </i>
  <i name="version" type="string">5.4.4.18Apr17-6-g9f103f2a35  </i>
  <i name="subversion" type="string">(build May 08 2019 13:49:07) complex            parallel </i>
  <i name="platform" type="string">LinuxIFC </i>
  <i name="date" type="string">2019 11 13 </i>
  <i name="time" type="string">15:49:41 </i>
 </generator>
 <incar>
  <i type="string" name="SYSTEM"> CuCO</i>
  <i type="int" name="ISTART">     0</i>
  <i type="string" name="PREC">accurate</i>
  <i type="string" name="ALGO"> Fast</i>
  <i type="int" name="ISPIN">     2</i>
  <i type="int" name="INIWAV">     1</i>
  <i type="int" name="NELM">   300</i>
  <i type="int" name="NELMIN">     3</i>
  <i type="int" name="IBRION">    -1</i>
  <i name="EDIFF">      0.00000010</i>
  <i name="EDIFFG">     -0.00100000</i>
  <i type="int" name="NSW">     0</i>
  <i type="int" name="ISYM">     0</i>
  <i name="ENCUT">    600.00000000</i>
  <i name="NUPDOWN">      1.00000000</i>
  <i type="logical" name="LREAL"> F  </i>
  <i type="int" name="ISMEAR">     1</i>
  <i name="SIGMA">      0.10000000</i>
  <i name="KSPACING">      0.50000000</i>
  <i type="logical" name="KGAMMA"> F  </i>
  <i type="logical" name="LWAVE"> F  </i>
  <i type="logical" name="LCHARG"> F  </i>
  <v type="int" name="KPOINT_BSE">    -1     0     0     0</v>
  <i type="int" name="NELM">   300</i>
  <i type="string" name="GGA"> PE</i>
 </incar>
 <structure name="primitive_cell" >
  <crystal>
   <varray name="basis" >
    <v>      15.00000000       0.00000000       0.00000000 </v>
    <v>       0.00000000      15.00000000       0.00000000 </v>
    <v>       0.00000000       0.00000000      15.00000000 </v>
   </varray>
   <i name="volume">   3375.00000000 </i>
   <varray name="rec_basis" >
    <v>       0.06666667       0.00000000       0.00000000 </v>
    <v>       0.00000000       0.06666667       0.00000000 </v>
    <v>       0.00000000       0.00000000       0.06666667 </v>
   </varray>
  </crystal>
  <varray name="positions" >
   <v>       0.28811533       0.41710333      -0.44237800 </v>
   <v>       0.44218800       0.43707333      -0.38554133 </v>
   <v>       0.22473800      -0.43080800      -0.45762667 </v>
   <v>       0.37440467      -0.45126133       0.49923800 </v>
   <v>       0.40106200       0.29041000      -0.44686267 </v>
   <v>       0.32602000      -0.44718533      -0.34175400 </v>
   <v>       0.41646000       0.40372200       0.44142467 </v>
   <v>       0.48764067      -0.41625667      -0.38136800 </v>
   <v>      -0.45314933       0.35382333      -0.46778200 </v>
   <v>      -0.46649867      -0.49926133       0.47574267 </v>
   <v>       0.35589667      -0.31962000      -0.42379533 </v>
   <v>       0.48664267      -0.34098067       0.47892933 </v>
   <v>      -0.36966867       0.48650200      -0.39490533 </v>
   <v>      -0.25155333       0.49048800      -0.35515133 </v>
   <v>      -0.17725333      -0.49040800      -0.34280933 </v>
  </varray>
 </structure>
 <varray name="primitive_index" >
  <v type="int" >        1 </v>
  <v type="int" >        6 </v>
  <v type="int" >        8 </v>
  <v type="int" >        2 </v>
  <v type="int" >        3 </v>
  <v type="int" >        9 </v>
  <v type="int" >        7 </v>
  <v type="int" >       13 </v>
  <v type="int" >        5 </v>
  <v type="int" >        4 </v>
  <v type="int" >       10 </v>
  <v type="int" >       11 </v>
  <v type="int" >       12 </v>
  <v type="int" >       14 </v>
  <v type="int" >       15 </v>
 </varray>
 <kpoints>
  <generation param="Monkhorst-Pack">
   <v type="int" name="divisions">       1        1        1 </v>
   <v name="usershift">      0.00000000       0.00000000       0.00000000 </v>
   <v name="genvec1">      1.00000000       0.00000000       0.00000000 </v>
   <v name="genvec2">      0.00000000       1.00000000       0.00000000 </v>
   <v name="genvec3">      0.00000000       0.00000000       1.00000000 </v>
   <v name="shift">      0.00000000       0.00000000       0.00000000 </v>
  </generation>
  <varray name="kpointlist" >
   <v>       0.00000000       0.00000000       0.00000000 </v>
  </varray>
  <varray name="weights" >
   <v>       1.00000000 </v>
  </varray>
 </kpoints>
 <parameters>
  <separator name="general" >
   <i type="string" name="SYSTEM">CuCO</i>
   <i type="logical" name="LCOMPAT"> F  </i>
  </separator>
  <separator name="electronic" >
   <i type="string" name="PREC">accura</i>
   <i name="ENMAX">    600.00000000</i>
   <i name="ENAUG">    644.87300000</i>
   <i name="EDIFF">      0.00000010</i>
   <i type="int" name="IALGO">    68</i>
   <i type="int" name="IWAVPR">    10</i>
   <i type="int" name="NBANDS">    92</i>
   <i name="NELECT">    153.00000000</i>
   <i type="int" name="TURBO">     0</i>
   <i type="int" name="IRESTART">     0</i>
   <i type="int" name="NREBOOT">     0</i>
   <i type="int" name="NMIN">     0</i>
   <i name="EREF">      0.00000000</i>
   <separator name="electronic smearing" >
    <i type="int" name="ISMEAR">     1</i>
    <i name="SIGMA">      0.10000000</i>
    <i name="KSPACING">      0.50000000</i>
    <i type="logical" name="KGAMMA"> F  </i>
   </separator>
   <separator name="electronic projectors" >
    <i type="logical" name="LREAL"> F  </i>
    <v name="ROPT">      0.00000000      0.00000000      0.00000000</v>
    <i type="int" name="LMAXPAW">  -100</i>
    <i type="int" name="LMAXMIX">     2</i>
    <i type="logical" name="NLSPLINE"> F  </i>
   </separator>
   <separator name="electronic startup" >
    <i type="int" name="ISTART">     0</i>
    <i type="int" name="ICHARG">     2</i>
    <i type="int" name="INIWAV">     1</i>
   </separator>
   <separator name="electronic spin" >
    <i type="int" name="ISPIN">     2</i>
    <i type="logical" name="LNONCOLLINEAR"> F  </i>
    <v name="MAGMOM">      0.06666667      0.06666667      0.06666667      0.06666667      0.06666667      0.06666667      0.06666667      0.06666667      0.06666667      0.06666667      0.06666667      0.06666667      0.06666667      0.06666667      0.06666667</v>
    <i name="NUPDOWN">      1.00000000</i>
    <i type="logical" name="LSORBIT"> F  </i>
    <v name="SAXIS">      0.00000000      0.00000000      1.00000000</v>
    <i type="logical" name="LSPIRAL"> F  </i>
    <v name="QSPIRAL">      0.00000000      0.00000000      0.00000000</v>
    <i type="logical" name="LZEROZ"> F  </i>
   </separator>
   <separator name="electronic exchange-correlation" >
    <i type="logical" name="LASPH"> F  </i>
    <i type="logical" name="LMETAGGA"> F  </i>
   </separator>
   <separator name="electronic convergence" >
    <i type="int" name="NELM">   300</i>
    <i type="int" name="NELMDL">    -5</i>
    <i type="int" name="NELMIN">     3</i>
    <i name="ENINI">    600.00000000</i>
    <separator name="electronic convergence detail" >
     <i type="logical" name="LDIAG"> T  </i>
     <i type="logical" name="LSUBROT"> F  </i>
     <i name="WEIMIN">      0.00000000</i>
     <i name="EBREAK">      0.00000000</i>
     <i name="DEPER">      0.30000000</i>
     <i type="int" name="NRMM">     4</i>
     <i name="TIME">      0.40000000</i>
    </separator>
   </separator>
   <separator name="electronic mixer" >
    <i name="AMIX">      0.40000000</i>
    <i name="BMIX">      1.00000000</i>
    <i name="AMIN">      0.10000000</i>
    <i name="AMIX_MAG">      1.60000000</i>
    <i name="BMIX_MAG">      1.00000000</i>
    <separator name="electronic mixer details" >
     <i type="int" name="IMIX">     4</i>
     <i type="logical" name="MIXFIRST"> F  </i>
     <i type="int" name="MAXMIX">   -45</i>
     <i name="WC">    100.00000000</i>
     <i type="int" name="INIMIX">     1</i>
     <i type="int" name="MIXPRE">     1</i>
     <i type="int" name="MREMOVE">     5</i>
    </separator>
   </separator>
   <separator name="electronic dipolcorrection" >
    <i type="logical" name="LDIPOL"> F  </i>
    <i type="logical" name="LMONO"> F  </i>
    <i type="int" name="IDIPOL">     0</i>
    <i name="EPSILON">      1.00000000</i>
    <v name="DIPOL">   -100.00000000   -100.00000000   -100.00000000</v>
    <i name="EFIELD">      0.00000000</i>
   </separator>
  </separator>
  <separator name="grids" >
   <i type="int" name="NGX">   120</i>
   <i type="int" name="NGY">   120</i>
   <i type="int" name="NGZ">   120</i>
   <i type="int" name="NGXF">   240</i>
   <i type="int" name="NGYF">   240</i>
   <i type="int" name="NGZF">   240</i>
   <i type="logical" name="ADDGRID"> F  </i>
  </separator>
  <separator name="ionic" >
   <i type="int" name="NSW">     0</i>
   <i type="int" name="IBRION">    -1</i>
   <i type="int" name="MDALGO">     0</i>
   <i type="int" name="ISIF">     2</i>
   <i name="PSTRESS">      0.00000000</i>
   <i name="EDIFFG">     -0.00100000</i>
   <i type="int" name="NFREE">     0</i>
   <i name="POTIM">      0.50000000</i>
   <i name="SMASS">     -3.00000000</i>
   <i name="SCALEE">      1.00000000</i>
  </separator>
  <separator name="ionic md" >
   <i name="TEBEG">      0.00010000</i>
   <i name="TEEND">      0.00010000</i>
   <i type="int" name="NBLOCK">     1</i>
   <i type="int" name="KBLOCK">     1</i>
   <i type="int" name="NPACO">   256</i>
   <i name="APACO">     16.00000000</i>
  </separator>
  <separator name="symmetry" >
   <i type="int" name="ISYM">     0</i>
   <i name="SYMPREC">      0.00001000</i>
  </separator>
  <separator name="dos" >
   <i type="int" name="LORBIT">     0</i>
   <v name="RWIGS">     -1.00000000     -1.00000000     -1.00000000</v>
   <i type="int" name="NEDOS">   301</i>
   <i name="EMIN">     10.00000000</i>
   <i name="EMAX">    -10.00000000</i>
   <i name="EFERMI">      0.00000000</i>
  </separator>
  <separator name="writing" >
   <i type="int" name="NWRITE">     2</i>
   <i type="logical" name="LWAVE"> F  </i>
   <i type="logical" name="LDOWNSAMPLE"> F  </i>
   <i type="logical" name="LCHARG"> F  </i>
   <i type="logical" name="LPARD"> F  </i>
   <i type="logical" name="LVTOT"> F  </i>
   <i type="logical" name="LVHAR"> F  </i>
   <i type="logical" name="LELF"> F  </i>
   <i type="logical" name="LOPTICS"> F  </i>
   <v name="STM">      0.00000000      0.00000000      0.00000000      0.00000000      0.00000000      0.00000000      0.00000000</v>
  </separator>
  <separator name="performance" >
   <i type="int" name="NPAR">     4</i>
   <i type="int" name="NSIM">     4</i>
   <i type="int" name="NBLK">    -1</i>
   <i type="logical" name="LPLANE"> T  </i>
   <i type="logical" name="LSCALAPACK"> T  </i>
   <i type="logical" name="LSCAAWARE"> F  </i>
   <i type="logical" name="LSCALU"> F  </i>
   <i type="logical" name="LASYNC"> F  </i>
   <i type="logical" name="LORBITALREAL"> F  </i>
  </separator>
  <separator name="miscellaneous" >
   <i type="int" name="IDIOT">     3</i>
   <i type="int" name="ISPECIAL">     0</i>
   <i type="logical" name="LMUSIC"> F  </i>
   <v name="POMASS">     63.54600000     12.01100000     16.00000000</v>
   <v name="DARWINR">      0.00000000      0.00000000      0.00000000</v>
   <v name="DARWINV">      1.00000000      1.00000000      1.00000000</v>
   <i type="logical" name="LCORR"> T  </i>
  </separator>
  <i type="logical" name="GGA_COMPAT"> T  </i>
  <i type="logical" name="LBERRY"> F  </i>
  <i type="int" name="ICORELEVEL">     0</i>
  <i type="logical" name="LDAU"> F  </i>
  <i type="int" name="I_CONSTRAINED_M">     0</i>
  <separator name="electronic exchange-correlation" >
   <i type="string" name="GGA">PE</i>
   <i type="int" name="VOSKOWN">     0</i>
   <i type="logical" name="LHFCALC"> F  </i>
   <i type="string" name="PRECFOCK"></i>
   <i type="logical" name="LSYMGRAD"> F  </i>
   <i type="logical" name="LHFONE"> F  </i>
   <i type="logical" name="LRHFCALC"> F  </i>
   <i type="logical" name="LTHOMAS"> F  </i>
   <i type="logical" name="LMODELHF"> F  </i>
   <i name="ENCUT4O">     -1.00000000</i>
   <i type="int" name="EXXOEP">     0</i>
   <i type="int" name="FOURORBIT">     0</i>
   <i name="AEXX">      0.00000000</i>
   <i name="HFALPHA">      0.00000000</i>
   <i name="MCALPHA">      0.00000000</i>
   <i name="ALDAX">      1.00000000</i>
   <i name="AGGAX">      1.00000000</i>
   <i name="ALDAC">      1.00000000</i>
   <i name="AGGAC">      1.00000000</i>
   <i type="int" name="NKREDX">     1</i>
   <i type="int" name="NKREDY">     1</i>
   <i type="int" name="NKREDZ">     1</i>
   <i type="logical" name="SHIFTRED"> F  </i>
   <i type="logical" name="ODDONLY"> F  </i>
   <i type="logical" name="EVENONLY"> F  </i>
   <i type="int" name="LMAXFOCK">     0</i>
   <i type="int" name="NMAXFOCKAE">     0</i>
   <i type="logical" name="LFOCKAEDFT"> F  </i>
   <i name="HFSCREEN">      0.00000000</i>
   <i name="HFSCREENC">      0.00000000</i>
   <i type="int" name="NBANDSGWLOW">     0</i>
  </separator>
  <separator name="vdW DFT" >
   <i type="logical" name="LUSE_VDW"> F  </i>
   <i name="Zab_VDW">     -0.84910000</i>
   <i name="PARAM1">      0.12340000</i>
   <i name="PARAM2">      1.00000000</i>
   <i name="PARAM3">      0.00000000</i>
  </separator>
  <separator name="model GW" >
   <i type="int" name="MODEL_GW">     0</i>
   <i name="MODEL_EPS0">    135.00000000</i>
   <i name="MODEL_ALPHA">      1.00000000</i>
  </separator>
  <separator name="linear response parameters" >
   <i type="logical" name="LEPSILON"> F  </i>
   <i type="logical" name="LRPA"> F  </i>
   <i type="logical" name="LNABLA"> F  </i>
   <i type="logical" name="LVEL"> F  </i>
   <i type="int" name="KINTER">     0</i>
   <i name="CSHIFT">      0.10000000</i>
   <i name="OMEGAMAX">     -1.00000000</i>
   <i name="DEG_THRESHOLD">      0.00200000</i>
   <i name="RTIME">     -0.10000000</i>
   <i name="WPLASMAI">      0.00000000</i>
   <v name="DFIELD">      0.00000000      0.00000000      0.00000000</v>
   <v name="WPLASMA">      0.00000000      0.00000000      0.00000000      0.00000000      0.00000000      0.00000000      0.00000000      0.00000000      0.00000000</v>
  </separator>
  <separator name="orbital magnetization" >
   <i type="logical" name="NUCIND"> F  </i>
   <v name="MAGPOS">      0.00000000      0.00000000      0.00000000</v>
   <i type="logical" name="LNICSALL"> T  </i>
   <i type="logical" name="ORBITALMAG"> F  </i>
   <i type="logical" name="LMAGBLOCH"> F  </i>
   <i type="logical" name="LCHIMAG"> F  </i>
   <i type="logical" name="LGAUGE"> T  </i>
   <i type="int" name="MAGATOM">     0</i>
   <v name="MAGDIPOL">      0.00000000      0.00000000      0.00000000</v>
   <v name="AVECCONST">      0.00000000      0.00000000      0.00000000</v>
  </separator>
  <separator name="response functions" >
   <i type="logical" name="LADDER"> F  </i>
   <i type="logical" name="LRPAFORCE"> F  </i>
   <i type="logical" name="LFXC"> F  </i>
   <i type="logical" name="LHARTREE"> T  </i>
   <i type="int" name="IBSE">     0</i>
   <v type="int" name="KPOINT">    -1     0     0     0</v>
   <i type="logical" name="LTCTE"> F  </i>
   <i type="logical" name="LTETE"> F  </i>
   <i type="logical" name="LTRIPLET"> F  </i>
   <i type="logical" name="LFXCEPS"> F  </i>
   <i type="logical" name="LFXHEG"> F  </i>
   <i type="int" name="NATURALO">     2</i>
   <i type="logical" name="L2ORDER"> F  </i>
   <i type="logical" name="LMP2LT"> F  </i>
   <i type="logical" name="LUSEW"> F  </i>
   <i name="ENCUTGW">     -2.00000000</i>
   <i name="ENCUTGWSOFT">     -2.00000000</i>
   <i name="ENCUTLF">     -1.00000000</i>
   <i type="int" name="LMAXMP2">    -1</i>
   <i name="SCISSOR">      0.00000000</i>
   <i type="int" name="NOMEGA">     0</i>
   <i type="int" name="NOMEGAR">     0</i>
   <i type="int" name="NBANDSGW">    -1</i>
   <i type="int" name="NBANDSO">    -1</i>
   <i type="int" name="NBANDSV">    -1</i>
   <i type="int" name="NELM">   300</i>
   <i type="int" name="NELMHF">     1</i>
   <i type="int" name="DIM">     3</i>
   <i type="int" name="ANTIRES">     0</i>
   <i name="OMEGAMAX">    -30.00000000</i>
   <i name="OMEGAMIN">    -30.00000000</i>
   <i name="OMEGATL">   -200.00000000</i>
   <i type="int" name="OMEGAGRID">   140</i>
   <i name="CSHIFT">     -0.10000000</i>
   <i type="logical" name="SELFENERGY"> F  </i>
   <i type="logical" name="LSPECTRAL"> F  </i>
   <i type="logical" name="LSPECTRALGW"> F  </i>
   <i type="logical" name="LSINGLES"> F  </i>
   <i type="logical" name="LFERMIGW"> F  </i>
   <i type="logical" name="ODDONLYGW"> F  </i>
   <i type="logical" name="EVENONLYGW"> F  </i>
   <i type="int" name="NKREDLFX">     1</i>
   <i type="int" name="NKREDLFY">     1</i>
   <i type="int" name="NKREDLFZ">     1</i>
   <i type="int" name="MAXMEM">  2800</i>
   <i type="int" name="TELESCOPE">     0</i>
   <i type="int" name="TAUPAR">     1</i>
   <i type="int" name="OMEGAPAR">    -1</i>
   <i name="LAMBDA">      1.00000000</i>
  </separator>
  <separator name="External order field" >
   <i name="OFIELD_KAPPA">      0.00000000</i>
   <v name="OFIELD_K">      0.00000000      0.00000000      0.00000000</v>
   <i name="OFIELD_Q6_NEAR">      0.00000000</i>
   <i name="OFIELD_Q6_FAR">      0.00000000</i>
   <i name="OFIELD_A">      0.00000000</i>
  </separator>
 </parameters>
 <atominfo>
  <atoms>      15 </atoms>
  <types>       3 </types>
  <array name="atoms" >
   <dimension dim="1">ion</dimension>
   <field type="string">element</field>
   <field type="int">atomtype</field>
   <set>
    <rc><c>Cu</c><c>   1</c></rc>
    <rc><c>Cu</c><c>   1</c></rc>
    <rc><c>Cu</c><c>   1</c></rc>
    <rc><c>Cu</c><c>   1</c></rc>
    <rc><c>Cu</c><c>   1</c></rc>
    <rc><c>Cu</c><c>   1</c></rc>
    <rc><c>Cu</c><c>   1</c></rc>
    <rc><c>Cu</c><c>   1</c></rc>
    <rc><c>Cu</c><c>   1</c></rc>
    <rc><c>Cu</c><c>   1</c></rc>
    <rc><c>Cu</c><c>   1</c></rc>
    <rc><c>Cu</c><c>   1</c></rc>
    <rc><c>Cu</c><c>   1</c></rc>
    <rc><c>C </c><c>   2</c></rc>
    <rc><c>O </c><c>   3</c></rc>
   </set>
  </array>
  <array name="atomtypes" >
   <dimension dim="1">type</dimension>
   <field type="int">atomspertype</field>
   <field type="string">element</field>
   <field>mass</field>
   <field>valence</field>
   <field type="string">pseudopotential</field>
   <set>
    <rc><c>  13</c><c>Cu</c><c>     63.54600000</c><c>     11.00000000</c><c>  PAW_PBE Cu 22Jun2005                  </c></rc>
    <rc><c>   1</c><c>C </c><c>     12.01100000</c><c>      4.00000000</c><c>  PAW_PBE C 08Apr2002                   </c></rc>
    <rc><c>   1</c><c>O </c><c>     16.00000000</c><c>      6.00000000</c><c>  PAW_PBE O 08Apr2002                   </c></rc>
   </set>
  </array>
 </atominfo>
 <structure name="initialpos" >
  <crystal>
   <varray name="basis" >
    <v>      15.00000000       0.00000000       0.00000000 </v>
    <v>       0.00000000      15.00000000       0.00000000 </v>
    <v>       0.00000000       0.00000000      15.00000000 </v>
   </varray>
   <i name="volume">   3375.00000000 </i>
   <varray name="rec_basis" >
    <v>       0.06666667       0.00000000       0.00000000 </v>
    <v>       0.00000000       0.06666667       0.00000000 </v>
    <v>       0.00000000       0.00000000       0.06666667 </v>
   </varray>
  </crystal>
  <varray name="positions" >
   <v>       0.28811533       0.41710333       0.55762200 </v>
   <v>       0.37440467       0.54873867       0.49923800 </v>
   <v>       0.40106200       0.29041000       0.55313733 </v>
   <v>       0.53350133       0.50073867       0.47574267 </v>
   <v>       0.54685067       0.35382333       0.53221800 </v>
   <v>       0.44218800       0.43707333       0.61445867 </v>
   <v>       0.41646000       0.40372200       0.44142467 </v>
   <v>       0.22473800       0.56919200       0.54237333 </v>
   <v>       0.32602000       0.55281467       0.65824600 </v>
   <v>       0.35589667       0.68038000       0.57620467 </v>
   <v>       0.48664267       0.65901933       0.47892933 </v>
   <v>       0.63033133       0.48650200       0.60509467 </v>
   <v>       0.48764067       0.58374333       0.61863200 </v>
   <v>       0.74844667       0.49048800       0.64484867 </v>
   <v>       0.82274667       0.50959200       0.65719067 </v>
  </varray>
 </structure>
 <calculation>
  <scstep>
   <time name="dav">    7.53    7.55</time>
   <time name="total">    8.75    8.79</time>
   <energy>
    <i name="alphaZ">     41.16232785 </i>
    <i name="ewald">  16401.45987457 </i>
    <i name="hartreedc"> -33422.68106251 </i>
    <i name="XCdc">    623.51494283 </i>
    <i name="pawpsdc">  16421.75059358 </i>
    <i name="pawaedc"> -17800.06104309 </i>
    <i name="eentropy">     -0.02547848 </i>
    <i name="bandstr">    191.62198633 </i>
    <i name="atom">  18662.21924712 </i>
    <i name="e_fr_energy">   1118.96138819 </i>
    <i name="e_wo_entrp">   1118.98686667 </i>
    <i name="e_0_energy">   1118.96988102 </i>
   </energy>
  </scstep>
  <scstep>
   <time name="dav">    7.45    7.47</time>
   <time name="total">    7.45    7.47</time>
   <energy>
    <i name="e_fr_energy">     87.49560019 </i>
    <i name="e_wo_entrp">     87.48957828 </i>
    <i name="e_0_energy">     87.49359288 </i>
   </energy>
  </scstep>
  <scstep>
   <time name="dav">   11.74   11.78</time>
   <time name="total">   11.74   11.78</time>
   <energy>
    <i name="e_fr_energy">    -33.10358690 </i>
    <i name="e_wo_entrp">    -33.11066917 </i>
    <i name="e_0_energy">    -33.10594766 </i>
   </energy>
  </scstep>
  <scstep>
   <time name="dav">   10.30   10.33</time>
   <time name="total">   10.30   10.33</time>
   <energy>
    <i name="e_fr_energy">    -55.40714031 </i>
    <i name="e_wo_entrp">    -55.41593442 </i>
    <i name="e_0_energy">    -55.41007168 </i>
   </energy>
  </scstep>
  <scstep>
   <time name="dav">   12.18   12.20</time>
   <time name="total">   12.89   12.91</time>
   <energy>
    <i name="e_fr_energy">    -57.00522097 </i>
    <i name="e_wo_entrp">    -57.01454805 </i>
    <i name="e_0_energy">    -57.00833000 </i>
   </energy>
  </scstep>
  <scstep>
   <time name="diag">    1.11    1.11</time>
   <time name="diis">    6.86    6.86</time>
   <time name="orth">    0.05    0.05</time>
   <time name="total">    9.86    9.87</time>
   <energy>
    <i name="e_fr_energy">    -56.22235502 </i>
    <i name="e_wo_entrp">    -56.23061388 </i>
    <i name="e_0_energy">    -56.22510797 </i>
   </energy>
  </scstep>
  <scstep>
   <time name="diag">    1.11    1.11</time>
   <time name="diis">    6.40    6.41</time>
   <time name="orth">    0.05    0.05</time>
   <time name="total">    9.42    9.43</time>
   <energy>
    <i name="e_fr_energy">    -49.06732483 </i>
    <i name="e_wo_entrp">    -49.07642627 </i>
    <i name="e_0_energy">    -49.07035864 </i>
   </energy>
  </scstep>
  <scstep>
   <time name="diag">    1.11    1.11</time>
   <time name="diis">    6.87    6.87</time>
   <time name="orth">    0.05    0.05</time>
   <time name="total">    9.94    9.95</time>
   <energy>
    <i name="e_fr_energy">    -48.80596611 </i>
    <i name="e_wo_entrp">    -48.81531347 </i>
    <i name="e_0_energy">    -48.80908190 </i>
   </energy>
  </scstep>
  <scstep>
   <time name="diag">    1.11    1.11</time>
   <time name="diis">    6.87    6.87</time>
   <time name="orth">    0.05    0.05</time>
   <time name="total">    9.90    9.91</time>
   <energy>
    <i name="e_fr_energy">    -48.76241244 </i>
    <i name="e_wo_entrp">    -48.77174031 </i>
    <i name="e_0_energy">    -48.76552173 </i>
   </energy>
  </scstep>
  <scstep>
   <time name="diag">    1.11    1.11</time>
   <time name="diis">    7.07    7.10</time>
   <time name="orth">    0.05    0.05</time>
   <time name="total">   10.10   10.14</time>
   <energy>
    <i name="e_fr_energy">    -48.69135896 </i>
    <i name="e_wo_entrp">    -48.70070394 </i>
    <i name="e_0_energy">    -48.69447396 </i>
   </energy>
  </scstep>
  <scstep>
   <time name="diag">    1.11    1.11</time>
   <time name="diis">    7.09    7.11</time>
   <time name="orth">    0.05    0.05</time>
   <time name="total">   10.11   10.13</time>
   <energy>
    <i name="e_fr_energy">    -48.67998838 </i>
    <i name="e_wo_entrp">    -48.68928075 </i>
    <i name="e_0_energy">    -48.68308584 </i>
   </energy>
  </scstep>
  <scstep>
   <time name="diag">    1.10    1.11</time>
   <time name="diis">    7.07    7.10</time>
   <time name="orth">    0.05    0.05</time>
   <time name="total">   10.09   10.13</time>
   <energy>
    <i name="e_fr_energy">    -48.67688055 </i>
    <i name="e_wo_entrp">    -48.68619738 </i>
    <i name="e_0_energy">    -48.67998616 </i>
   </energy>
  </scstep>
  <scstep>
   <time name="diag">    1.10    1.10</time>
   <time name="diis">    6.87    6.89</time>
   <time name="orth">    0.05    0.05</time>
   <time name="total">    9.89    9.92</time>
   <energy>
    <i name="e_fr_energy">    -48.67554509 </i>
    <i name="e_wo_entrp">    -48.68485837 </i>
    <i name="e_0_energy">    -48.67864952 </i>
   </energy>
  </scstep>
  <scstep>
   <time name="diag">    1.10    1.10</time>
   <time name="diis">    6.71    6.73</time>
   <time name="orth">    0.05    0.05</time>
   <time name="total">    9.73    9.76</time>
   <energy>
    <i name="e_fr_energy">    -48.67654149 </i>
    <i name="e_wo_entrp">    -48.68585281 </i>
    <i name="e_0_energy">    -48.67964527 </i>
   </energy>
  </scstep>
  <scstep>
   <time name="diag">    1.10    1.11</time>
   <time name="diis">    6.67    6.69</time>
   <time name="orth">    0.05    0.05</time>
   <time name="total">    9.69    9.73</time>
   <energy>
    <i name="e_fr_energy">    -48.67777124 </i>
    <i name="e_wo_entrp">    -48.68708407 </i>
    <i name="e_0_energy">    -48.68087552 </i>
   </energy>
  </scstep>
  <scstep>
   <time name="diag">    1.10    1.10</time>
   <time name="diis">    6.32    6.35</time>
   <time name="orth">    0.05    0.05</time>
   <time name="total">    9.34    9.38</time>
   <energy>
    <i name="e_fr_energy">    -48.67927971 </i>
    <i name="e_wo_entrp">    -48.68858606 </i>
    <i name="e_0_energy">    -48.68238183 </i>
   </energy>
  </scstep>
  <scstep>
   <time name="diag">    1.10    1.10</time>
   <time name="diis">    6.29    6.31</time>
   <time name="orth">    0.05    0.05</time>
   <time name="total">    9.31    9.35</time>
   <energy>
    <i name="e_fr_energy">    -48.68101444 </i>
    <i name="e_wo_entrp">    -48.69031952 </i>
    <i name="e_0_energy">    -48.68411614 </i>
   </energy>
  </scstep>
  <scstep>
   <time name="diag">    1.10    1.10</time>
   <time name="diis">    6.72    6.74</time>
   <time name="orth">    0.05    0.05</time>
   <time name="total">    9.74    9.78</time>
   <energy>
    <i name="e_fr_energy">    -48.68190978 </i>
    <i name="e_wo_entrp">    -48.69121452 </i>
    <i name="e_0_energy">    -48.68501136 </i>
   </energy>
  </scstep>
  <scstep>
   <time name="diag">    1.10    1.10</time>
   <time name="diis">    7.49    7.52</time>
   <time name="orth">    0.05    0.05</time>
   <time name="total">   10.51   10.56</time>
   <energy>
    <i name="e_fr_energy">    -48.68268180 </i>
    <i name="e_wo_entrp">    -48.69198675 </i>
    <i name="e_0_energy">    -48.68578345 </i>
   </energy>
  </scstep>
  <scstep>
   <time name="diag">    1.10    1.10</time>
   <time name="diis">    6.38    6.40</time>
   <time name="orth">    0.05    0.05</time>
   <time name="total">    9.41    9.44</time>
   <energy>
    <i name="e_fr_energy">    -48.68324314 </i>
    <i name="e_wo_entrp">    -48.69254909 </i>
    <i name="e_0_energy">    -48.68634513 </i>
   </energy>
  </scstep>
  <scstep>
   <time name="diag">    1.10    1.10</time>
   <time name="diis">    6.65    6.67</time>
   <time name="orth">    0.05    0.05</time>
   <time name="total">    9.68    9.71</time>
   <energy>
    <i name="e_fr_energy">    -48.68360333 </i>
    <i name="e_wo_entrp">    -48.69290980 </i>
    <i name="e_0_energy">    -48.68670549 </i>
   </energy>
  </scstep>
  <scstep>
   <time name="diag">    1.10    1.10</time>
   <time name="diis">    6.54    6.56</time>
   <time name="orth">    0.05    0.05</time>
   <time name="total">    9.56    9.60</time>
   <energy>
    <i name="e_fr_energy">    -48.68388188 </i>
    <i name="e_wo_entrp">    -48.69318783 </i>
    <i name="e_0_energy">    -48.68698387 </i>
   </energy>
  </scstep>
  <scstep>
   <time name="diag">    1.10    1.11</time>
   <time name="diis">    6.58    6.60</time>
   <time name="orth">    0.05    0.05</time>
   <time name="total">    9.61    9.64</time>
   <energy>
    <i name="e_fr_energy">    -48.68401073 </i>
    <i name="e_wo_entrp">    -48.69331661 </i>
    <i name="e_0_energy">    -48.68711269 </i>
   </energy>
  </scstep>
  <scstep>
   <time name="diag">    1.10    1.10</time>
   <time name="diis">    6.39    6.41</time>
   <time name="orth">    0.05    0.05</time>
   <time name="total">    9.43    9.46</time>
   <energy>
    <i name="e_fr_energy">    -48.68411547 </i>
    <i name="e_wo_entrp">    -48.69342136 </i>
    <i name="e_0_energy">    -48.68721743 </i>
   </energy>
  </scstep>
  <scstep>
   <time name="diag">    1.10    1.10</time>
   <time name="diis">    6.24    6.27</time>
   <time name="orth">    0.05    0.05</time>
   <time name="total">    9.28    9.31</time>
   <energy>
    <i name="e_fr_energy">    -48.68419172 </i>
    <i name="e_wo_entrp">    -48.69349769 </i>
    <i name="e_0_energy">    -48.68729371 </i>
   </energy>
  </scstep>
  <scstep>
   <time name="diag">    1.10    1.10</time>
   <time name="diis">    6.24    6.26</time>
   <time name="orth">    0.05    0.05</time>
   <time name="total">    9.28    9.31</time>
   <energy>
    <i name="e_fr_energy">    -48.68421845 </i>
    <i name="e_wo_entrp">    -48.69352440 </i>
    <i name="e_0_energy">    -48.68732043 </i>
   </energy>
  </scstep>
  <scstep>
   <time name="diag">    1.10    1.10</time>
   <time name="diis">    4.88    4.90</time>
   <time name="orth">    0.05    0.05</time>
   <time name="total">    7.93    7.95</time>
   <energy>
    <i name="e_fr_energy">    -48.68422889 </i>
    <i name="e_wo_entrp">    -48.69353482 </i>
    <i name="e_0_energy">    -48.68733087 </i>
   </energy>
  </scstep>
  <scstep>
   <time name="diag">    1.10    1.11</time>
   <time name="diis">    4.38    4.39</time>
   <time name="orth">    0.05    0.05</time>
   <time name="total">    7.43    7.45</time>
   <energy>
    <i name="e_fr_energy">    -48.68423523 </i>
    <i name="e_wo_entrp">    -48.69354117 </i>
    <i name="e_0_energy">    -48.68733721 </i>
   </energy>
  </scstep>
  <scstep>
   <time name="diag">    1.10    1.10</time>
   <time name="diis">    4.33    4.35</time>
   <time name="orth">    0.05    0.05</time>
   <time name="total">    7.38    7.41</time>
   <energy>
    <i name="e_fr_energy">    -48.68423894 </i>
    <i name="e_wo_entrp">    -48.69354491 </i>
    <i name="e_0_energy">    -48.68734093 </i>
   </energy>
  </scstep>
  <scstep>
   <time name="diag">    1.10    1.10</time>
   <time name="diis">    4.36    4.37</time>
   <time name="orth">    0.05    0.05</time>
   <time name="total">    7.42    7.45</time>
   <energy>
    <i name="e_fr_energy">    -48.68424030 </i>
    <i name="e_wo_entrp">    -48.69354628 </i>
    <i name="e_0_energy">    -48.68734229 </i>
   </energy>
  </scstep>
  <scstep>
   <time name="diag">    1.10    1.10</time>
   <time name="diis">    4.23    4.24</time>
   <time name="orth">    0.05    0.05</time>
   <time name="total">    7.30    7.32</time>
   <energy>
    <i name="e_fr_energy">    -48.68424113 </i>
    <i name="e_wo_entrp">    -48.69354711 </i>
    <i name="e_0_energy">    -48.68734312 </i>
   </energy>
  </scstep>
  <scstep>
   <time name="diag">    1.10    1.10</time>
   <time name="diis">    4.42    4.44</time>
   <time name="orth">    0.05    0.05</time>
   <time name="total">    7.50    7.53</time>
   <energy>
    <i name="e_fr_energy">    -48.68424174 </i>
    <i name="e_wo_entrp">    -48.69354772 </i>
    <i name="e_0_energy">    -48.68734373 </i>
   </energy>
  </scstep>
  <scstep>
   <time name="diag">    1.10    1.10</time>
   <time name="diis">    4.18    4.21</time>
   <time name="orth">    0.05    0.05</time>
   <time name="total">    7.26    7.30</time>
   <energy>
    <i name="e_fr_energy">    -48.68424218 </i>
    <i name="e_wo_entrp">    -48.69354816 </i>
    <i name="e_0_energy">    -48.68734418 </i>
   </energy>
  </scstep>
  <scstep>
   <time name="diag">    1.10    1.10</time>
   <time name="diis">    3.94    3.96</time>
   <time name="orth">    0.05    0.05</time>
   <time name="total">    7.04    7.06</time>
   <energy>
    <i name="e_fr_energy">    -48.68424267 </i>
    <i name="e_wo_entrp">    -48.69354865 </i>
    <i name="e_0_energy">    -48.68734466 </i>
   </energy>
  </scstep>
  <scstep>
   <time name="diag">    1.10    1.11</time>
   <time name="diis">    3.92    3.94</time>
   <time name="orth">    0.05    0.05</time>
   <time name="total">    7.02    7.05</time>
   <energy>
    <i name="e_fr_energy">    -48.68424288 </i>
    <i name="e_wo_entrp">    -48.69354886 </i>
    <i name="e_0_energy">    -48.68734488 </i>
   </energy>
  </scstep>
  <scstep>
   <time name="diag">    1.10    1.10</time>
   <time name="diis">    3.56    3.58</time>
   <time name="orth">    0.05    0.05</time>
   <time name="total">    6.67    6.69</time>
   <energy>
    <i name="e_fr_energy">    -48.68424308 </i>
    <i name="e_wo_entrp">    -48.69354906 </i>
    <i name="e_0_energy">    -48.68734508 </i>
   </energy>
  </scstep>
  <scstep>
   <time name="diag">    1.10    1.11</time>
   <time name="diis">    3.46    3.47</time>
   <time name="orth">    0.05    0.05</time>
   <time name="total">    5.77    5.79</time>
   <energy>
    <i name="alphaZ">     41.16232785 </i>
    <i name="ewald">  16401.45987457 </i>
    <i name="hartreedc"> -33381.36103970 </i>
    <i name="XCdc">    615.49980112 </i>
    <i name="pawpsdc">  17647.61177545 </i>
    <i name="pawaedc"> -19046.56237986 </i>
    <i name="eentropy">      0.00930598 </i>
    <i name="bandstr">   -988.72315569 </i>
    <i name="atom">  18662.21924712 </i>
    <i name="e_fr_energy">    -48.68424316 </i>
    <i name="e_wo_entrp">    -48.69354914 </i>
    <i name="e_0_energy">    -48.68734515 </i>
   </energy>
  </scstep>
  <structure>
   <crystal>
    <varray name="basis" >
     <v>      15.00000000       0.00000000       0.00000000 </v>
     <v>       0.00000000      15.00000000       0.00000000 </v>
     <v>       0.00000000       0.00000000      15.00000000 </v>
    </varray>
    <i name="volume">   3375.00000000 </i>
    <varray name="rec_basis" >
     <v>       0.06666667       0.00000000       0.00000000 </v>
     <v>       0.00000000       0.06666667       0.00000000 </v>
     <v>       0.00000000       0.00000000       0.06666667 </v>
    </varray>
   </crystal>
   <varray name="positions" >
    <v>       0.28811533       0.41710333       0.55762200 </v>
    <v>       0.37440467       0.54873867       0.49923800 </v>
    <v>       0.40106200       0.29041000       0.55313733 </v>
    <v>       0.53350133       0.50073867       0.47574267 </v>
    <v>       0.54685067       0.35382333       0.53221800 </v>
    <v>       0.44218800       0.43707333       0.61445867 </v>
    <v>       0.41646000       0.40372200       0.44142467 </v>
    <v>       0.22473800       0.56919200       0.54237333 </v>
    <v>       0.32602000       0.55281467       0.65824600 </v>
    <v>       0.35589667       0.68038000       0.57620467 </v>
    <v>       0.48664267       0.65901933       0.47892933 </v>
    <v>       0.63033133       0.48650200       0.60509467 </v>
    <v>       0.48764067       0.58374333       0.61863200 </v>
    <v>       0.74844667       0.49048800       0.64484867 </v>
    <v>       0.82274667       0.50959200       0.65719067 </v>
   </varray>
  </structure>
  <varray name="forces" >
   <v>       0.35397429       0.13040714      -0.09691269 </v>
   <v>       0.07422546      -0.55168359      -0.41375539 </v>
   <v>      -0.28529576       0.05033705       0.15270693 </v>
   <v>       0.13530726       0.62256065       0.40342384 </v>
   <v>       0.39887441      -0.21921193      -0.12073034 </v>
   <v>      -0.11298970      -0.42526382      -0.15291415 </v>
   <v>      -0.33733493      -0.26816549       0.35595349 </v>
   <v>      -0.35673771       0.12189107      -0.05076448 </v>
   <v>       0.45275636      -0.69283506       0.16136084 </v>
   <v>      -0.06501264       0.77665092      -0.06156603 </v>
   <v>       0.15134653       0.19762361       0.01609640 </v>
   <v>      -0.07826564      -0.27628509      -0.08020674 </v>
   <v>       0.20789991       0.39950692      -0.04851058 </v>
   <v>       0.43736443       0.51239039       0.16295967 </v>
   <v>      -0.97611226      -0.37792276      -0.22714079 </v>
  </varray>
  <varray name="stress" >
   <v>      -1.40764808       0.22303354      -0.02478270 </v>
   <v>       0.22303355       1.42151691      -0.43398591 </v>
   <v>      -0.02478271      -0.43398591      -0.45831558 </v>
  </varray>
  <energy>
   <i name="e_fr_energy">    -48.68424316 </i>
   <i name="e_wo_entrp">    -48.68734515 </i>
   <i name="e_0_energy">      0.00930598 </i>
  </energy>
  <time name="totalsc">  344.36  345.45</time>
  <eigenvalues>
   <array>
    <dimension dim="1">band</dimension>
    <dimension dim="2">kpoint</dimension>
    <dimension dim="3">spin</dimension>
    <field>eigene</field>
    <field>occ</field>
    <set>
     <set comment="spin 1">
      <set comment="kpoint 1">
       <r>  -28.4016    1.0000 </r>
       <r>  -13.8670    1.0000 </r>
       <r>  -11.2485    1.0000 </r>
       <r>  -11.1028    1.0000 </r>
       <r>  -10.9393    1.0000 </r>
       <r>  -10.1852    1.0000 </r>
       <r>   -8.6642    1.0000 </r>
       <r>   -8.1871    1.0000 </r>
       <r>   -7.7307    1.0000 </r>
       <r>   -7.5534    1.0000 </r>
       <r>   -7.4919    1.0000 </r>
       <r>   -7.3157    1.0000 </r>
       <r>   -7.1734    1.0000 </r>
       <r>   -7.1511    1.0000 </r>
       <r>   -7.0384    1.0000 </r>
       <r>   -6.9732    1.0000 </r>
       <r>   -6.8189    1.0000 </r>
       <r>   -6.6922    1.0000 </r>
       <r>   -6.6678    1.0000 </r>
       <r>   -6.6041    1.0000 </r>
       <r>   -6.5749    1.0000 </r>
       <r>   -6.5497    1.0000 </r>
       <r>   -6.5469    1.0000 </r>
       <r>   -6.4510    1.0000 </r>
       <r>   -6.4183    1.0000 </r>
       <r>   -6.3615    1.0000 </r>
       <r>   -6.3573    1.0000 </r>
       <r>   -6.2731    1.0000 </r>
       <r>   -6.2570    1.0000 </r>
       <r>   -6.2228    1.0000 </r>
       <r>   -6.1812    1.0000 </r>
       <r>   -6.1570    1.0000 </r>
       <r>   -6.1009    1.0000 </r>
       <r>   -6.0451    1.0000 </r>
       <r>   -6.0117    1.0000 </r>
       <r>   -5.8870    1.0000 </r>
       <r>   -5.8541    1.0000 </r>
       <r>   -5.7138    1.0000 </r>
       <r>   -5.6788    1.0000 </r>
       <r>   -5.6506    1.0000 </r>
       <r>   -5.6011    1.0000 </r>
       <r>   -5.5669    1.0000 </r>
       <r>   -5.5157    1.0000 </r>
       <r>   -5.5008    1.0000 </r>
       <r>   -5.4307    1.0000 </r>
       <r>   -5.4226    1.0000 </r>
       <r>   -5.3835    1.0000 </r>
       <r>   -5.3621    1.0000 </r>
       <r>   -5.3455    1.0000 </r>
       <r>   -5.3090    1.0000 </r>
       <r>   -5.2741    1.0000 </r>
       <r>   -5.2621    1.0000 </r>
       <r>   -5.2349    1.0000 </r>
       <r>   -5.2036    1.0000 </r>
       <r>   -5.1872    1.0000 </r>
       <r>   -5.1661    1.0000 </r>
       <r>   -5.1516    1.0000 </r>
       <r>   -5.1389    1.0000 </r>
       <r>   -5.1004    1.0000 </r>
       <r>   -5.0628    1.0000 </r>
       <r>   -5.0515    1.0000 </r>
       <r>   -5.0341    1.0000 </r>
       <r>   -4.9837    1.0000 </r>
       <r>   -4.9748    1.0000 </r>
       <r>   -4.9349    1.0000 </r>
       <r>   -4.9086    1.0000 </r>
       <r>   -4.8854    1.0000 </r>
       <r>   -4.8742    1.0000 </r>
       <r>   -4.8661    1.0000 </r>
       <r>   -4.8193    1.0000 </r>
       <r>   -4.7994    1.0000 </r>
       <r>   -4.7626    1.0000 </r>
       <r>   -4.7168    1.0000 </r>
       <r>   -4.5287    1.0000 </r>
       <r>   -4.1536    1.0000 </r>
       <r>   -4.0889    1.0000 </r>
       <r>   -3.5538    1.0000 </r>
       <r>   -3.0348   -0.0000 </r>
       <r>   -2.9588   -0.0000 </r>
       <r>   -2.5265   -0.0000 </r>
       <r>   -2.3635   -0.0000 </r>
       <r>   -1.9127   -0.0000 </r>
       <r>   -1.8450   -0.0000 </r>
       <r>   -1.7435   -0.0000 </r>
       <r>   -1.4777   -0.0000 </r>
       <r>   -1.0994   -0.0000 </r>
       <r>   -0.9550   -0.0000 </r>
       <r>   -0.7319    0.0000 </r>
       <r>   -0.3979    0.0000 </r>
       <r>   -0.2307    0.0000 </r>
       <r>   -0.0036    0.0000 </r>
       <r>    0.0628    0.0000 </r>
      </set>
     </set>
     <set comment="spin 2">
      <set comment="kpoint 1">
       <r>  -28.3789    1.0000 </r>
       <r>  -13.8247    1.0000 </r>
       <r>  -11.2096    1.0000 </r>
       <r>  -11.0894    1.0000 </r>
       <r>  -10.8682    1.0000 </r>
       <r>  -10.1421    1.0000 </r>
       <r>   -8.6411    1.0000 </r>
       <r>   -8.1451    1.0000 </r>
       <r>   -7.6826    1.0000 </r>
       <r>   -7.5305    1.0000 </r>
       <r>   -7.4564    1.0000 </r>
       <r>   -7.2765    1.0000 </r>
       <r>   -7.1419    1.0000 </r>
       <r>   -7.1232    1.0000 </r>
       <r>   -6.9985    1.0000 </r>
       <r>   -6.9458    1.0000 </r>
       <r>   -6.7937    1.0000 </r>
       <r>   -6.6668    1.0000 </r>
       <r>   -6.6347    1.0000 </r>
       <r>   -6.5837    1.0000 </r>
       <r>   -6.5552    1.0000 </r>
       <r>   -6.5280    1.0000 </r>
       <r>   -6.5210    1.0000 </r>
       <r>   -6.4266    1.0000 </r>
       <r>   -6.3935    1.0000 </r>
       <r>   -6.3357    1.0000 </r>
       <r>   -6.3307    1.0000 </r>
       <r>   -6.2497    1.0000 </r>
       <r>   -6.2318    1.0000 </r>
       <r>   -6.1938    1.0000 </r>
       <r>   -6.1546    1.0000 </r>
       <r>   -6.1359    1.0000 </r>
       <r>   -6.0784    1.0000 </r>
       <r>   -6.0114    1.0000 </r>
       <r>   -5.9877    1.0000 </r>
       <r>   -5.8628    1.0000 </r>
       <r>   -5.8221    1.0000 </r>
       <r>   -5.6930    1.0000 </r>
       <r>   -5.6568    1.0000 </r>
       <r>   -5.6240    1.0000 </r>
       <r>   -5.5767    1.0000 </r>
       <r>   -5.5365    1.0000 </r>
       <r>   -5.4905    1.0000 </r>
       <r>   -5.4785    1.0000 </r>
       <r>   -5.4033    1.0000 </r>
       <r>   -5.3969    1.0000 </r>
       <r>   -5.3552    1.0000 </r>
       <r>   -5.3282    1.0000 </r>
       <r>   -5.3200    1.0000 </r>
       <r>   -5.2771    1.0000 </r>
       <r>   -5.2511    1.0000 </r>
       <r>   -5.2357    1.0000 </r>
       <r>   -5.2089    1.0000 </r>
       <r>   -5.1793    1.0000 </r>
       <r>   -5.1637    1.0000 </r>
       <r>   -5.1466    1.0000 </r>
       <r>   -5.1206    1.0000 </r>
       <r>   -5.1111    1.0000 </r>
       <r>   -5.0763    1.0000 </r>
       <r>   -5.0338    1.0000 </r>
       <r>   -5.0236    1.0000 </r>
       <r>   -5.0129    1.0000 </r>
       <r>   -4.9652    1.0000 </r>
       <r>   -4.9369    1.0000 </r>
       <r>   -4.9054    1.0000 </r>
       <r>   -4.8838    1.0000 </r>
       <r>   -4.8595    1.0000 </r>
       <r>   -4.8388    1.0000 </r>
       <r>   -4.8345    1.0000 </r>
       <r>   -4.7854    1.0000 </r>
       <r>   -4.7631    1.0000 </r>
       <r>   -4.7321    1.0000 </r>
       <r>   -4.6873    1.0000 </r>
       <r>   -4.4840    1.0000 </r>
       <r>   -4.0906    1.0345 </r>
       <r>   -4.0473    0.9655 </r>
       <r>   -3.3601   -0.0000 </r>
       <r>   -2.9788   -0.0000 </r>
       <r>   -2.9023   -0.0000 </r>
       <r>   -2.4602   -0.0000 </r>
       <r>   -2.2618   -0.0000 </r>
       <r>   -1.8781   -0.0000 </r>
       <r>   -1.7582   -0.0000 </r>
       <r>   -1.6835   -0.0000 </r>
       <r>   -1.3713   -0.0000 </r>
       <r>   -0.9424    0.0000 </r>
       <r>   -0.9059    0.0000 </r>
       <r>   -0.6656    0.0000 </r>
       <r>   -0.2817    0.0000 </r>
       <r>   -0.1718    0.0000 </r>
       <r>    0.0566    0.0000 </r>
       <r>    0.1159    0.0000 </r>
      </set>
     </set>
    </set>
   </array>
  </eigenvalues>
  <separator name="orbital magnetization" >
   <v name="MAGDIPOLOUT">      0.00000000      0.00000000      0.00000000</v>
  </separator>
  <dos>
   <i name="efermi">     -3.97563356 </i>
   <total>
    <array>
     <dimension dim="1">gridpoints</dimension>
     <dimension dim="2">spin</dimension>
     <field>energy</field>
     <field>total</field>
     <field>integrated</field>
     <set>
      <set comment="spin 1">
       <r>   -29.8275     0.0000     0.0000 </r>
       <r>   -29.7229     0.0000     0.0000 </r>
       <r>   -29.6184     0.0000     0.0000 </r>
       <r>   -29.5138     0.0000     0.0000 </r>
       <r>   -29.4092     0.0000     0.0000 </r>
       <r>   -29.3047    -0.0000    -0.0000 </r>
       <r>   -29.2001    -0.0000    -0.0000 </r>
       <r>   -29.0955    -0.0000    -0.0000 </r>
       <r>   -28.9910    -0.0000    -0.0000 </r>
       <r>   -28.8864    -0.0000    -0.0000 </r>
       <r>   -28.7819    -0.0000    -0.0000 </r>
       <r>   -28.6773    -0.0065    -0.0007 </r>
       <r>   -28.5727    -0.3391    -0.0361 </r>
       <r>   -28.4682     1.3553     0.1056 </r>
       <r>   -28.3636    14.2430     1.5949 </r>
       <r>   -28.2590     4.4632     2.0616 </r>
       <r>   -28.1545    -0.5638     2.0026 </r>
       <r>   -28.0499    -0.0251     2.0000 </r>
       <r>   -27.9453    -0.0001     2.0000 </r>
       <r>   -27.8408    -0.0000     2.0000 </r>
       <r>   -27.7362    -0.0000     2.0000 </r>
       <r>   -27.6316     0.0000     2.0000 </r>
       <r>   -27.5271     0.0000     2.0000 </r>
       <r>   -27.4225     0.0000     2.0000 </r>
       <r>   -27.3180     0.0000     2.0000 </r>
       <r>   -27.2134     0.0000     2.0000 </r>
       <r>   -27.1088     0.0000     2.0000 </r>
       <r>   -27.0043     0.0000     2.0000 </r>
       <r>   -26.8997     0.0000     2.0000 </r>
       <r>   -26.7951     0.0000     2.0000 </r>
       <r>   -26.6906     0.0000     2.0000 </r>
       <r>   -26.5860     0.0000     2.0000 </r>
       <r>   -26.4814     0.0000     2.0000 </r>
       <r>   -26.3769     0.0000     2.0000 </r>
       <r>   -26.2723     0.0000     2.0000 </r>
       <r>   -26.1677     0.0000     2.0000 </r>
       <r>   -26.0632     0.0000     2.0000 </r>
       <r>   -25.9586     0.0000     2.0000 </r>
       <r>   -25.8541     0.0000     2.0000 </r>
       <r>   -25.7495     0.0000     2.0000 </r>
       <r>   -25.6449     0.0000     2.0000 </r>
       <r>   -25.5404     0.0000     2.0000 </r>
       <r>   -25.4358     0.0000     2.0000 </r>
       <r>   -25.3312     0.0000     2.0000 </r>
       <r>   -25.2267     0.0000     2.0000 </r>
       <r>   -25.1221     0.0000     2.0000 </r>
       <r>   -25.0175     0.0000     2.0000 </r>
       <r>   -24.9130     0.0000     2.0000 </r>
       <r>   -24.8084     0.0000     2.0000 </r>
       <r>   -24.7038     0.0000     2.0000 </r>
       <r>   -24.5993     0.0000     2.0000 </r>
       <r>   -24.4947     0.0000     2.0000 </r>
       <r>   -24.3902     0.0000     2.0000 </r>
       <r>   -24.2856     0.0000     2.0000 </r>
       <r>   -24.1810     0.0000     2.0000 </r>
       <r>   -24.0765     0.0000     2.0000 </r>
       <r>   -23.9719     0.0000     2.0000 </r>
       <r>   -23.8673     0.0000     2.0000 </r>
       <r>   -23.7628     0.0000     2.0000 </r>
       <r>   -23.6582     0.0000     2.0000 </r>
       <r>   -23.5536     0.0000     2.0000 </r>
       <r>   -23.4491     0.0000     2.0000 </r>
       <r>   -23.3445     0.0000     2.0000 </r>
       <r>   -23.2399     0.0000     2.0000 </r>
       <r>   -23.1354     0.0000     2.0000 </r>
       <r>   -23.0308     0.0000     2.0000 </r>
       <r>   -22.9263     0.0000     2.0000 </r>
       <r>   -22.8217     0.0000     2.0000 </r>
       <r>   -22.7171     0.0000     2.0000 </r>
       <r>   -22.6126     0.0000     2.0000 </r>
       <r>   -22.5080     0.0000     2.0000 </r>
       <r>   -22.4034     0.0000     2.0000 </r>
       <r>   -22.2989     0.0000     2.0000 </r>
       <r>   -22.1943     0.0000     2.0000 </r>
       <r>   -22.0897     0.0000     2.0000 </r>
       <r>   -21.9852     0.0000     2.0000 </r>
       <r>   -21.8806     0.0000     2.0000 </r>
       <r>   -21.7760     0.0000     2.0000 </r>
       <r>   -21.6715     0.0000     2.0000 </r>
       <r>   -21.5669     0.0000     2.0000 </r>
       <r>   -21.4623     0.0000     2.0000 </r>
       <r>   -21.3578     0.0000     2.0000 </r>
       <r>   -21.2532     0.0000     2.0000 </r>
       <r>   -21.1487     0.0000     2.0000 </r>
       <r>   -21.0441     0.0000     2.0000 </r>
       <r>   -20.9395     0.0000     2.0000 </r>
       <r>   -20.8350     0.0000     2.0000 </r>
       <r>   -20.7304     0.0000     2.0000 </r>
       <r>   -20.6258     0.0000     2.0000 </r>
       <r>   -20.5213     0.0000     2.0000 </r>
       <r>   -20.4167     0.0000     2.0000 </r>
       <r>   -20.3121     0.0000     2.0000 </r>
       <r>   -20.2076     0.0000     2.0000 </r>
       <r>   -20.1030     0.0000     2.0000 </r>
       <r>   -19.9984     0.0000     2.0000 </r>
       <r>   -19.8939     0.0000     2.0000 </r>
       <r>   -19.7893     0.0000     2.0000 </r>
       <r>   -19.6848     0.0000     2.0000 </r>
       <r>   -19.5802     0.0000     2.0000 </r>
       <r>   -19.4756     0.0000     2.0000 </r>
       <r>   -19.3711     0.0000     2.0000 </r>
       <r>   -19.2665     0.0000     2.0000 </r>
       <r>   -19.1619     0.0000     2.0000 </r>
       <r>   -19.0574     0.0000     2.0000 </r>
       <r>   -18.9528     0.0000     2.0000 </r>
       <r>   -18.8482     0.0000     2.0000 </r>
       <r>   -18.7437     0.0000     2.0000 </r>
       <r>   -18.6391     0.0000     2.0000 </r>
       <r>   -18.5345     0.0000     2.0000 </r>
       <r>   -18.4300     0.0000     2.0000 </r>
       <r>   -18.3254     0.0000     2.0000 </r>
       <r>   -18.2209     0.0000     2.0000 </r>
       <r>   -18.1163     0.0000     2.0000 </r>
       <r>   -18.0117     0.0000     2.0000 </r>
       <r>   -17.9072     0.0000     2.0000 </r>
       <r>   -17.8026     0.0000     2.0000 </r>
       <r>   -17.6980     0.0000     2.0000 </r>
       <r>   -17.5935     0.0000     2.0000 </r>
       <r>   -17.4889     0.0000     2.0000 </r>
       <r>   -17.3843     0.0000     2.0000 </r>
       <r>   -17.2798     0.0000     2.0000 </r>
       <r>   -17.1752     0.0000     2.0000 </r>
       <r>   -17.0706     0.0000     2.0000 </r>
       <r>   -16.9661     0.0000     2.0000 </r>
       <r>   -16.8615     0.0000     2.0000 </r>
       <r>   -16.7570     0.0000     2.0000 </r>
       <r>   -16.6524     0.0000     2.0000 </r>
       <r>   -16.5478     0.0000     2.0000 </r>
       <r>   -16.4433     0.0000     2.0000 </r>
       <r>   -16.3387     0.0000     2.0000 </r>
       <r>   -16.2341     0.0000     2.0000 </r>
       <r>   -16.1296     0.0000     2.0000 </r>
       <r>   -16.0250     0.0000     2.0000 </r>
       <r>   -15.9204     0.0000     2.0000 </r>
       <r>   -15.8159     0.0000     2.0000 </r>
       <r>   -15.7113     0.0000     2.0000 </r>
       <r>   -15.6067     0.0000     2.0000 </r>
       <r>   -15.5022     0.0000     2.0000 </r>
       <r>   -15.3976     0.0000     2.0000 </r>
       <r>   -15.2931     0.0000     2.0000 </r>
       <r>   -15.1885     0.0000     2.0000 </r>
       <r>   -15.0839     0.0000     2.0000 </r>
       <r>   -14.9794     0.0000     2.0000 </r>
       <r>   -14.8748     0.0000     2.0000 </r>
       <r>   -14.7702    -0.0000     2.0000 </r>
       <r>   -14.6657    -0.0000     2.0000 </r>
       <r>   -14.5611    -0.0000     2.0000 </r>
       <r>   -14.4565    -0.0000     2.0000 </r>
       <r>   -14.3520    -0.0000     2.0000 </r>
       <r>   -14.2474    -0.0000     2.0000 </r>
       <r>   -14.1428    -0.0065     1.9993 </r>
       <r>   -14.0383    -0.3380     1.9640 </r>
       <r>   -13.9337     1.3448     2.1046 </r>
       <r>   -13.8291    14.2361     3.5932 </r>
       <r>   -13.7246     4.4805     4.0617 </r>
       <r>   -13.6200    -0.5646     4.0026 </r>
       <r>   -13.5155    -0.0252     4.0000 </r>
       <r>   -13.4109    -0.0001     4.0000 </r>
       <r>   -13.3063    -0.0000     4.0000 </r>
       <r>   -13.2018    -0.0000     4.0000 </r>
       <r>   -13.0972     0.0000     4.0000 </r>
       <r>   -12.9926     0.0000     4.0000 </r>
       <r>   -12.8881     0.0000     4.0000 </r>
       <r>   -12.7835     0.0000     4.0000 </r>
       <r>   -12.6789     0.0000     4.0000 </r>
       <r>   -12.5744     0.0000     4.0000 </r>
       <r>   -12.4698     0.0000     4.0000 </r>
       <r>   -12.3652     0.0000     4.0000 </r>
       <r>   -12.2607     0.0000     4.0000 </r>
       <r>   -12.1561     0.0000     4.0000 </r>
       <r>   -12.0516    -0.0000     4.0000 </r>
       <r>   -11.9470    -0.0000     4.0000 </r>
       <r>   -11.8424    -0.0000     4.0000 </r>
       <r>   -11.7379    -0.0000     4.0000 </r>
       <r>   -11.6333    -0.0000     4.0000 </r>
       <r>   -11.5287    -0.0052     3.9995 </r>
       <r>   -11.4242    -0.3041     3.9677 </r>
       <r>   -11.3196     0.9177     4.0636 </r>
       <r>   -11.2150    13.3982     5.4646 </r>
       <r>   -11.1105    13.7186     6.8991 </r>
       <r>   -11.0059    11.9767     8.1514 </r>
       <r>   -10.9013    13.9423     9.6093 </r>
       <r>   -10.7968     4.3273    10.0618 </r>
       <r>   -10.6922    -0.5655    10.0026 </r>
       <r>   -10.5877    -0.0251    10.0000 </r>
       <r>   -10.4831    -0.0021     9.9998 </r>
       <r>   -10.3785    -0.1865     9.9803 </r>
       <r>   -10.2740     0.0120     9.9815 </r>
       <r>   -10.1694    12.2599    11.2635 </r>
       <r>   -10.0648     7.7204    12.0708 </r>
       <r>    -9.9603    -0.6138    12.0066 </r>
       <r>    -9.8557    -0.0628    12.0000 </r>
       <r>    -9.7511    -0.0003    12.0000 </r>
       <r>    -9.6466    -0.0000    12.0000 </r>
       <r>    -9.5420    -0.0000    12.0000 </r>
       <r>    -9.4374    -0.0000    12.0000 </r>
       <r>    -9.3329    -0.0000    12.0000 </r>
       <r>    -9.2283    -0.0000    12.0000 </r>
       <r>    -9.1238    -0.0000    12.0000 </r>
       <r>    -9.0192    -0.0001    12.0000 </r>
       <r>    -8.9146    -0.0217    11.9977 </r>
       <r>    -8.8101    -0.5419    11.9411 </r>
       <r>    -8.7055     4.0373    12.3632 </r>
       <r>    -8.6009    14.3966    13.8686 </r>
       <r>    -8.4964     1.6284    14.0389 </r>
       <r>    -8.3918    -0.4947    13.9871 </r>
       <r>    -8.2872    -0.3611    13.9494 </r>
       <r>    -8.1827    10.7561    15.0741 </r>
       <r>    -8.0781     9.4689    16.0642 </r>
       <r>    -7.9735    -0.5476    16.0069 </r>
       <r>    -7.8690    -0.6858    15.9352 </r>
       <r>    -7.7644     4.9455    16.4523 </r>
       <r>    -7.6599    13.1353    17.8258 </r>
       <r>    -7.5553    12.4534    19.1280 </r>
       <r>    -7.4507    23.8664    21.6236 </r>
       <r>    -7.3462     8.6539    22.5285 </r>
       <r>    -7.2416    14.0994    24.0028 </r>
       <r>    -7.1370    26.2635    26.7490 </r>
       <r>    -7.0325    25.2689    29.3912 </r>
       <r>    -6.9279    22.0017    31.6918 </r>
       <r>    -6.8233    11.1618    32.8589 </r>
       <r>    -6.7188    17.2716    34.6649 </r>
       <r>    -6.6142    42.7520    39.1353 </r>
       <r>    -6.5096    58.2867    45.2300 </r>
       <r>    -6.4051    41.3134    49.5499 </r>
       <r>    -6.3005    47.9397    54.5627 </r>
       <r>    -6.1959    55.5702    60.3733 </r>
       <r>    -6.0914    49.1660    65.5143 </r>
       <r>    -5.9868    35.6527    69.2423 </r>
       <r>    -5.8823    23.3899    71.6881 </r>
       <r>    -5.7777    22.0576    73.9945 </r>
       <r>    -5.6731    31.6866    77.3078 </r>
       <r>    -5.5686    52.1566    82.7615 </r>
       <r>    -5.4640    51.2673    88.1223 </r>
       <r>    -5.3594    67.0969    95.1382 </r>
       <r>    -5.2549    77.3900   103.2305 </r>
       <r>    -5.1503    90.6919   112.7136 </r>
       <r>    -5.0457    81.6551   121.2518 </r>
       <r>    -4.9412    74.0704   128.9969 </r>
       <r>    -4.8366    86.4847   138.0402 </r>
       <r>    -4.7320    60.5232   144.3687 </r>
       <r>    -4.6275    16.5989   146.1044 </r>
       <r>    -4.5229     9.7235   147.1211 </r>
       <r>    -4.4184     9.0227   148.0646 </r>
       <r>    -4.3138    -1.0283   147.9571 </r>
       <r>    -4.2092     1.6544   148.1301 </r>
       <r>    -4.1047    22.3344   150.4654 </r>
       <r>    -4.0001    15.3532   152.0708 </r>
       <r>    -3.8955    -0.4742   152.0213 </r>
       <r>    -3.7910    -0.2399   151.9962 </r>
       <r>    -3.6864    -0.6155   151.9318 </r>
       <r>    -3.5818     5.8715   152.5458 </r>
       <r>    -3.4773    13.5378   153.9613 </r>
       <r>    -3.3727     0.6374   154.0280 </r>
       <r>    -3.2681    -0.3101   153.9956 </r>
       <r>    -3.1636    -0.7560   153.9165 </r>
       <r>    -3.0590     6.0861   154.5529 </r>
       <r>    -2.9545    23.9398   157.0562 </r>
       <r>    -2.8499     9.8810   158.0894 </r>
       <r>    -2.7453    -0.8346   158.0021 </r>
       <r>    -2.6408    -0.6812   157.9309 </r>
       <r>    -2.5362     8.3384   158.8028 </r>
       <r>    -2.4316    12.7059   160.1314 </r>
       <r>    -2.3271    13.9431   161.5893 </r>
       <r>    -2.2225     4.5291   162.0629 </r>
       <r>    -2.1179    -0.7102   161.9886 </r>
       <r>    -2.0134    -0.7624   161.9089 </r>
       <r>    -1.9088    11.8754   163.1506 </r>
       <r>    -1.8042    25.7846   165.8468 </r>
       <r>    -1.6997    18.0188   167.7309 </r>
       <r>    -1.5951     2.4688   167.9891 </r>
       <r>    -1.4906     7.6232   168.7862 </r>
       <r>    -1.3860    11.8769   170.0281 </r>
       <r>    -1.2814    -0.3579   169.9906 </r>
       <r>    -1.1769     0.3416   170.0263 </r>
       <r>    -1.0723    12.8575   171.3708 </r>
       <r>    -0.9677    14.1464   172.8500 </r>
       <r>    -0.8632    10.6549   173.9641 </r>
       <r>    -0.7586     5.9227   174.5834 </r>
       <r>    -0.6540    13.2336   175.9672 </r>
       <r>    -0.5495     0.0564   175.9731 </r>
       <r>    -0.4449     2.9748   176.2841 </r>
       <r>    -0.3403    14.0440   177.7526 </r>
       <r>    -0.2358    11.4866   178.9537 </r>
       <r>    -0.1312     9.6315   179.9608 </r>
       <r>    -0.0267     6.2484   180.6142 </r>
       <r>     0.0779    25.1165   183.2405 </r>
       <r>     0.1825     8.1729   184.0951 </r>
       <r>     0.2870    -0.8417   184.0071 </r>
       <r>     0.3916    -0.0674   184.0000 </r>
       <r>     0.4962    -0.0003   184.0000 </r>
       <r>     0.6007    -0.0000   184.0000 </r>
       <r>     0.7053    -0.0000   184.0000 </r>
       <r>     0.8099     0.0000   184.0000 </r>
       <r>     0.9144     0.0000   184.0000 </r>
       <r>     1.0190     0.0000   184.0000 </r>
       <r>     1.1236     0.0000   184.0000 </r>
       <r>     1.2281     0.0000   184.0000 </r>
       <r>     1.3327     0.0000   184.0000 </r>
       <r>     1.4372     0.0000   184.0000 </r>
       <r>     1.5418     0.0000   184.0000 </r>
      </set>
      <set comment="spin 2">
       <r>   -29.8275     0.0000     0.0000 </r>
       <r>   -29.7229     0.0000     0.0000 </r>
       <r>   -29.6184     0.0000     0.0000 </r>
       <r>   -29.5138     0.0000     0.0000 </r>
       <r>   -29.4092     0.0000     0.0000 </r>
       <r>   -29.3047     0.0000     0.0000 </r>
       <r>   -29.2001    -0.0000    -0.0000 </r>
       <r>   -29.0955    -0.0000    -0.0000 </r>
       <r>   -28.9910    -0.0000    -0.0000 </r>
       <r>   -28.8864    -0.0000    -0.0000 </r>
       <r>   -28.7819    -0.0000    -0.0000 </r>
       <r>   -28.6773    -0.0020    -0.0002 </r>
       <r>   -28.5727    -0.1838    -0.0194 </r>
       <r>   -28.4682    -0.0071    -0.0202 </r>
       <r>   -28.3636    12.2026     1.2558 </r>
       <r>   -28.2590     7.7934     2.0707 </r>
       <r>   -28.1545    -0.6119     2.0067 </r>
       <r>   -28.0499    -0.0639     2.0000 </r>
       <r>   -27.9453    -0.0003     2.0000 </r>
       <r>   -27.8408    -0.0000     2.0000 </r>
       <r>   -27.7362    -0.0000     2.0000 </r>
       <r>   -27.6316     0.0000     2.0000 </r>
       <r>   -27.5271     0.0000     2.0000 </r>
       <r>   -27.4225     0.0000     2.0000 </r>
       <r>   -27.3180     0.0000     2.0000 </r>
       <r>   -27.2134     0.0000     2.0000 </r>
       <r>   -27.1088     0.0000     2.0000 </r>
       <r>   -27.0043     0.0000     2.0000 </r>
       <r>   -26.8997     0.0000     2.0000 </r>
       <r>   -26.7951     0.0000     2.0000 </r>
       <r>   -26.6906     0.0000     2.0000 </r>
       <r>   -26.5860     0.0000     2.0000 </r>
       <r>   -26.4814     0.0000     2.0000 </r>
       <r>   -26.3769     0.0000     2.0000 </r>
       <r>   -26.2723     0.0000     2.0000 </r>
       <r>   -26.1677     0.0000     2.0000 </r>
       <r>   -26.0632     0.0000     2.0000 </r>
       <r>   -25.9586     0.0000     2.0000 </r>
       <r>   -25.8541     0.0000     2.0000 </r>
       <r>   -25.7495     0.0000     2.0000 </r>
       <r>   -25.6449     0.0000     2.0000 </r>
       <r>   -25.5404     0.0000     2.0000 </r>
       <r>   -25.4358     0.0000     2.0000 </r>
       <r>   -25.3312     0.0000     2.0000 </r>
       <r>   -25.2267     0.0000     2.0000 </r>
       <r>   -25.1221     0.0000     2.0000 </r>
       <r>   -25.0175     0.0000     2.0000 </r>
       <r>   -24.9130     0.0000     2.0000 </r>
       <r>   -24.8084     0.0000     2.0000 </r>
       <r>   -24.7038     0.0000     2.0000 </r>
       <r>   -24.5993     0.0000     2.0000 </r>
       <r>   -24.4947     0.0000     2.0000 </r>
       <r>   -24.3902     0.0000     2.0000 </r>
       <r>   -24.2856     0.0000     2.0000 </r>
       <r>   -24.1810     0.0000     2.0000 </r>
       <r>   -24.0765     0.0000     2.0000 </r>
       <r>   -23.9719     0.0000     2.0000 </r>
       <r>   -23.8673     0.0000     2.0000 </r>
       <r>   -23.7628     0.0000     2.0000 </r>
       <r>   -23.6582     0.0000     2.0000 </r>
       <r>   -23.5536     0.0000     2.0000 </r>
       <r>   -23.4491     0.0000     2.0000 </r>
       <r>   -23.3445     0.0000     2.0000 </r>
       <r>   -23.2399     0.0000     2.0000 </r>
       <r>   -23.1354     0.0000     2.0000 </r>
       <r>   -23.0308     0.0000     2.0000 </r>
       <r>   -22.9263     0.0000     2.0000 </r>
       <r>   -22.8217     0.0000     2.0000 </r>
       <r>   -22.7171     0.0000     2.0000 </r>
       <r>   -22.6126     0.0000     2.0000 </r>
       <r>   -22.5080     0.0000     2.0000 </r>
       <r>   -22.4034     0.0000     2.0000 </r>
       <r>   -22.2989     0.0000     2.0000 </r>
       <r>   -22.1943     0.0000     2.0000 </r>
       <r>   -22.0897     0.0000     2.0000 </r>
       <r>   -21.9852     0.0000     2.0000 </r>
       <r>   -21.8806     0.0000     2.0000 </r>
       <r>   -21.7760     0.0000     2.0000 </r>
       <r>   -21.6715     0.0000     2.0000 </r>
       <r>   -21.5669     0.0000     2.0000 </r>
       <r>   -21.4623     0.0000     2.0000 </r>
       <r>   -21.3578     0.0000     2.0000 </r>
       <r>   -21.2532     0.0000     2.0000 </r>
       <r>   -21.1487     0.0000     2.0000 </r>
       <r>   -21.0441     0.0000     2.0000 </r>
       <r>   -20.9395     0.0000     2.0000 </r>
       <r>   -20.8350     0.0000     2.0000 </r>
       <r>   -20.7304     0.0000     2.0000 </r>
       <r>   -20.6258     0.0000     2.0000 </r>
       <r>   -20.5213     0.0000     2.0000 </r>
       <r>   -20.4167     0.0000     2.0000 </r>
       <r>   -20.3121     0.0000     2.0000 </r>
       <r>   -20.2076     0.0000     2.0000 </r>
       <r>   -20.1030     0.0000     2.0000 </r>
       <r>   -19.9984     0.0000     2.0000 </r>
       <r>   -19.8939     0.0000     2.0000 </r>
       <r>   -19.7893     0.0000     2.0000 </r>
       <r>   -19.6848     0.0000     2.0000 </r>
       <r>   -19.5802     0.0000     2.0000 </r>
       <r>   -19.4756     0.0000     2.0000 </r>
       <r>   -19.3711     0.0000     2.0000 </r>
       <r>   -19.2665     0.0000     2.0000 </r>
       <r>   -19.1619     0.0000     2.0000 </r>
       <r>   -19.0574     0.0000     2.0000 </r>
       <r>   -18.9528     0.0000     2.0000 </r>
       <r>   -18.8482     0.0000     2.0000 </r>
       <r>   -18.7437     0.0000     2.0000 </r>
       <r>   -18.6391     0.0000     2.0000 </r>
       <r>   -18.5345     0.0000     2.0000 </r>
       <r>   -18.4300     0.0000     2.0000 </r>
       <r>   -18.3254     0.0000     2.0000 </r>
       <r>   -18.2209     0.0000     2.0000 </r>
       <r>   -18.1163     0.0000     2.0000 </r>
       <r>   -18.0117     0.0000     2.0000 </r>
       <r>   -17.9072     0.0000     2.0000 </r>
       <r>   -17.8026     0.0000     2.0000 </r>
       <r>   -17.6980     0.0000     2.0000 </r>
       <r>   -17.5935     0.0000     2.0000 </r>
       <r>   -17.4889     0.0000     2.0000 </r>
       <r>   -17.3843     0.0000     2.0000 </r>
       <r>   -17.2798     0.0000     2.0000 </r>
       <r>   -17.1752     0.0000     2.0000 </r>
       <r>   -17.0706     0.0000     2.0000 </r>
       <r>   -16.9661     0.0000     2.0000 </r>
       <r>   -16.8615     0.0000     2.0000 </r>
       <r>   -16.7570     0.0000     2.0000 </r>
       <r>   -16.6524     0.0000     2.0000 </r>
       <r>   -16.5478     0.0000     2.0000 </r>
       <r>   -16.4433     0.0000     2.0000 </r>
       <r>   -16.3387     0.0000     2.0000 </r>
       <r>   -16.2341     0.0000     2.0000 </r>
       <r>   -16.1296     0.0000     2.0000 </r>
       <r>   -16.0250     0.0000     2.0000 </r>
       <r>   -15.9204     0.0000     2.0000 </r>
       <r>   -15.8159     0.0000     2.0000 </r>
       <r>   -15.7113     0.0000     2.0000 </r>
       <r>   -15.6067     0.0000     2.0000 </r>
       <r>   -15.5022     0.0000     2.0000 </r>
       <r>   -15.3976     0.0000     2.0000 </r>
       <r>   -15.2931     0.0000     2.0000 </r>
       <r>   -15.1885     0.0000     2.0000 </r>
       <r>   -15.0839     0.0000     2.0000 </r>
       <r>   -14.9794     0.0000     2.0000 </r>
       <r>   -14.8748     0.0000     2.0000 </r>
       <r>   -14.7702     0.0000     2.0000 </r>
       <r>   -14.6657    -0.0000     2.0000 </r>
       <r>   -14.5611    -0.0000     2.0000 </r>
       <r>   -14.4565    -0.0000     2.0000 </r>
       <r>   -14.3520    -0.0000     2.0000 </r>
       <r>   -14.2474    -0.0000     2.0000 </r>
       <r>   -14.1428    -0.0006     1.9999 </r>
       <r>   -14.0383    -0.0957     1.9899 </r>
       <r>   -13.9337    -0.5179     1.9358 </r>
       <r>   -13.8291     9.4627     2.9252 </r>
       <r>   -13.7246    10.7619     4.0505 </r>
       <r>   -13.6200    -0.3525     4.0137 </r>
       <r>   -13.5155    -0.1299     4.0001 </r>
       <r>   -13.4109    -0.0011     4.0000 </r>
       <r>   -13.3063    -0.0000     4.0000 </r>
       <r>   -13.2018    -0.0000     4.0000 </r>
       <r>   -13.0972     0.0000     4.0000 </r>
       <r>   -12.9926     0.0000     4.0000 </r>
       <r>   -12.8881     0.0000     4.0000 </r>
       <r>   -12.7835     0.0000     4.0000 </r>
       <r>   -12.6789     0.0000     4.0000 </r>
       <r>   -12.5744     0.0000     4.0000 </r>
       <r>   -12.4698     0.0000     4.0000 </r>
       <r>   -12.3652     0.0000     4.0000 </r>
       <r>   -12.2607     0.0000     4.0000 </r>
       <r>   -12.1561     0.0000     4.0000 </r>
       <r>   -12.0516    -0.0000     4.0000 </r>
       <r>   -11.9470    -0.0000     4.0000 </r>
       <r>   -11.8424    -0.0000     4.0000 </r>
       <r>   -11.7379    -0.0000     4.0000 </r>
       <r>   -11.6333    -0.0000     4.0000 </r>
       <r>   -11.5287    -0.0006     3.9999 </r>
       <r>   -11.4242    -0.0925     3.9903 </r>
       <r>   -11.3196    -0.5822     3.9294 </r>
       <r>   -11.2150     8.6864     4.8377 </r>
       <r>   -11.1105    17.7807     6.6969 </r>
       <r>   -11.0059    11.9443     7.9459 </r>
       <r>   -10.9013     5.2469     8.4945 </r>
       <r>   -10.7968    13.7241     9.9295 </r>
       <r>   -10.6922     0.9805    10.0321 </r>
       <r>   -10.5877    -0.3016    10.0005 </r>
       <r>   -10.4831    -0.0052    10.0000 </r>
       <r>   -10.3785    -0.0396     9.9958 </r>
       <r>   -10.2740    -0.6156     9.9315 </r>
       <r>   -10.1694     5.9746    10.5562 </r>
       <r>   -10.0648    13.4761    11.9653 </r>
       <r>    -9.9603     0.5945    12.0275 </r>
       <r>    -9.8557    -0.2592    12.0004 </r>
       <r>    -9.7511    -0.0037    12.0000 </r>
       <r>    -9.6466    -0.0000    12.0000 </r>
       <r>    -9.5420    -0.0000    12.0000 </r>
       <r>    -9.4374    -0.0000    12.0000 </r>
       <r>    -9.3329    -0.0000    12.0000 </r>
       <r>    -9.2283    -0.0000    12.0000 </r>
       <r>    -9.1238    -0.0000    12.0000 </r>
       <r>    -9.0192    -0.0000    12.0000 </r>
       <r>    -8.9146    -0.0073    11.9992 </r>
       <r>    -8.8101    -0.3563    11.9620 </r>
       <r>    -8.7055     1.5355    12.1225 </r>
       <r>    -8.6009    14.3495    13.6230 </r>
       <r>    -8.4964     4.1777    14.0598 </r>
       <r>    -8.3918    -0.5750    13.9997 </r>
       <r>    -8.2872    -0.5894    13.9381 </r>
       <r>    -8.1827     4.5234    14.4111 </r>
       <r>    -8.0781    14.2187    15.8978 </r>
       <r>    -7.9735     1.3160    16.0354 </r>
       <r>    -7.8690    -0.5642    15.9765 </r>
       <r>    -7.7644     0.2838    16.0061 </r>
       <r>    -7.6599    12.2798    17.2902 </r>
       <r>    -7.5553    12.6894    18.6170 </r>
       <r>    -7.4507    23.2394    21.0470 </r>
       <r>    -7.3462    10.5741    22.1527 </r>
       <r>    -7.2416    12.3040    23.4393 </r>
       <r>    -7.1370    22.8596    25.8296 </r>
       <r>    -7.0325    25.9113    28.5390 </r>
       <r>    -6.9279    25.2716    31.1815 </r>
       <r>    -6.8233    13.0768    32.5488 </r>
       <r>    -6.7188    14.3500    34.0493 </r>
       <r>    -6.6142    35.2896    37.7394 </r>
       <r>    -6.5096    61.0221    44.1201 </r>
       <r>    -6.4051    41.2247    48.4307 </r>
       <r>    -6.3005    46.8755    53.3322 </r>
       <r>    -6.1959    53.0244    58.8767 </r>
       <r>    -6.0914    53.3567    64.4559 </r>
       <r>    -5.9868    38.1405    68.4441 </r>
       <r>    -5.8823    24.0184    70.9555 </r>
       <r>    -5.7777    24.8256    73.5514 </r>
       <r>    -5.6731    25.7908    76.2482 </r>
       <r>    -5.5686    49.4977    81.4239 </r>
       <r>    -5.4640    51.1448    86.7718 </r>
       <r>    -5.3594    59.6295    93.0069 </r>
       <r>    -5.2549    77.1800   101.0772 </r>
       <r>    -5.1503    89.0663   110.3904 </r>
       <r>    -5.0457    85.2966   119.3094 </r>
       <r>    -4.9412    72.1811   126.8569 </r>
       <r>    -4.8366    81.5451   135.3837 </r>
       <r>    -4.7320    71.7557   142.8867 </r>
       <r>    -4.6275    29.6017   145.9820 </r>
       <r>    -4.5229     4.4991   146.4525 </r>
       <r>    -4.4184    13.7349   147.8886 </r>
       <r>    -4.3138     1.3402   148.0288 </r>
       <r>    -4.2092    -1.3662   147.8859 </r>
       <r>    -4.1047    10.1592   148.9482 </r>
       <r>    -4.0001    26.6316   151.7329 </r>
       <r>    -3.8955     3.2469   152.0724 </r>
       <r>    -3.7910    -0.6743   152.0019 </r>
       <r>    -3.6864    -0.0188   152.0000 </r>
       <r>    -3.5818    -0.0708   151.9926 </r>
       <r>    -3.4773    -0.5983   151.9300 </r>
       <r>    -3.3727     8.2035   152.7878 </r>
       <r>    -3.2681    11.8685   154.0288 </r>
       <r>    -3.1636    -0.3599   153.9912 </r>
       <r>    -3.0590    -0.2049   153.9698 </r>
       <r>    -2.9545    15.9328   155.6358 </r>
       <r>    -2.8499    21.0438   157.8362 </r>
       <r>    -2.7453     2.0751   158.0532 </r>
       <r>    -2.6408    -0.7676   157.9729 </r>
       <r>    -2.5362     0.6548   158.0414 </r>
       <r>    -2.4316    13.2397   159.4258 </r>
       <r>    -2.3271     7.2450   160.1834 </r>
       <r>    -2.2225    13.6962   161.6155 </r>
       <r>    -2.1179     4.2221   162.0570 </r>
       <r>    -2.0134    -1.1766   161.9339 </r>
       <r>    -1.9088     4.8837   162.4446 </r>
       <r>    -1.8042    16.5854   164.1788 </r>
       <r>    -1.6997    23.0252   166.5865 </r>
       <r>    -1.5951    14.0334   168.0539 </r>
       <r>    -1.4906    -0.9895   167.9504 </r>
       <r>    -1.3860     7.6895   168.7544 </r>
       <r>    -1.2814    12.1254   170.0223 </r>
       <r>    -1.1769    -0.0826   170.0137 </r>
       <r>    -1.0723    -1.1778   169.8905 </r>
       <r>    -0.9677     8.0322   170.7304 </r>
       <r>    -0.8632    27.5785   173.6141 </r>
       <r>    -0.7586     4.1795   174.0512 </r>
       <r>    -0.6540    10.9551   175.1967 </r>
       <r>    -0.5495     8.3382   176.0686 </r>
       <r>    -0.4449    -1.0022   175.9638 </r>
       <r>    -0.3403     1.6318   176.1344 </r>
       <r>    -0.2358    16.1166   177.8196 </r>
       <r>    -0.1312    17.5712   179.6569 </r>
       <r>    -0.0267     3.3182   180.0039 </r>
       <r>     0.0779    16.7848   181.7590 </r>
       <r>     0.1825    21.0974   183.9650 </r>
       <r>     0.2870     0.7310   184.0414 </r>
       <r>     0.3916    -0.3896   184.0007 </r>
       <r>     0.4962    -0.0067   184.0000 </r>
       <r>     0.6007    -0.0000   184.0000 </r>
       <r>     0.7053    -0.0000   184.0000 </r>
       <r>     0.8099    -0.0000   184.0000 </r>
       <r>     0.9144     0.0000   184.0000 </r>
       <r>     1.0190     0.0000   184.0000 </r>
       <r>     1.1236     0.0000   184.0000 </r>
       <r>     1.2281     0.0000   184.0000 </r>
       <r>     1.3327     0.0000   184.0000 </r>
       <r>     1.4372     0.0000   184.0000 </r>
       <r>     1.5418     0.0000   184.0000 </r>
      </set>
     </set>
    </array>
   </total>
  </dos>
 </calculation>
 <structure name="finalpos" >
  <crystal>
   <varray name="basis" >
    <v>      15.00000000       0.00000000       0.00000000 </v>
    <v>       0.00000000      15.00000000       0.00000000 </v>
    <v>       0.00000000       0.00000000      15.00000000 </v>
   </varray>
   <i name="volume">   3375.00000000 </i>
   <varray name="rec_basis" >
    <v>       0.06666667       0.00000000       0.00000000 </v>
    <v>       0.00000000       0.06666667       0.00000000 </v>
    <v>       0.00000000       0.00000000       0.06666667 </v>
   </varray>
  </crystal>
  <varray name="positions" >
   <v>       0.28811533       0.41710333       0.55762200 </v>
   <v>       0.37440467       0.54873867       0.49923800 </v>
   <v>       0.40106200       0.29041000       0.55313733 </v>
   <v>       0.53350133       0.50073867       0.47574267 </v>
   <v>       0.54685067       0.35382333       0.53221800 </v>
   <v>       0.44218800       0.43707333       0.61445867 </v>
   <v>       0.41646000       0.40372200       0.44142467 </v>
   <v>       0.22473800       0.56919200       0.54237333 </v>
   <v>       0.32602000       0.55281467       0.65824600 </v>
   <v>       0.35589667       0.68038000       0.57620467 </v>
   <v>       0.48664267       0.65901933       0.47892933 </v>
   <v>       0.63033133       0.48650200       0.60509467 </v>
   <v>       0.48764067       0.58374333       0.61863200 </v>
   <v>       0.74844667       0.49048800       0.64484867 </v>
   <v>       0.82274667       0.50959200       0.65719067 </v>
  </varray>
 </structure>
</modeling>
