<?xml version="1.0" encoding="ISO-8859-1"?>
<modeling>
 <generator>
  <i name="program" type="string">vasp </i>
  <i name="version" type="string">5.4.4.18Apr17-6-g9f103f2a35  </i>
  <i name="subversion" type="string">(build May 08 2019 13:49:07) complex            parallel </i>
  <i name="platform" type="string">LinuxIFC </i>
  <i name="date" type="string">2019 11 13 </i>
  <i name="time" type="string">13:57:12 </i>
 </generator>
 <incar>
  <i type="string" name="SYSTEM"> CuCO</i>
  <i type="int" name="ISTART">     0</i>
  <i type="string" name="PREC">accurate</i>
  <i type="string" name="ALGO"> Fast</i>
  <i type="int" name="ISPIN">     2</i>
  <i type="int" name="INIWAV">     1</i>
  <i type="int" name="NELM">   300</i>
  <i type="int" name="NELMIN">     3</i>
  <i type="int" name="IBRION">    -1</i>
  <i name="EDIFF">      0.00000010</i>
  <i name="EDIFFG">     -0.00100000</i>
  <i type="int" name="NSW">     0</i>
  <i type="int" name="ISYM">     0</i>
  <i name="ENCUT">    600.00000000</i>
  <i name="NUPDOWN">      1.00000000</i>
  <i type="logical" name="LREAL"> F  </i>
  <i type="int" name="ISMEAR">     1</i>
  <i name="SIGMA">      0.10000000</i>
  <i name="KSPACING">      0.50000000</i>
  <i type="logical" name="KGAMMA"> F  </i>
  <i type="logical" name="LWAVE"> F  </i>
  <i type="logical" name="LCHARG"> F  </i>
  <v type="int" name="KPOINT_BSE">    -1     0     0     0</v>
  <i type="int" name="NELM">   300</i>
  <i type="string" name="GGA"> PE</i>
 </incar>
 <structure name="primitive_cell" >
  <crystal>
   <varray name="basis" >
    <v>      15.00000000       0.00000000       0.00000000 </v>
    <v>       0.00000000      15.00000000       0.00000000 </v>
    <v>       0.00000000       0.00000000      15.00000000 </v>
   </varray>
   <i name="volume">   3375.00000000 </i>
   <varray name="rec_basis" >
    <v>       0.06666667       0.00000000       0.00000000 </v>
    <v>       0.00000000       0.06666667       0.00000000 </v>
    <v>       0.00000000       0.00000000       0.06666667 </v>
   </varray>
  </crystal>
  <varray name="positions" >
   <v>       0.29234533       0.41495333      -0.41922800 </v>
   <v>       0.32896867      -0.45530600      -0.35174200 </v>
   <v>       0.39655200       0.29801800      -0.42924400 </v>
   <v>       0.45350133       0.43299133      -0.38915867 </v>
   <v>       0.21391000      -0.44784267      -0.46699333 </v>
   <v>       0.37174667      -0.45949267       0.49395867 </v>
   <v>       0.41723000       0.40317267       0.44994267 </v>
   <v>       0.48330400      -0.41738267      -0.37534133 </v>
   <v>       0.36155600      -0.32636000      -0.42646333 </v>
   <v>      -0.45114867       0.35031267      -0.49764867 </v>
   <v>      -0.45604733      -0.48803133       0.46594733 </v>
   <v>       0.48866000      -0.34178533       0.48145533 </v>
   <v>      -0.38064600      -0.49498533      -0.38467400 </v>
   <v>      -0.26244000      -0.48284600      -0.34678533 </v>
   <v>      -0.19323333      -0.45086533      -0.33911600 </v>
  </varray>
 </structure>
 <varray name="primitive_index" >
  <v type="int" >        1 </v>
  <v type="int" >        9 </v>
  <v type="int" >        3 </v>
  <v type="int" >        6 </v>
  <v type="int" >        8 </v>
  <v type="int" >        2 </v>
  <v type="int" >        7 </v>
  <v type="int" >       13 </v>
  <v type="int" >       10 </v>
  <v type="int" >        5 </v>
  <v type="int" >        4 </v>
  <v type="int" >       11 </v>
  <v type="int" >       12 </v>
  <v type="int" >       14 </v>
  <v type="int" >       15 </v>
 </varray>
 <kpoints>
  <generation param="Monkhorst-Pack">
   <v type="int" name="divisions">       1        1        1 </v>
   <v name="usershift">      0.00000000       0.00000000       0.00000000 </v>
   <v name="genvec1">      1.00000000       0.00000000       0.00000000 </v>
   <v name="genvec2">      0.00000000       1.00000000       0.00000000 </v>
   <v name="genvec3">      0.00000000       0.00000000       1.00000000 </v>
   <v name="shift">      0.00000000       0.00000000       0.00000000 </v>
  </generation>
  <varray name="kpointlist" >
   <v>       0.00000000       0.00000000       0.00000000 </v>
  </varray>
  <varray name="weights" >
   <v>       1.00000000 </v>
  </varray>
 </kpoints>
 <parameters>
  <separator name="general" >
   <i type="string" name="SYSTEM">CuCO</i>
   <i type="logical" name="LCOMPAT"> F  </i>
  </separator>
  <separator name="electronic" >
   <i type="string" name="PREC">accura</i>
   <i name="ENMAX">    600.00000000</i>
   <i name="ENAUG">    644.87300000</i>
   <i name="EDIFF">      0.00000010</i>
   <i type="int" name="IALGO">    68</i>
   <i type="int" name="IWAVPR">    10</i>
   <i type="int" name="NBANDS">    92</i>
   <i name="NELECT">    153.00000000</i>
   <i type="int" name="TURBO">     0</i>
   <i type="int" name="IRESTART">     0</i>
   <i type="int" name="NREBOOT">     0</i>
   <i type="int" name="NMIN">     0</i>
   <i name="EREF">      0.00000000</i>
   <separator name="electronic smearing" >
    <i type="int" name="ISMEAR">     1</i>
    <i name="SIGMA">      0.10000000</i>
    <i name="KSPACING">      0.50000000</i>
    <i type="logical" name="KGAMMA"> F  </i>
   </separator>
   <separator name="electronic projectors" >
    <i type="logical" name="LREAL"> F  </i>
    <v name="ROPT">      0.00000000      0.00000000      0.00000000</v>
    <i type="int" name="LMAXPAW">  -100</i>
    <i type="int" name="LMAXMIX">     2</i>
    <i type="logical" name="NLSPLINE"> F  </i>
   </separator>
   <separator name="electronic startup" >
    <i type="int" name="ISTART">     0</i>
    <i type="int" name="ICHARG">     2</i>
    <i type="int" name="INIWAV">     1</i>
   </separator>
   <separator name="electronic spin" >
    <i type="int" name="ISPIN">     2</i>
    <i type="logical" name="LNONCOLLINEAR"> F  </i>
    <v name="MAGMOM">      0.06666667      0.06666667      0.06666667      0.06666667      0.06666667      0.06666667      0.06666667      0.06666667      0.06666667      0.06666667      0.06666667      0.06666667      0.06666667      0.06666667      0.06666667</v>
    <i name="NUPDOWN">      1.00000000</i>
    <i type="logical" name="LSORBIT"> F  </i>
    <v name="SAXIS">      0.00000000      0.00000000      1.00000000</v>
    <i type="logical" name="LSPIRAL"> F  </i>
    <v name="QSPIRAL">      0.00000000      0.00000000      0.00000000</v>
    <i type="logical" name="LZEROZ"> F  </i>
   </separator>
   <separator name="electronic exchange-correlation" >
    <i type="logical" name="LASPH"> F  </i>
    <i type="logical" name="LMETAGGA"> F  </i>
   </separator>
   <separator name="electronic convergence" >
    <i type="int" name="NELM">   300</i>
    <i type="int" name="NELMDL">    -5</i>
    <i type="int" name="NELMIN">     3</i>
    <i name="ENINI">    600.00000000</i>
    <separator name="electronic convergence detail" >
     <i type="logical" name="LDIAG"> T  </i>
     <i type="logical" name="LSUBROT"> F  </i>
     <i name="WEIMIN">      0.00000000</i>
     <i name="EBREAK">      0.00000000</i>
     <i name="DEPER">      0.30000000</i>
     <i type="int" name="NRMM">     4</i>
     <i name="TIME">      0.40000000</i>
    </separator>
   </separator>
   <separator name="electronic mixer" >
    <i name="AMIX">      0.40000000</i>
    <i name="BMIX">      1.00000000</i>
    <i name="AMIN">      0.10000000</i>
    <i name="AMIX_MAG">      1.60000000</i>
    <i name="BMIX_MAG">      1.00000000</i>
    <separator name="electronic mixer details" >
     <i type="int" name="IMIX">     4</i>
     <i type="logical" name="MIXFIRST"> F  </i>
     <i type="int" name="MAXMIX">   -45</i>
     <i name="WC">    100.00000000</i>
     <i type="int" name="INIMIX">     1</i>
     <i type="int" name="MIXPRE">     1</i>
     <i type="int" name="MREMOVE">     5</i>
    </separator>
   </separator>
   <separator name="electronic dipolcorrection" >
    <i type="logical" name="LDIPOL"> F  </i>
    <i type="logical" name="LMONO"> F  </i>
    <i type="int" name="IDIPOL">     0</i>
    <i name="EPSILON">      1.00000000</i>
    <v name="DIPOL">   -100.00000000   -100.00000000   -100.00000000</v>
    <i name="EFIELD">      0.00000000</i>
   </separator>
  </separator>
  <separator name="grids" >
   <i type="int" name="NGX">   120</i>
   <i type="int" name="NGY">   120</i>
   <i type="int" name="NGZ">   120</i>
   <i type="int" name="NGXF">   240</i>
   <i type="int" name="NGYF">   240</i>
   <i type="int" name="NGZF">   240</i>
   <i type="logical" name="ADDGRID"> F  </i>
  </separator>
  <separator name="ionic" >
   <i type="int" name="NSW">     0</i>
   <i type="int" name="IBRION">    -1</i>
   <i type="int" name="MDALGO">     0</i>
   <i type="int" name="ISIF">     2</i>
   <i name="PSTRESS">      0.00000000</i>
   <i name="EDIFFG">     -0.00100000</i>
   <i type="int" name="NFREE">     0</i>
   <i name="POTIM">      0.50000000</i>
   <i name="SMASS">     -3.00000000</i>
   <i name="SCALEE">      1.00000000</i>
  </separator>
  <separator name="ionic md" >
   <i name="TEBEG">      0.00010000</i>
   <i name="TEEND">      0.00010000</i>
   <i type="int" name="NBLOCK">     1</i>
   <i type="int" name="KBLOCK">     1</i>
   <i type="int" name="NPACO">   256</i>
   <i name="APACO">     16.00000000</i>
  </separator>
  <separator name="symmetry" >
   <i type="int" name="ISYM">     0</i>
   <i name="SYMPREC">      0.00001000</i>
  </separator>
  <separator name="dos" >
   <i type="int" name="LORBIT">     0</i>
   <v name="RWIGS">     -1.00000000     -1.00000000     -1.00000000</v>
   <i type="int" name="NEDOS">   301</i>
   <i name="EMIN">     10.00000000</i>
   <i name="EMAX">    -10.00000000</i>
   <i name="EFERMI">      0.00000000</i>
  </separator>
  <separator name="writing" >
   <i type="int" name="NWRITE">     2</i>
   <i type="logical" name="LWAVE"> F  </i>
   <i type="logical" name="LDOWNSAMPLE"> F  </i>
   <i type="logical" name="LCHARG"> F  </i>
   <i type="logical" name="LPARD"> F  </i>
   <i type="logical" name="LVTOT"> F  </i>
   <i type="logical" name="LVHAR"> F  </i>
   <i type="logical" name="LELF"> F  </i>
   <i type="logical" name="LOPTICS"> F  </i>
   <v name="STM">      0.00000000      0.00000000      0.00000000      0.00000000      0.00000000      0.00000000      0.00000000</v>
  </separator>
  <separator name="performance" >
   <i type="int" name="NPAR">     4</i>
   <i type="int" name="NSIM">     4</i>
   <i type="int" name="NBLK">    -1</i>
   <i type="logical" name="LPLANE"> T  </i>
   <i type="logical" name="LSCALAPACK"> T  </i>
   <i type="logical" name="LSCAAWARE"> F  </i>
   <i type="logical" name="LSCALU"> F  </i>
   <i type="logical" name="LASYNC"> F  </i>
   <i type="logical" name="LORBITALREAL"> F  </i>
  </separator>
  <separator name="miscellaneous" >
   <i type="int" name="IDIOT">     3</i>
   <i type="int" name="ISPECIAL">     0</i>
   <i type="logical" name="LMUSIC"> F  </i>
   <v name="POMASS">     63.54600000     12.01100000     16.00000000</v>
   <v name="DARWINR">      0.00000000      0.00000000      0.00000000</v>
   <v name="DARWINV">      1.00000000      1.00000000      1.00000000</v>
   <i type="logical" name="LCORR"> T  </i>
  </separator>
  <i type="logical" name="GGA_COMPAT"> T  </i>
  <i type="logical" name="LBERRY"> F  </i>
  <i type="int" name="ICORELEVEL">     0</i>
  <i type="logical" name="LDAU"> F  </i>
  <i type="int" name="I_CONSTRAINED_M">     0</i>
  <separator name="electronic exchange-correlation" >
   <i type="string" name="GGA">PE</i>
   <i type="int" name="VOSKOWN">     0</i>
   <i type="logical" name="LHFCALC"> F  </i>
   <i type="string" name="PRECFOCK"></i>
   <i type="logical" name="LSYMGRAD"> F  </i>
   <i type="logical" name="LHFONE"> F  </i>
   <i type="logical" name="LRHFCALC"> F  </i>
   <i type="logical" name="LTHOMAS"> F  </i>
   <i type="logical" name="LMODELHF"> F  </i>
   <i name="ENCUT4O">     -1.00000000</i>
   <i type="int" name="EXXOEP">     0</i>
   <i type="int" name="FOURORBIT">     0</i>
   <i name="AEXX">      0.00000000</i>
   <i name="HFALPHA">      0.00000000</i>
   <i name="MCALPHA">      0.00000000</i>
   <i name="ALDAX">      1.00000000</i>
   <i name="AGGAX">      1.00000000</i>
   <i name="ALDAC">      1.00000000</i>
   <i name="AGGAC">      1.00000000</i>
   <i type="int" name="NKREDX">     1</i>
   <i type="int" name="NKREDY">     1</i>
   <i type="int" name="NKREDZ">     1</i>
   <i type="logical" name="SHIFTRED"> F  </i>
   <i type="logical" name="ODDONLY"> F  </i>
   <i type="logical" name="EVENONLY"> F  </i>
   <i type="int" name="LMAXFOCK">     0</i>
   <i type="int" name="NMAXFOCKAE">     0</i>
   <i type="logical" name="LFOCKAEDFT"> F  </i>
   <i name="HFSCREEN">      0.00000000</i>
   <i name="HFSCREENC">      0.00000000</i>
   <i type="int" name="NBANDSGWLOW">     0</i>
  </separator>
  <separator name="vdW DFT" >
   <i type="logical" name="LUSE_VDW"> F  </i>
   <i name="Zab_VDW">     -0.84910000</i>
   <i name="PARAM1">      0.12340000</i>
   <i name="PARAM2">      1.00000000</i>
   <i name="PARAM3">      0.00000000</i>
  </separator>
  <separator name="model GW" >
   <i type="int" name="MODEL_GW">     0</i>
   <i name="MODEL_EPS0">    135.00000000</i>
   <i name="MODEL_ALPHA">      1.00000000</i>
  </separator>
  <separator name="linear response parameters" >
   <i type="logical" name="LEPSILON"> F  </i>
   <i type="logical" name="LRPA"> F  </i>
   <i type="logical" name="LNABLA"> F  </i>
   <i type="logical" name="LVEL"> F  </i>
   <i type="int" name="KINTER">     0</i>
   <i name="CSHIFT">      0.10000000</i>
   <i name="OMEGAMAX">     -1.00000000</i>
   <i name="DEG_THRESHOLD">      0.00200000</i>
   <i name="RTIME">     -0.10000000</i>
   <i name="WPLASMAI">      0.00000000</i>
   <v name="DFIELD">      0.00000000      0.00000000      0.00000000</v>
   <v name="WPLASMA">      0.00000000      0.00000000      0.00000000      0.00000000      0.00000000      0.00000000      0.00000000      0.00000000      0.00000000</v>
  </separator>
  <separator name="orbital magnetization" >
   <i type="logical" name="NUCIND"> F  </i>
   <v name="MAGPOS">      0.00000000      0.00000000      0.00000000</v>
   <i type="logical" name="LNICSALL"> T  </i>
   <i type="logical" name="ORBITALMAG"> F  </i>
   <i type="logical" name="LMAGBLOCH"> F  </i>
   <i type="logical" name="LCHIMAG"> F  </i>
   <i type="logical" name="LGAUGE"> T  </i>
   <i type="int" name="MAGATOM">     0</i>
   <v name="MAGDIPOL">      0.00000000      0.00000000      0.00000000</v>
   <v name="AVECCONST">      0.00000000      0.00000000      0.00000000</v>
  </separator>
  <separator name="response functions" >
   <i type="logical" name="LADDER"> F  </i>
   <i type="logical" name="LRPAFORCE"> F  </i>
   <i type="logical" name="LFXC"> F  </i>
   <i type="logical" name="LHARTREE"> T  </i>
   <i type="int" name="IBSE">     0</i>
   <v type="int" name="KPOINT">    -1     0     0     0</v>
   <i type="logical" name="LTCTE"> F  </i>
   <i type="logical" name="LTETE"> F  </i>
   <i type="logical" name="LTRIPLET"> F  </i>
   <i type="logical" name="LFXCEPS"> F  </i>
   <i type="logical" name="LFXHEG"> F  </i>
   <i type="int" name="NATURALO">     2</i>
   <i type="logical" name="L2ORDER"> F  </i>
   <i type="logical" name="LMP2LT"> F  </i>
   <i type="logical" name="LUSEW"> F  </i>
   <i name="ENCUTGW">     -2.00000000</i>
   <i name="ENCUTGWSOFT">     -2.00000000</i>
   <i name="ENCUTLF">     -1.00000000</i>
   <i type="int" name="LMAXMP2">    -1</i>
   <i name="SCISSOR">      0.00000000</i>
   <i type="int" name="NOMEGA">     0</i>
   <i type="int" name="NOMEGAR">     0</i>
   <i type="int" name="NBANDSGW">    -1</i>
   <i type="int" name="NBANDSO">    -1</i>
   <i type="int" name="NBANDSV">    -1</i>
   <i type="int" name="NELM">   300</i>
   <i type="int" name="NELMHF">     1</i>
   <i type="int" name="DIM">     3</i>
   <i type="int" name="ANTIRES">     0</i>
   <i name="OMEGAMAX">    -30.00000000</i>
   <i name="OMEGAMIN">    -30.00000000</i>
   <i name="OMEGATL">   -200.00000000</i>
   <i type="int" name="OMEGAGRID">   140</i>
   <i name="CSHIFT">     -0.10000000</i>
   <i type="logical" name="SELFENERGY"> F  </i>
   <i type="logical" name="LSPECTRAL"> F  </i>
   <i type="logical" name="LSPECTRALGW"> F  </i>
   <i type="logical" name="LSINGLES"> F  </i>
   <i type="logical" name="LFERMIGW"> F  </i>
   <i type="logical" name="ODDONLYGW"> F  </i>
   <i type="logical" name="EVENONLYGW"> F  </i>
   <i type="int" name="NKREDLFX">     1</i>
   <i type="int" name="NKREDLFY">     1</i>
   <i type="int" name="NKREDLFZ">     1</i>
   <i type="int" name="MAXMEM">  2800</i>
   <i type="int" name="TELESCOPE">     0</i>
   <i type="int" name="TAUPAR">     1</i>
   <i type="int" name="OMEGAPAR">    -1</i>
   <i name="LAMBDA">      1.00000000</i>
  </separator>
  <separator name="External order field" >
   <i name="OFIELD_KAPPA">      0.00000000</i>
   <v name="OFIELD_K">      0.00000000      0.00000000      0.00000000</v>
   <i name="OFIELD_Q6_NEAR">      0.00000000</i>
   <i name="OFIELD_Q6_FAR">      0.00000000</i>
   <i name="OFIELD_A">      0.00000000</i>
  </separator>
 </parameters>
 <atominfo>
  <atoms>      15 </atoms>
  <types>       3 </types>
  <array name="atoms" >
   <dimension dim="1">ion</dimension>
   <field type="string">element</field>
   <field type="int">atomtype</field>
   <set>
    <rc><c>Cu</c><c>   1</c></rc>
    <rc><c>Cu</c><c>   1</c></rc>
    <rc><c>Cu</c><c>   1</c></rc>
    <rc><c>Cu</c><c>   1</c></rc>
    <rc><c>Cu</c><c>   1</c></rc>
    <rc><c>Cu</c><c>   1</c></rc>
    <rc><c>Cu</c><c>   1</c></rc>
    <rc><c>Cu</c><c>   1</c></rc>
    <rc><c>Cu</c><c>   1</c></rc>
    <rc><c>Cu</c><c>   1</c></rc>
    <rc><c>Cu</c><c>   1</c></rc>
    <rc><c>Cu</c><c>   1</c></rc>
    <rc><c>Cu</c><c>   1</c></rc>
    <rc><c>C </c><c>   2</c></rc>
    <rc><c>O </c><c>   3</c></rc>
   </set>
  </array>
  <array name="atomtypes" >
   <dimension dim="1">type</dimension>
   <field type="int">atomspertype</field>
   <field type="string">element</field>
   <field>mass</field>
   <field>valence</field>
   <field type="string">pseudopotential</field>
   <set>
    <rc><c>  13</c><c>Cu</c><c>     63.54600000</c><c>     11.00000000</c><c>  PAW_PBE Cu 22Jun2005                  </c></rc>
    <rc><c>   1</c><c>C </c><c>     12.01100000</c><c>      4.00000000</c><c>  PAW_PBE C 08Apr2002                   </c></rc>
    <rc><c>   1</c><c>O </c><c>     16.00000000</c><c>      6.00000000</c><c>  PAW_PBE O 08Apr2002                   </c></rc>
   </set>
  </array>
 </atominfo>
 <structure name="initialpos" >
  <crystal>
   <varray name="basis" >
    <v>      15.00000000       0.00000000       0.00000000 </v>
    <v>       0.00000000      15.00000000       0.00000000 </v>
    <v>       0.00000000       0.00000000      15.00000000 </v>
   </varray>
   <i name="volume">   3375.00000000 </i>
   <varray name="rec_basis" >
    <v>       0.06666667       0.00000000       0.00000000 </v>
    <v>       0.00000000       0.06666667       0.00000000 </v>
    <v>       0.00000000       0.00000000       0.06666667 </v>
   </varray>
  </crystal>
  <varray name="positions" >
   <v>       0.29234533       0.41495333       0.58077200 </v>
   <v>       0.37174667       0.54050733       0.49395867 </v>
   <v>       0.39655200       0.29801800       0.57075600 </v>
   <v>       0.54395267       0.51196867       0.46594733 </v>
   <v>       0.54885133       0.35031267       0.50235133 </v>
   <v>       0.45350133       0.43299133       0.61084133 </v>
   <v>       0.41723000       0.40317267       0.44994267 </v>
   <v>       0.21391000       0.55215733       0.53300667 </v>
   <v>       0.32896867       0.54469400       0.64825800 </v>
   <v>       0.36155600       0.67364000       0.57353667 </v>
   <v>       0.48866000       0.65821467       0.48145533 </v>
   <v>       0.61935400       0.50501467       0.61532600 </v>
   <v>       0.48330400       0.58261733       0.62465867 </v>
   <v>       0.73756000       0.51715400       0.65321467 </v>
   <v>       0.80676667       0.54913467       0.66088400 </v>
  </varray>
 </structure>
 <calculation>
  <scstep>
   <time name="dav">    7.49    7.50</time>
   <time name="total">    8.69    8.70</time>
   <energy>
    <i name="alphaZ">     41.16232785 </i>
    <i name="ewald">  16483.37137494 </i>
    <i name="hartreedc"> -33500.29919969 </i>
    <i name="XCdc">    623.68652631 </i>
    <i name="pawpsdc">  16421.75059358 </i>
    <i name="pawaedc"> -17800.06104309 </i>
    <i name="eentropy">      0.02795370 </i>
    <i name="bandstr">    189.04775842 </i>
    <i name="atom">  18662.21924712 </i>
    <i name="e_fr_energy">   1120.90553913 </i>
    <i name="e_wo_entrp">   1120.87758543 </i>
    <i name="e_0_energy">   1120.89622123 </i>
   </energy>
  </scstep>
  <scstep>
   <time name="dav">    7.42    7.43</time>
   <time name="total">    7.42    7.43</time>
   <energy>
    <i name="e_fr_energy">     89.09619111 </i>
    <i name="e_wo_entrp">     89.09023758 </i>
    <i name="e_0_energy">     89.09420660 </i>
   </energy>
  </scstep>
  <scstep>
   <time name="dav">   11.55   11.55</time>
   <time name="total">   11.55   11.55</time>
   <energy>
    <i name="e_fr_energy">    -32.78605299 </i>
    <i name="e_wo_entrp">    -32.79392792 </i>
    <i name="e_0_energy">    -32.78867797 </i>
   </energy>
  </scstep>
  <scstep>
   <time name="dav">   10.12   10.13</time>
   <time name="total">   10.12   10.13</time>
   <energy>
    <i name="e_fr_energy">    -54.88314413 </i>
    <i name="e_wo_entrp">    -54.89254318 </i>
    <i name="e_0_energy">    -54.88627714 </i>
   </energy>
  </scstep>
  <scstep>
   <time name="dav">   11.94   11.95</time>
   <time name="total">   12.62   12.63</time>
   <energy>
    <i name="e_fr_energy">    -56.42048229 </i>
    <i name="e_wo_entrp">    -56.43048548 </i>
    <i name="e_0_energy">    -56.42381669 </i>
   </energy>
  </scstep>
  <scstep>
   <time name="diag">    1.10    1.10</time>
   <time name="diis">    6.88    6.88</time>
   <time name="orth">    0.06    0.06</time>
   <time name="total">    9.89    9.90</time>
   <energy>
    <i name="e_fr_energy">    -55.40892359 </i>
    <i name="e_wo_entrp">    -55.41472561 </i>
    <i name="e_0_energy">    -55.41085760 </i>
   </energy>
  </scstep>
  <scstep>
   <time name="diag">    1.10    1.10</time>
   <time name="diis">    6.73    6.73</time>
   <time name="orth">    0.06    0.06</time>
   <time name="total">    9.72    9.73</time>
   <energy>
    <i name="e_fr_energy">    -48.48269092 </i>
    <i name="e_wo_entrp">    -48.48875964 </i>
    <i name="e_0_energy">    -48.48471383 </i>
   </energy>
  </scstep>
  <scstep>
   <time name="diag">    1.10    1.10</time>
   <time name="diis">    6.76    6.76</time>
   <time name="orth">    0.06    0.06</time>
   <time name="total">    9.76    9.77</time>
   <energy>
    <i name="e_fr_energy">    -48.24057076 </i>
    <i name="e_wo_entrp">    -48.24735441 </i>
    <i name="e_0_energy">    -48.24283198 </i>
   </energy>
  </scstep>
  <scstep>
   <time name="diag">    1.10    1.10</time>
   <time name="diis">    6.63    6.64</time>
   <time name="orth">    0.06    0.06</time>
   <time name="total">    9.64    9.65</time>
   <energy>
    <i name="e_fr_energy">    -48.18882346 </i>
    <i name="e_wo_entrp">    -48.19554362 </i>
    <i name="e_0_energy">    -48.19106352 </i>
   </energy>
  </scstep>
  <scstep>
   <time name="diag">    1.10    1.10</time>
   <time name="diis">    6.72    6.72</time>
   <time name="orth">    0.06    0.06</time>
   <time name="total">    9.73    9.73</time>
   <energy>
    <i name="e_fr_energy">    -48.12608540 </i>
    <i name="e_wo_entrp">    -48.13274065 </i>
    <i name="e_0_energy">    -48.12830382 </i>
   </energy>
  </scstep>
  <scstep>
   <time name="diag">    1.10    1.10</time>
   <time name="diis">    6.58    6.58</time>
   <time name="orth">    0.06    0.06</time>
   <time name="total">    9.60    9.60</time>
   <energy>
    <i name="e_fr_energy">    -48.11545005 </i>
    <i name="e_wo_entrp">    -48.12213671 </i>
    <i name="e_0_energy">    -48.11767894 </i>
   </energy>
  </scstep>
  <scstep>
   <time name="diag">    1.10    1.10</time>
   <time name="diis">    6.79    6.79</time>
   <time name="orth">    0.06    0.06</time>
   <time name="total">    9.80    9.80</time>
   <energy>
    <i name="e_fr_energy">    -48.11287373 </i>
    <i name="e_wo_entrp">    -48.11962293 </i>
    <i name="e_0_energy">    -48.11512346 </i>
   </energy>
  </scstep>
  <scstep>
   <time name="diag">    1.10    1.10</time>
   <time name="diis">    7.06    7.07</time>
   <time name="orth">    0.06    0.06</time>
   <time name="total">   10.07   10.07</time>
   <energy>
    <i name="e_fr_energy">    -48.11184527 </i>
    <i name="e_wo_entrp">    -48.11857623 </i>
    <i name="e_0_energy">    -48.11408892 </i>
   </energy>
  </scstep>
  <scstep>
   <time name="diag">    1.09    1.10</time>
   <time name="diis">    6.90    6.90</time>
   <time name="orth">    0.06    0.06</time>
   <time name="total">    9.91    9.92</time>
   <energy>
    <i name="e_fr_energy">    -48.11297636 </i>
    <i name="e_wo_entrp">    -48.11972762 </i>
    <i name="e_0_energy">    -48.11522678 </i>
   </energy>
  </scstep>
  <scstep>
   <time name="diag">    1.10    1.10</time>
   <time name="diis">    6.61    6.61</time>
   <time name="orth">    0.07    0.07</time>
   <time name="total">    9.62    9.63</time>
   <energy>
    <i name="e_fr_energy">    -48.11424439 </i>
    <i name="e_wo_entrp">    -48.12099809 </i>
    <i name="e_0_energy">    -48.11649562 </i>
   </energy>
  </scstep>
  <scstep>
   <time name="diag">    1.10    1.10</time>
   <time name="diis">    6.26    6.27</time>
   <time name="orth">    0.07    0.07</time>
   <time name="total">    9.28    9.29</time>
   <energy>
    <i name="e_fr_energy">    -48.11576142 </i>
    <i name="e_wo_entrp">    -48.12252961 </i>
    <i name="e_0_energy">    -48.11801749 </i>
   </energy>
  </scstep>
  <scstep>
   <time name="diag">    1.10    1.10</time>
   <time name="diis">    6.48    6.49</time>
   <time name="orth">    0.07    0.07</time>
   <time name="total">    9.50    9.51</time>
   <energy>
    <i name="e_fr_energy">    -48.11758149 </i>
    <i name="e_wo_entrp">    -48.12435064 </i>
    <i name="e_0_energy">    -48.11983787 </i>
   </energy>
  </scstep>
  <scstep>
   <time name="diag">    1.10    1.10</time>
   <time name="diis">    6.69    6.70</time>
   <time name="orth">    0.07    0.07</time>
   <time name="total">    9.71    9.72</time>
   <energy>
    <i name="e_fr_energy">    -48.11851992 </i>
    <i name="e_wo_entrp">    -48.12529477 </i>
    <i name="e_0_energy">    -48.12077821 </i>
   </energy>
  </scstep>
  <scstep>
   <time name="diag">    1.10    1.10</time>
   <time name="diis">    6.65    6.65</time>
   <time name="orth">    0.07    0.07</time>
   <time name="total">    9.67    9.68</time>
   <energy>
    <i name="e_fr_energy">    -48.11929544 </i>
    <i name="e_wo_entrp">    -48.12606873 </i>
    <i name="e_0_energy">    -48.12155320 </i>
   </energy>
  </scstep>
  <scstep>
   <time name="diag">    1.10    1.10</time>
   <time name="diis">    6.85    6.85</time>
   <time name="orth">    0.07    0.07</time>
   <time name="total">    9.87    9.88</time>
   <energy>
    <i name="e_fr_energy">    -48.11984277 </i>
    <i name="e_wo_entrp">    -48.12661520 </i>
    <i name="e_0_energy">    -48.12210025 </i>
   </energy>
  </scstep>
  <scstep>
   <time name="diag">    1.10    1.10</time>
   <time name="diis">    6.45    6.45</time>
   <time name="orth">    0.07    0.07</time>
   <time name="total">    9.47    9.48</time>
   <energy>
    <i name="e_fr_energy">    -48.12022849 </i>
    <i name="e_wo_entrp">    -48.12699917 </i>
    <i name="e_0_energy">    -48.12248538 </i>
   </energy>
  </scstep>
  <scstep>
   <time name="diag">    1.10    1.10</time>
   <time name="diis">    6.41    6.42</time>
   <time name="orth">    0.07    0.07</time>
   <time name="total">    9.44    9.44</time>
   <energy>
    <i name="e_fr_energy">    -48.12047763 </i>
    <i name="e_wo_entrp">    -48.12724877 </i>
    <i name="e_0_energy">    -48.12273467 </i>
   </energy>
  </scstep>
  <scstep>
   <time name="diag">    1.10    1.10</time>
   <time name="diis">    6.70    6.72</time>
   <time name="orth">    0.07    0.07</time>
   <time name="total">    9.71    9.75</time>
   <energy>
    <i name="e_fr_energy">    -48.12059051 </i>
    <i name="e_wo_entrp">    -48.12736268 </i>
    <i name="e_0_energy">    -48.12284790 </i>
   </energy>
  </scstep>
  <scstep>
   <time name="diag">    1.10    1.10</time>
   <time name="diis">    6.46    6.47</time>
   <time name="orth">    0.07    0.07</time>
   <time name="total">    9.49    9.50</time>
   <energy>
    <i name="e_fr_energy">    -48.12069514 </i>
    <i name="e_wo_entrp">    -48.12746718 </i>
    <i name="e_0_energy">    -48.12295249 </i>
   </energy>
  </scstep>
  <scstep>
   <time name="diag">    1.10    1.10</time>
   <time name="diis">    6.35    6.35</time>
   <time name="orth">    0.06    0.06</time>
   <time name="total">    9.38    9.38</time>
   <energy>
    <i name="e_fr_energy">    -48.12075790 </i>
    <i name="e_wo_entrp">    -48.12752960 </i>
    <i name="e_0_energy">    -48.12301513 </i>
   </energy>
  </scstep>
  <scstep>
   <time name="diag">    1.10    1.10</time>
   <time name="diis">    6.28    6.28</time>
   <time name="orth">    0.06    0.06</time>
   <time name="total">    9.31    9.31</time>
   <energy>
    <i name="e_fr_energy">    -48.12078681 </i>
    <i name="e_wo_entrp">    -48.12755835 </i>
    <i name="e_0_energy">    -48.12304399 </i>
   </energy>
  </scstep>
  <scstep>
   <time name="diag">    1.10    1.10</time>
   <time name="diis">    4.62    4.62</time>
   <time name="orth">    0.06    0.06</time>
   <time name="total">    7.65    7.66</time>
   <energy>
    <i name="e_fr_energy">    -48.12079748 </i>
    <i name="e_wo_entrp">    -48.12756910 </i>
    <i name="e_0_energy">    -48.12305468 </i>
   </energy>
  </scstep>
  <scstep>
   <time name="diag">    1.10    1.10</time>
   <time name="diis">    4.43    4.43</time>
   <time name="orth">    0.06    0.06</time>
   <time name="total">    7.46    7.47</time>
   <energy>
    <i name="e_fr_energy">    -48.12080334 </i>
    <i name="e_wo_entrp">    -48.12757497 </i>
    <i name="e_0_energy">    -48.12306055 </i>
   </energy>
  </scstep>
  <scstep>
   <time name="diag">    1.10    1.10</time>
   <time name="diis">    4.38    4.38</time>
   <time name="orth">    0.06    0.06</time>
   <time name="total">    7.43    7.43</time>
   <energy>
    <i name="e_fr_energy">    -48.12080583 </i>
    <i name="e_wo_entrp">    -48.12757751 </i>
    <i name="e_0_energy">    -48.12306306 </i>
   </energy>
  </scstep>
  <scstep>
   <time name="diag">    1.10    1.10</time>
   <time name="diis">    4.26    4.27</time>
   <time name="orth">    0.06    0.06</time>
   <time name="total">    7.31    7.32</time>
   <energy>
    <i name="e_fr_energy">    -48.12080747 </i>
    <i name="e_wo_entrp">    -48.12757903 </i>
    <i name="e_0_energy">    -48.12306465 </i>
   </energy>
  </scstep>
  <scstep>
   <time name="diag">    1.10    1.10</time>
   <time name="diis">    4.32    4.32</time>
   <time name="orth">    0.06    0.06</time>
   <time name="total">    7.37    7.38</time>
   <energy>
    <i name="e_fr_energy">    -48.12080825 </i>
    <i name="e_wo_entrp">    -48.12757981 </i>
    <i name="e_0_energy">    -48.12306543 </i>
   </energy>
  </scstep>
  <scstep>
   <time name="diag">    1.10    1.10</time>
   <time name="diis">    3.94    3.94</time>
   <time name="orth">    0.06    0.06</time>
   <time name="total">    7.00    7.01</time>
   <energy>
    <i name="e_fr_energy">    -48.12080886 </i>
    <i name="e_wo_entrp">    -48.12758041 </i>
    <i name="e_0_energy">    -48.12306604 </i>
   </energy>
  </scstep>
  <scstep>
   <time name="diag">    1.10    1.10</time>
   <time name="diis">    4.15    4.15</time>
   <time name="orth">    0.06    0.06</time>
   <time name="total">    7.22    7.22</time>
   <energy>
    <i name="e_fr_energy">    -48.12080929 </i>
    <i name="e_wo_entrp">    -48.12758084 </i>
    <i name="e_0_energy">    -48.12306648 </i>
   </energy>
  </scstep>
  <scstep>
   <time name="diag">    1.10    1.10</time>
   <time name="diis">    3.87    3.87</time>
   <time name="orth">    0.06    0.06</time>
   <time name="total">    6.94    6.94</time>
   <energy>
    <i name="e_fr_energy">    -48.12080965 </i>
    <i name="e_wo_entrp">    -48.12758122 </i>
    <i name="e_0_energy">    -48.12306684 </i>
   </energy>
  </scstep>
  <scstep>
   <time name="diag">    1.10    1.10</time>
   <time name="diis">    3.73    3.73</time>
   <time name="orth">    0.06    0.06</time>
   <time name="total">    6.80    6.81</time>
   <energy>
    <i name="e_fr_energy">    -48.12080992 </i>
    <i name="e_wo_entrp">    -48.12758148 </i>
    <i name="e_0_energy">    -48.12306711 </i>
   </energy>
  </scstep>
  <scstep>
   <time name="diag">    1.10    1.10</time>
   <time name="diis">    3.66    3.66</time>
   <time name="orth">    0.06    0.06</time>
   <time name="total">    6.75    6.75</time>
   <energy>
    <i name="e_fr_energy">    -48.12081008 </i>
    <i name="e_wo_entrp">    -48.12758164 </i>
    <i name="e_0_energy">    -48.12306727 </i>
   </energy>
  </scstep>
  <scstep>
   <time name="diag">    1.10    1.10</time>
   <time name="diis">    3.42    3.43</time>
   <time name="orth">    0.06    0.06</time>
   <time name="total">    5.77    5.77</time>
   <energy>
    <i name="alphaZ">     41.16232785 </i>
    <i name="ewald">  16483.37137494 </i>
    <i name="hartreedc"> -33459.31161895 </i>
    <i name="XCdc">    615.69110632 </i>
    <i name="pawpsdc">  17710.26707178 </i>
    <i name="pawaedc"> -19110.17193178 </i>
    <i name="eentropy">      0.00677156 </i>
    <i name="bandstr">   -991.35515901 </i>
    <i name="atom">  18662.21924712 </i>
    <i name="e_fr_energy">    -48.12081017 </i>
    <i name="e_wo_entrp">    -48.12758173 </i>
    <i name="e_0_energy">    -48.12306736 </i>
   </energy>
  </scstep>
  <structure>
   <crystal>
    <varray name="basis" >
     <v>      15.00000000       0.00000000       0.00000000 </v>
     <v>       0.00000000      15.00000000       0.00000000 </v>
     <v>       0.00000000       0.00000000      15.00000000 </v>
    </varray>
    <i name="volume">   3375.00000000 </i>
    <varray name="rec_basis" >
     <v>       0.06666667       0.00000000       0.00000000 </v>
     <v>       0.00000000       0.06666667       0.00000000 </v>
     <v>       0.00000000       0.00000000       0.06666667 </v>
    </varray>
   </crystal>
   <varray name="positions" >
    <v>       0.29234533       0.41495333       0.58077200 </v>
    <v>       0.37174667       0.54050733       0.49395867 </v>
    <v>       0.39655200       0.29801800       0.57075600 </v>
    <v>       0.54395267       0.51196867       0.46594733 </v>
    <v>       0.54885133       0.35031267       0.50235133 </v>
    <v>       0.45350133       0.43299133       0.61084133 </v>
    <v>       0.41723000       0.40317267       0.44994267 </v>
    <v>       0.21391000       0.55215733       0.53300667 </v>
    <v>       0.32896867       0.54469400       0.64825800 </v>
    <v>       0.36155600       0.67364000       0.57353667 </v>
    <v>       0.48866000       0.65821467       0.48145533 </v>
    <v>       0.61935400       0.50501467       0.61532600 </v>
    <v>       0.48330400       0.58261733       0.62465867 </v>
    <v>       0.73756000       0.51715400       0.65321467 </v>
    <v>       0.80676667       0.54913467       0.66088400 </v>
   </varray>
  </structure>
  <varray name="forces" >
   <v>      -0.28453656      -0.47876604      -0.81163174 </v>
   <v>       0.03857856       0.46510379      -0.16021257 </v>
   <v>       0.12798150      -0.81342047      -0.28162812 </v>
   <v>      -0.42977203      -0.43382954       0.75233049 </v>
   <v>       0.52083614      -0.03838069       0.61233879 </v>
   <v>       0.59470825       0.09590811      -0.19094278 </v>
   <v>      -0.39218085      -0.38420281      -0.15638356 </v>
   <v>       0.40920708       0.03567659       0.36722067 </v>
   <v>      -0.10460876       0.15811066       0.74796579 </v>
   <v>      -0.52232475       1.09443310      -0.05013036 </v>
   <v>       0.11496180       0.15852133       0.00500052 </v>
   <v>       0.22049834      -0.65287185      -0.28606313 </v>
   <v>       0.11622972       0.69268111      -0.41435478 </v>
   <v>      -1.06140247      -0.02580347      -0.25692562 </v>
   <v>       0.65182403       0.12684018       0.12341640 </v>
  </varray>
  <varray name="stress" >
   <v>      -0.07992915      -0.83192935       0.18998200 </v>
   <v>      -0.83192936       3.77556952       0.53649366 </v>
   <v>       0.18998201       0.53649365      -0.81263491 </v>
  </varray>
  <energy>
   <i name="e_fr_energy">    -48.12081017 </i>
   <i name="e_wo_entrp">    -48.12306736 </i>
   <i name="e_0_energy">      0.00677156 </i>
  </energy>
  <time name="totalsc">  341.50  341.76</time>
  <eigenvalues>
   <array>
    <dimension dim="1">band</dimension>
    <dimension dim="2">kpoint</dimension>
    <dimension dim="3">spin</dimension>
    <field>eigene</field>
    <field>occ</field>
    <set>
     <set comment="spin 1">
      <set comment="kpoint 1">
       <r>  -28.6768    1.0000 </r>
       <r>  -13.8625    1.0000 </r>
       <r>  -11.4378    1.0000 </r>
       <r>  -11.2853    1.0000 </r>
       <r>  -10.9332    1.0000 </r>
       <r>  -10.1678    1.0000 </r>
       <r>   -8.5981    1.0000 </r>
       <r>   -8.2507    1.0000 </r>
       <r>   -7.7888    1.0000 </r>
       <r>   -7.5315    1.0000 </r>
       <r>   -7.4458    1.0000 </r>
       <r>   -7.3962    1.0000 </r>
       <r>   -7.1779    1.0000 </r>
       <r>   -7.1595    1.0000 </r>
       <r>   -7.0793    1.0000 </r>
       <r>   -6.9469    1.0000 </r>
       <r>   -6.8793    1.0000 </r>
       <r>   -6.7795    1.0000 </r>
       <r>   -6.7430    1.0000 </r>
       <r>   -6.6909    1.0000 </r>
       <r>   -6.6653    1.0000 </r>
       <r>   -6.6303    1.0000 </r>
       <r>   -6.5745    1.0000 </r>
       <r>   -6.5333    1.0000 </r>
       <r>   -6.5118    1.0000 </r>
       <r>   -6.3789    1.0000 </r>
       <r>   -6.3307    1.0000 </r>
       <r>   -6.3059    1.0000 </r>
       <r>   -6.2932    1.0000 </r>
       <r>   -6.2367    1.0000 </r>
       <r>   -6.1799    1.0000 </r>
       <r>   -6.1350    1.0000 </r>
       <r>   -6.0345    1.0000 </r>
       <r>   -6.0069    1.0000 </r>
       <r>   -5.9290    1.0000 </r>
       <r>   -5.8667    1.0000 </r>
       <r>   -5.8129    1.0000 </r>
       <r>   -5.7455    1.0000 </r>
       <r>   -5.7216    1.0000 </r>
       <r>   -5.6148    1.0000 </r>
       <r>   -5.5619    1.0000 </r>
       <r>   -5.5261    1.0000 </r>
       <r>   -5.5011    1.0000 </r>
       <r>   -5.4901    1.0000 </r>
       <r>   -5.4732    1.0000 </r>
       <r>   -5.4641    1.0000 </r>
       <r>   -5.3889    1.0000 </r>
       <r>   -5.3595    1.0000 </r>
       <r>   -5.3416    1.0000 </r>
       <r>   -5.3226    1.0000 </r>
       <r>   -5.3181    1.0000 </r>
       <r>   -5.2947    1.0000 </r>
       <r>   -5.2649    1.0000 </r>
       <r>   -5.2233    1.0000 </r>
       <r>   -5.2080    1.0000 </r>
       <r>   -5.1802    1.0000 </r>
       <r>   -5.1323    1.0000 </r>
       <r>   -5.1221    1.0000 </r>
       <r>   -5.0973    1.0000 </r>
       <r>   -5.0494    1.0000 </r>
       <r>   -5.0395    1.0000 </r>
       <r>   -5.0212    1.0000 </r>
       <r>   -5.0093    1.0000 </r>
       <r>   -4.9851    1.0000 </r>
       <r>   -4.9604    1.0000 </r>
       <r>   -4.9456    1.0000 </r>
       <r>   -4.8759    1.0000 </r>
       <r>   -4.8705    1.0000 </r>
       <r>   -4.8383    1.0000 </r>
       <r>   -4.8074    1.0000 </r>
       <r>   -4.7900    1.0000 </r>
       <r>   -4.7650    1.0000 </r>
       <r>   -4.7035    1.0000 </r>
       <r>   -4.5642    1.0000 </r>
       <r>   -4.1715    1.0000 </r>
       <r>   -4.0409    1.0000 </r>
       <r>   -3.6108    1.0000 </r>
       <r>   -3.1190   -0.0000 </r>
       <r>   -2.9344   -0.0000 </r>
       <r>   -2.5329   -0.0000 </r>
       <r>   -2.1789   -0.0000 </r>
       <r>   -1.9076   -0.0000 </r>
       <r>   -1.7839   -0.0000 </r>
       <r>   -1.6483   -0.0000 </r>
       <r>   -1.5541   -0.0000 </r>
       <r>   -1.1994   -0.0000 </r>
       <r>   -0.9832   -0.0000 </r>
       <r>   -0.8145   -0.0000 </r>
       <r>   -0.4067    0.0000 </r>
       <r>   -0.1034    0.0000 </r>
       <r>   -0.0479    0.0000 </r>
       <r>    0.2169    0.0000 </r>
      </set>
     </set>
     <set comment="spin 2">
      <set comment="kpoint 1">
       <r>  -28.6529    1.0000 </r>
       <r>  -13.8208    1.0000 </r>
       <r>  -11.3931    1.0000 </r>
       <r>  -11.2664    1.0000 </r>
       <r>  -10.8672    1.0000 </r>
       <r>  -10.1221    1.0000 </r>
       <r>   -8.5775    1.0000 </r>
       <r>   -8.2132    1.0000 </r>
       <r>   -7.7442    1.0000 </r>
       <r>   -7.5036    1.0000 </r>
       <r>   -7.4173    1.0000 </r>
       <r>   -7.3518    1.0000 </r>
       <r>   -7.1491    1.0000 </r>
       <r>   -7.1304    1.0000 </r>
       <r>   -7.0587    1.0000 </r>
       <r>   -6.9223    1.0000 </r>
       <r>   -6.8493    1.0000 </r>
       <r>   -6.7451    1.0000 </r>
       <r>   -6.7192    1.0000 </r>
       <r>   -6.6637    1.0000 </r>
       <r>   -6.6445    1.0000 </r>
       <r>   -6.5988    1.0000 </r>
       <r>   -6.5474    1.0000 </r>
       <r>   -6.5096    1.0000 </r>
       <r>   -6.4847    1.0000 </r>
       <r>   -6.3445    1.0000 </r>
       <r>   -6.3047    1.0000 </r>
       <r>   -6.2774    1.0000 </r>
       <r>   -6.2673    1.0000 </r>
       <r>   -6.2152    1.0000 </r>
       <r>   -6.1478    1.0000 </r>
       <r>   -6.1082    1.0000 </r>
       <r>   -6.0100    1.0000 </r>
       <r>   -5.9818    1.0000 </r>
       <r>   -5.9056    1.0000 </r>
       <r>   -5.8328    1.0000 </r>
       <r>   -5.7883    1.0000 </r>
       <r>   -5.7213    1.0000 </r>
       <r>   -5.6956    1.0000 </r>
       <r>   -5.5823    1.0000 </r>
       <r>   -5.5402    1.0000 </r>
       <r>   -5.4975    1.0000 </r>
       <r>   -5.4746    1.0000 </r>
       <r>   -5.4617    1.0000 </r>
       <r>   -5.4459    1.0000 </r>
       <r>   -5.4299    1.0000 </r>
       <r>   -5.3614    1.0000 </r>
       <r>   -5.3255    1.0000 </r>
       <r>   -5.3128    1.0000 </r>
       <r>   -5.2970    1.0000 </r>
       <r>   -5.2819    1.0000 </r>
       <r>   -5.2642    1.0000 </r>
       <r>   -5.2371    1.0000 </r>
       <r>   -5.1951    1.0000 </r>
       <r>   -5.1797    1.0000 </r>
       <r>   -5.1510    1.0000 </r>
       <r>   -5.1076    1.0000 </r>
       <r>   -5.0902    1.0000 </r>
       <r>   -5.0667    1.0000 </r>
       <r>   -5.0204    1.0000 </r>
       <r>   -5.0145    1.0000 </r>
       <r>   -4.9944    1.0000 </r>
       <r>   -4.9746    1.0000 </r>
       <r>   -4.9521    1.0000 </r>
       <r>   -4.9386    1.0000 </r>
       <r>   -4.9161    1.0000 </r>
       <r>   -4.8387    1.0000 </r>
       <r>   -4.8341    1.0000 </r>
       <r>   -4.8080    1.0000 </r>
       <r>   -4.7784    1.0000 </r>
       <r>   -4.7580    1.0000 </r>
       <r>   -4.7268    1.0000 </r>
       <r>   -4.6704    1.0000 </r>
       <r>   -4.5209    1.0000 </r>
       <r>   -4.1104    1.0066 </r>
       <r>   -3.9857    0.9934 </r>
       <r>   -3.4365   -0.0000 </r>
       <r>   -3.0669   -0.0000 </r>
       <r>   -2.8914   -0.0000 </r>
       <r>   -2.4441   -0.0000 </r>
       <r>   -2.1016   -0.0000 </r>
       <r>   -1.8279   -0.0000 </r>
       <r>   -1.7252   -0.0000 </r>
       <r>   -1.5902   -0.0000 </r>
       <r>   -1.4420   -0.0000 </r>
       <r>   -1.0576    0.0000 </r>
       <r>   -0.9017    0.0000 </r>
       <r>   -0.7652    0.0000 </r>
       <r>   -0.3176    0.0000 </r>
       <r>   -0.0337    0.0000 </r>
       <r>    0.0321    0.0000 </r>
       <r>    0.2752    0.0000 </r>
      </set>
     </set>
    </set>
   </array>
  </eigenvalues>
  <separator name="orbital magnetization" >
   <v name="MAGDIPOLOUT">      0.00000000      0.00000000      0.00000000</v>
  </separator>
  <dos>
   <i name="efermi">     -3.90436741 </i>
   <total>
    <array>
     <dimension dim="1">gridpoints</dimension>
     <dimension dim="2">spin</dimension>
     <field>energy</field>
     <field>total</field>
     <field>integrated</field>
     <set>
      <set comment="spin 1">
       <r>   -30.1244     0.0000     0.0000 </r>
       <r>   -30.0183     0.0000     0.0000 </r>
       <r>   -29.9121     0.0000     0.0000 </r>
       <r>   -29.8060     0.0000     0.0000 </r>
       <r>   -29.6998     0.0000     0.0000 </r>
       <r>   -29.5936     0.0000     0.0000 </r>
       <r>   -29.4875    -0.0000    -0.0000 </r>
       <r>   -29.3813    -0.0000    -0.0000 </r>
       <r>   -29.2752    -0.0000    -0.0000 </r>
       <r>   -29.1690    -0.0000    -0.0000 </r>
       <r>   -29.0629    -0.0000    -0.0000 </r>
       <r>   -28.9567    -0.0052    -0.0006 </r>
       <r>   -28.8505    -0.3143    -0.0339 </r>
       <r>   -28.7444     1.2418     0.0979 </r>
       <r>   -28.6382    14.1734     1.6025 </r>
       <r>   -28.5321     4.3078     2.0598 </r>
       <r>   -28.4259    -0.5426     2.0022 </r>
       <r>   -28.3198    -0.0209     2.0000 </r>
       <r>   -28.2136    -0.0001     2.0000 </r>
       <r>   -28.1074    -0.0000     2.0000 </r>
       <r>   -28.0013    -0.0000     2.0000 </r>
       <r>   -27.8951     0.0000     2.0000 </r>
       <r>   -27.7890     0.0000     2.0000 </r>
       <r>   -27.6828     0.0000     2.0000 </r>
       <r>   -27.5767     0.0000     2.0000 </r>
       <r>   -27.4705     0.0000     2.0000 </r>
       <r>   -27.3643     0.0000     2.0000 </r>
       <r>   -27.2582     0.0000     2.0000 </r>
       <r>   -27.1520     0.0000     2.0000 </r>
       <r>   -27.0459     0.0000     2.0000 </r>
       <r>   -26.9397     0.0000     2.0000 </r>
       <r>   -26.8336     0.0000     2.0000 </r>
       <r>   -26.7274     0.0000     2.0000 </r>
       <r>   -26.6212     0.0000     2.0000 </r>
       <r>   -26.5151     0.0000     2.0000 </r>
       <r>   -26.4089     0.0000     2.0000 </r>
       <r>   -26.3028     0.0000     2.0000 </r>
       <r>   -26.1966     0.0000     2.0000 </r>
       <r>   -26.0904     0.0000     2.0000 </r>
       <r>   -25.9843     0.0000     2.0000 </r>
       <r>   -25.8781     0.0000     2.0000 </r>
       <r>   -25.7720     0.0000     2.0000 </r>
       <r>   -25.6658     0.0000     2.0000 </r>
       <r>   -25.5597     0.0000     2.0000 </r>
       <r>   -25.4535     0.0000     2.0000 </r>
       <r>   -25.3473     0.0000     2.0000 </r>
       <r>   -25.2412     0.0000     2.0000 </r>
       <r>   -25.1350     0.0000     2.0000 </r>
       <r>   -25.0289     0.0000     2.0000 </r>
       <r>   -24.9227     0.0000     2.0000 </r>
       <r>   -24.8166     0.0000     2.0000 </r>
       <r>   -24.7104     0.0000     2.0000 </r>
       <r>   -24.6042     0.0000     2.0000 </r>
       <r>   -24.4981     0.0000     2.0000 </r>
       <r>   -24.3919     0.0000     2.0000 </r>
       <r>   -24.2858     0.0000     2.0000 </r>
       <r>   -24.1796     0.0000     2.0000 </r>
       <r>   -24.0735     0.0000     2.0000 </r>
       <r>   -23.9673     0.0000     2.0000 </r>
       <r>   -23.8611     0.0000     2.0000 </r>
       <r>   -23.7550     0.0000     2.0000 </r>
       <r>   -23.6488     0.0000     2.0000 </r>
       <r>   -23.5427     0.0000     2.0000 </r>
       <r>   -23.4365     0.0000     2.0000 </r>
       <r>   -23.3304     0.0000     2.0000 </r>
       <r>   -23.2242     0.0000     2.0000 </r>
       <r>   -23.1180     0.0000     2.0000 </r>
       <r>   -23.0119     0.0000     2.0000 </r>
       <r>   -22.9057     0.0000     2.0000 </r>
       <r>   -22.7996     0.0000     2.0000 </r>
       <r>   -22.6934     0.0000     2.0000 </r>
       <r>   -22.5873     0.0000     2.0000 </r>
       <r>   -22.4811     0.0000     2.0000 </r>
       <r>   -22.3749     0.0000     2.0000 </r>
       <r>   -22.2688     0.0000     2.0000 </r>
       <r>   -22.1626     0.0000     2.0000 </r>
       <r>   -22.0565     0.0000     2.0000 </r>
       <r>   -21.9503     0.0000     2.0000 </r>
       <r>   -21.8442     0.0000     2.0000 </r>
       <r>   -21.7380     0.0000     2.0000 </r>
       <r>   -21.6318     0.0000     2.0000 </r>
       <r>   -21.5257     0.0000     2.0000 </r>
       <r>   -21.4195     0.0000     2.0000 </r>
       <r>   -21.3134     0.0000     2.0000 </r>
       <r>   -21.2072     0.0000     2.0000 </r>
       <r>   -21.1011     0.0000     2.0000 </r>
       <r>   -20.9949     0.0000     2.0000 </r>
       <r>   -20.8887     0.0000     2.0000 </r>
       <r>   -20.7826     0.0000     2.0000 </r>
       <r>   -20.6764     0.0000     2.0000 </r>
       <r>   -20.5703     0.0000     2.0000 </r>
       <r>   -20.4641     0.0000     2.0000 </r>
       <r>   -20.3580     0.0000     2.0000 </r>
       <r>   -20.2518     0.0000     2.0000 </r>
       <r>   -20.1456     0.0000     2.0000 </r>
       <r>   -20.0395     0.0000     2.0000 </r>
       <r>   -19.9333     0.0000     2.0000 </r>
       <r>   -19.8272     0.0000     2.0000 </r>
       <r>   -19.7210     0.0000     2.0000 </r>
       <r>   -19.6149     0.0000     2.0000 </r>
       <r>   -19.5087     0.0000     2.0000 </r>
       <r>   -19.4025     0.0000     2.0000 </r>
       <r>   -19.2964     0.0000     2.0000 </r>
       <r>   -19.1902     0.0000     2.0000 </r>
       <r>   -19.0841     0.0000     2.0000 </r>
       <r>   -18.9779     0.0000     2.0000 </r>
       <r>   -18.8717     0.0000     2.0000 </r>
       <r>   -18.7656     0.0000     2.0000 </r>
       <r>   -18.6594     0.0000     2.0000 </r>
       <r>   -18.5533     0.0000     2.0000 </r>
       <r>   -18.4471     0.0000     2.0000 </r>
       <r>   -18.3410     0.0000     2.0000 </r>
       <r>   -18.2348     0.0000     2.0000 </r>
       <r>   -18.1286     0.0000     2.0000 </r>
       <r>   -18.0225     0.0000     2.0000 </r>
       <r>   -17.9163     0.0000     2.0000 </r>
       <r>   -17.8102     0.0000     2.0000 </r>
       <r>   -17.7040     0.0000     2.0000 </r>
       <r>   -17.5979     0.0000     2.0000 </r>
       <r>   -17.4917     0.0000     2.0000 </r>
       <r>   -17.3855     0.0000     2.0000 </r>
       <r>   -17.2794     0.0000     2.0000 </r>
       <r>   -17.1732     0.0000     2.0000 </r>
       <r>   -17.0671     0.0000     2.0000 </r>
       <r>   -16.9609     0.0000     2.0000 </r>
       <r>   -16.8548     0.0000     2.0000 </r>
       <r>   -16.7486     0.0000     2.0000 </r>
       <r>   -16.6424     0.0000     2.0000 </r>
       <r>   -16.5363     0.0000     2.0000 </r>
       <r>   -16.4301     0.0000     2.0000 </r>
       <r>   -16.3240     0.0000     2.0000 </r>
       <r>   -16.2178     0.0000     2.0000 </r>
       <r>   -16.1117     0.0000     2.0000 </r>
       <r>   -16.0055     0.0000     2.0000 </r>
       <r>   -15.8993     0.0000     2.0000 </r>
       <r>   -15.7932     0.0000     2.0000 </r>
       <r>   -15.6870     0.0000     2.0000 </r>
       <r>   -15.5809     0.0000     2.0000 </r>
       <r>   -15.4747     0.0000     2.0000 </r>
       <r>   -15.3686     0.0000     2.0000 </r>
       <r>   -15.2624     0.0000     2.0000 </r>
       <r>   -15.1562     0.0000     2.0000 </r>
       <r>   -15.0501     0.0000     2.0000 </r>
       <r>   -14.9439     0.0000     2.0000 </r>
       <r>   -14.8378     0.0000     2.0000 </r>
       <r>   -14.7316    -0.0000     2.0000 </r>
       <r>   -14.6255    -0.0000     2.0000 </r>
       <r>   -14.5193    -0.0000     2.0000 </r>
       <r>   -14.4131    -0.0000     2.0000 </r>
       <r>   -14.3070    -0.0000     2.0000 </r>
       <r>   -14.2008    -0.0002     2.0000 </r>
       <r>   -14.0947    -0.0464     1.9951 </r>
       <r>   -13.9885    -0.6179     1.9295 </r>
       <r>   -13.8824     6.9807     2.6705 </r>
       <r>   -13.7762    12.6062     4.0088 </r>
       <r>   -13.6700     0.1085     4.0203 </r>
       <r>   -13.5639    -0.1890     4.0002 </r>
       <r>   -13.4577    -0.0019     4.0000 </r>
       <r>   -13.3516    -0.0000     4.0000 </r>
       <r>   -13.2454    -0.0000     4.0000 </r>
       <r>   -13.1393     0.0000     4.0000 </r>
       <r>   -13.0331     0.0000     4.0000 </r>
       <r>   -12.9269     0.0000     4.0000 </r>
       <r>   -12.8208     0.0000     4.0000 </r>
       <r>   -12.7146     0.0000     4.0000 </r>
       <r>   -12.6085     0.0000     4.0000 </r>
       <r>   -12.5023     0.0000     4.0000 </r>
       <r>   -12.3962     0.0000     4.0000 </r>
       <r>   -12.2900    -0.0000     4.0000 </r>
       <r>   -12.1838    -0.0000     4.0000 </r>
       <r>   -12.0777    -0.0000     4.0000 </r>
       <r>   -11.9715    -0.0000     4.0000 </r>
       <r>   -11.8654    -0.0000     4.0000 </r>
       <r>   -11.7592    -0.0005     3.9999 </r>
       <r>   -11.6530    -0.0886     3.9905 </r>
       <r>   -11.5469    -0.5303     3.9342 </r>
       <r>   -11.4407     9.0896     4.8992 </r>
       <r>   -11.3346    13.4201     6.3238 </r>
       <r>   -11.2284    14.1158     7.8223 </r>
       <r>   -11.1223     1.8716     8.0210 </r>
       <r>   -11.0161    -0.1325     8.0069 </r>
       <r>   -10.9099    12.9598     9.3827 </r>
       <r>   -10.8038     6.4701    10.0696 </r>
       <r>   -10.6976    -0.6147    10.0043 </r>
       <r>   -10.5915    -0.0404    10.0000 </r>
       <r>   -10.4853    -0.0008     9.9999 </r>
       <r>   -10.3792    -0.1019     9.9891 </r>
       <r>   -10.2730    -0.4575     9.9405 </r>
       <r>   -10.1668    10.1302    11.0159 </r>
       <r>   -10.0607     9.8541    12.0620 </r>
       <r>    -9.9545    -0.4884    12.0102 </r>
       <r>    -9.8484    -0.0953    12.0001 </r>
       <r>    -9.7422    -0.0006    12.0000 </r>
       <r>    -9.6361    -0.0000    12.0000 </r>
       <r>    -9.5299    -0.0000    12.0000 </r>
       <r>    -9.4237    -0.0000    12.0000 </r>
       <r>    -9.3176    -0.0000    12.0000 </r>
       <r>    -9.2114    -0.0000    12.0000 </r>
       <r>    -9.1053    -0.0000    12.0000 </r>
       <r>    -8.9991    -0.0000    12.0000 </r>
       <r>    -8.8930    -0.0023    11.9998 </r>
       <r>    -8.7868    -0.2107    11.9774 </r>
       <r>    -8.6806     0.2817    12.0073 </r>
       <r>    -8.5745    12.9968    13.3870 </r>
       <r>    -8.4683     6.3469    14.0608 </r>
       <r>    -8.3622    -1.1599    13.9376 </r>
       <r>    -8.2560     9.1591    14.9099 </r>
       <r>    -8.1499    10.7575    16.0519 </r>
       <r>    -8.0437    -0.3872    16.0108 </r>
       <r>    -7.9375    -0.6328    15.9436 </r>
       <r>    -7.8314     3.7981    16.3468 </r>
       <r>    -7.7252    14.1690    17.8510 </r>
       <r>    -7.6191     1.2350    17.9821 </r>
       <r>    -7.5129    12.8069    19.3416 </r>
       <r>    -7.4068    29.6911    22.4936 </r>
       <r>    -7.3006    13.8446    23.9633 </r>
       <r>    -7.1944    10.8561    25.1157 </r>
       <r>    -7.0883    33.9870    28.7237 </r>
       <r>    -6.9821    16.3698    30.4615 </r>
       <r>    -6.8760    22.4767    32.8475 </r>
       <r>    -6.7698    26.8909    35.7022 </r>
       <r>    -6.6637    48.5247    40.8534 </r>
       <r>    -6.5575    50.9023    46.2571 </r>
       <r>    -6.4513    33.5976    49.8237 </r>
       <r>    -6.3452    28.7448    52.8752 </r>
       <r>    -6.2390    56.0701    58.8275 </r>
       <r>    -6.1329    37.1168    62.7677 </r>
       <r>    -6.0267    28.8520    65.8305 </r>
       <r>    -5.9206    33.0410    69.3381 </r>
       <r>    -5.8144    33.3051    72.8737 </r>
       <r>    -5.7082    36.7467    76.7746 </r>
       <r>    -5.6021    25.7404    79.5071 </r>
       <r>    -5.4959    63.9472    86.2956 </r>
       <r>    -5.3898    71.8906    93.9273 </r>
       <r>    -5.2836    85.0589   102.9569 </r>
       <r>    -5.1775    73.8635   110.7981 </r>
       <r>    -5.0713    73.3276   118.5823 </r>
       <r>    -4.9651    91.5136   128.2972 </r>
       <r>    -4.8590    69.4240   135.6671 </r>
       <r>    -4.7528    69.1425   143.0070 </r>
       <r>    -4.6467    28.4645   146.0288 </r>
       <r>    -4.5405    13.3178   147.4425 </r>
       <r>    -4.4343     5.9022   148.0691 </r>
       <r>    -4.3282    -1.0783   147.9546 </r>
       <r>    -4.2220     2.5599   148.2264 </r>
       <r>    -4.1159    15.2663   149.8470 </r>
       <r>    -4.0097    15.9925   151.5447 </r>
       <r>    -3.9036     4.9116   152.0661 </r>
       <r>    -3.7974    -0.8204   151.9790 </r>
       <r>    -3.6912     0.3634   152.0176 </r>
       <r>    -3.5851    13.2060   153.4195 </r>
       <r>    -3.4789     6.1136   154.0685 </r>
       <r>    -3.3728    -0.6273   154.0019 </r>
       <r>    -3.2666    -0.5591   153.9426 </r>
       <r>    -3.1605     3.8793   154.3544 </r>
       <r>    -3.0543    13.7050   155.8093 </r>
       <r>    -2.9481     9.3939   156.8065 </r>
       <r>    -2.8420    11.5376   158.0313 </r>
       <r>    -2.7358    -0.2741   158.0022 </r>
       <r>    -2.6297    -0.4241   157.9572 </r>
       <r>    -2.5235    11.3085   159.1577 </r>
       <r>    -2.4174     8.5513   160.0655 </r>
       <r>    -2.3112    -1.1899   159.9391 </r>
       <r>    -2.2050     5.9782   160.5738 </r>
       <r>    -2.0989    13.0503   161.9592 </r>
       <r>    -1.9927     0.4637   162.0084 </r>
       <r>    -1.8866    12.0586   163.2885 </r>
       <r>    -1.7804    16.6411   165.0551 </r>
       <r>    -1.6743    14.3230   166.5756 </r>
       <r>    -1.5681    20.5352   168.7555 </r>
       <r>    -1.4619    12.2203   170.0528 </r>
       <r>    -1.3558    -0.8015   169.9677 </r>
       <r>    -1.2496     2.7174   170.2562 </r>
       <r>    -1.1435    14.1259   171.7558 </r>
       <r>    -1.0373     4.6855   172.2532 </r>
       <r>    -0.9312    13.5654   173.6932 </r>
       <r>    -0.8250    11.1023   174.8718 </r>
       <r>    -0.7188    11.0158   176.0412 </r>
       <r>    -0.6127    -0.3703   176.0019 </r>
       <r>    -0.5065    -0.4861   175.9503 </r>
       <r>    -0.4004    10.9001   177.1074 </r>
       <r>    -0.2942     8.8171   178.0434 </r>
       <r>    -0.1881    -0.9471   177.9429 </r>
       <r>    -0.0819    17.6321   179.8147 </r>
       <r>     0.0243    20.4392   181.9845 </r>
       <r>     0.1304     0.3846   182.0253 </r>
       <r>     0.2366    12.2617   183.3270 </r>
       <r>     0.3427     7.0049   184.0706 </r>
       <r>     0.4489    -0.6180   184.0050 </r>
       <r>     0.5550    -0.0467   184.0000 </r>
       <r>     0.6612    -0.0002   184.0000 </r>
       <r>     0.7674    -0.0000   184.0000 </r>
       <r>     0.8735    -0.0000   184.0000 </r>
       <r>     0.9797     0.0000   184.0000 </r>
       <r>     1.0858     0.0000   184.0000 </r>
       <r>     1.1920     0.0000   184.0000 </r>
       <r>     1.2981     0.0000   184.0000 </r>
       <r>     1.4043     0.0000   184.0000 </r>
       <r>     1.5105     0.0000   184.0000 </r>
       <r>     1.6166     0.0000   184.0000 </r>
       <r>     1.7228     0.0000   184.0000 </r>
      </set>
      <set comment="spin 2">
       <r>   -30.1244     0.0000     0.0000 </r>
       <r>   -30.0183     0.0000     0.0000 </r>
       <r>   -29.9121     0.0000     0.0000 </r>
       <r>   -29.8060     0.0000     0.0000 </r>
       <r>   -29.6998     0.0000     0.0000 </r>
       <r>   -29.5936     0.0000     0.0000 </r>
       <r>   -29.4875    -0.0000    -0.0000 </r>
       <r>   -29.3813    -0.0000    -0.0000 </r>
       <r>   -29.2752    -0.0000    -0.0000 </r>
       <r>   -29.1690    -0.0000    -0.0000 </r>
       <r>   -29.0629    -0.0000    -0.0000 </r>
       <r>   -28.9567    -0.0014    -0.0002 </r>
       <r>   -28.8505    -0.1608    -0.0172 </r>
       <r>   -28.7444    -0.1003    -0.0279 </r>
       <r>   -28.6382    11.9895     1.2449 </r>
       <r>   -28.5321     7.7802     2.0708 </r>
       <r>   -28.4259    -0.6098     2.0061 </r>
       <r>   -28.3198    -0.0571     2.0000 </r>
       <r>   -28.2136    -0.0002     2.0000 </r>
       <r>   -28.1074    -0.0000     2.0000 </r>
       <r>   -28.0013    -0.0000     2.0000 </r>
       <r>   -27.8951     0.0000     2.0000 </r>
       <r>   -27.7890     0.0000     2.0000 </r>
       <r>   -27.6828     0.0000     2.0000 </r>
       <r>   -27.5767     0.0000     2.0000 </r>
       <r>   -27.4705     0.0000     2.0000 </r>
       <r>   -27.3643     0.0000     2.0000 </r>
       <r>   -27.2582     0.0000     2.0000 </r>
       <r>   -27.1520     0.0000     2.0000 </r>
       <r>   -27.0459     0.0000     2.0000 </r>
       <r>   -26.9397     0.0000     2.0000 </r>
       <r>   -26.8336     0.0000     2.0000 </r>
       <r>   -26.7274     0.0000     2.0000 </r>
       <r>   -26.6212     0.0000     2.0000 </r>
       <r>   -26.5151     0.0000     2.0000 </r>
       <r>   -26.4089     0.0000     2.0000 </r>
       <r>   -26.3028     0.0000     2.0000 </r>
       <r>   -26.1966     0.0000     2.0000 </r>
       <r>   -26.0904     0.0000     2.0000 </r>
       <r>   -25.9843     0.0000     2.0000 </r>
       <r>   -25.8781     0.0000     2.0000 </r>
       <r>   -25.7720     0.0000     2.0000 </r>
       <r>   -25.6658     0.0000     2.0000 </r>
       <r>   -25.5597     0.0000     2.0000 </r>
       <r>   -25.4535     0.0000     2.0000 </r>
       <r>   -25.3473     0.0000     2.0000 </r>
       <r>   -25.2412     0.0000     2.0000 </r>
       <r>   -25.1350     0.0000     2.0000 </r>
       <r>   -25.0289     0.0000     2.0000 </r>
       <r>   -24.9227     0.0000     2.0000 </r>
       <r>   -24.8166     0.0000     2.0000 </r>
       <r>   -24.7104     0.0000     2.0000 </r>
       <r>   -24.6042     0.0000     2.0000 </r>
       <r>   -24.4981     0.0000     2.0000 </r>
       <r>   -24.3919     0.0000     2.0000 </r>
       <r>   -24.2858     0.0000     2.0000 </r>
       <r>   -24.1796     0.0000     2.0000 </r>
       <r>   -24.0735     0.0000     2.0000 </r>
       <r>   -23.9673     0.0000     2.0000 </r>
       <r>   -23.8611     0.0000     2.0000 </r>
       <r>   -23.7550     0.0000     2.0000 </r>
       <r>   -23.6488     0.0000     2.0000 </r>
       <r>   -23.5427     0.0000     2.0000 </r>
       <r>   -23.4365     0.0000     2.0000 </r>
       <r>   -23.3304     0.0000     2.0000 </r>
       <r>   -23.2242     0.0000     2.0000 </r>
       <r>   -23.1180     0.0000     2.0000 </r>
       <r>   -23.0119     0.0000     2.0000 </r>
       <r>   -22.9057     0.0000     2.0000 </r>
       <r>   -22.7996     0.0000     2.0000 </r>
       <r>   -22.6934     0.0000     2.0000 </r>
       <r>   -22.5873     0.0000     2.0000 </r>
       <r>   -22.4811     0.0000     2.0000 </r>
       <r>   -22.3749     0.0000     2.0000 </r>
       <r>   -22.2688     0.0000     2.0000 </r>
       <r>   -22.1626     0.0000     2.0000 </r>
       <r>   -22.0565     0.0000     2.0000 </r>
       <r>   -21.9503     0.0000     2.0000 </r>
       <r>   -21.8442     0.0000     2.0000 </r>
       <r>   -21.7380     0.0000     2.0000 </r>
       <r>   -21.6318     0.0000     2.0000 </r>
       <r>   -21.5257     0.0000     2.0000 </r>
       <r>   -21.4195     0.0000     2.0000 </r>
       <r>   -21.3134     0.0000     2.0000 </r>
       <r>   -21.2072     0.0000     2.0000 </r>
       <r>   -21.1011     0.0000     2.0000 </r>
       <r>   -20.9949     0.0000     2.0000 </r>
       <r>   -20.8887     0.0000     2.0000 </r>
       <r>   -20.7826     0.0000     2.0000 </r>
       <r>   -20.6764     0.0000     2.0000 </r>
       <r>   -20.5703     0.0000     2.0000 </r>
       <r>   -20.4641     0.0000     2.0000 </r>
       <r>   -20.3580     0.0000     2.0000 </r>
       <r>   -20.2518     0.0000     2.0000 </r>
       <r>   -20.1456     0.0000     2.0000 </r>
       <r>   -20.0395     0.0000     2.0000 </r>
       <r>   -19.9333     0.0000     2.0000 </r>
       <r>   -19.8272     0.0000     2.0000 </r>
       <r>   -19.7210     0.0000     2.0000 </r>
       <r>   -19.6149     0.0000     2.0000 </r>
       <r>   -19.5087     0.0000     2.0000 </r>
       <r>   -19.4025     0.0000     2.0000 </r>
       <r>   -19.2964     0.0000     2.0000 </r>
       <r>   -19.1902     0.0000     2.0000 </r>
       <r>   -19.0841     0.0000     2.0000 </r>
       <r>   -18.9779     0.0000     2.0000 </r>
       <r>   -18.8717     0.0000     2.0000 </r>
       <r>   -18.7656     0.0000     2.0000 </r>
       <r>   -18.6594     0.0000     2.0000 </r>
       <r>   -18.5533     0.0000     2.0000 </r>
       <r>   -18.4471     0.0000     2.0000 </r>
       <r>   -18.3410     0.0000     2.0000 </r>
       <r>   -18.2348     0.0000     2.0000 </r>
       <r>   -18.1286     0.0000     2.0000 </r>
       <r>   -18.0225     0.0000     2.0000 </r>
       <r>   -17.9163     0.0000     2.0000 </r>
       <r>   -17.8102     0.0000     2.0000 </r>
       <r>   -17.7040     0.0000     2.0000 </r>
       <r>   -17.5979     0.0000     2.0000 </r>
       <r>   -17.4917     0.0000     2.0000 </r>
       <r>   -17.3855     0.0000     2.0000 </r>
       <r>   -17.2794     0.0000     2.0000 </r>
       <r>   -17.1732     0.0000     2.0000 </r>
       <r>   -17.0671     0.0000     2.0000 </r>
       <r>   -16.9609     0.0000     2.0000 </r>
       <r>   -16.8548     0.0000     2.0000 </r>
       <r>   -16.7486     0.0000     2.0000 </r>
       <r>   -16.6424     0.0000     2.0000 </r>
       <r>   -16.5363     0.0000     2.0000 </r>
       <r>   -16.4301     0.0000     2.0000 </r>
       <r>   -16.3240     0.0000     2.0000 </r>
       <r>   -16.2178     0.0000     2.0000 </r>
       <r>   -16.1117     0.0000     2.0000 </r>
       <r>   -16.0055     0.0000     2.0000 </r>
       <r>   -15.8993     0.0000     2.0000 </r>
       <r>   -15.7932     0.0000     2.0000 </r>
       <r>   -15.6870     0.0000     2.0000 </r>
       <r>   -15.5809     0.0000     2.0000 </r>
       <r>   -15.4747     0.0000     2.0000 </r>
       <r>   -15.3686     0.0000     2.0000 </r>
       <r>   -15.2624     0.0000     2.0000 </r>
       <r>   -15.1562     0.0000     2.0000 </r>
       <r>   -15.0501     0.0000     2.0000 </r>
       <r>   -14.9439     0.0000     2.0000 </r>
       <r>   -14.8378     0.0000     2.0000 </r>
       <r>   -14.7316     0.0000     2.0000 </r>
       <r>   -14.6255    -0.0000     2.0000 </r>
       <r>   -14.5193    -0.0000     2.0000 </r>
       <r>   -14.4131    -0.0000     2.0000 </r>
       <r>   -14.3070    -0.0000     2.0000 </r>
       <r>   -14.2008    -0.0000     2.0000 </r>
       <r>   -14.0947    -0.0070     1.9993 </r>
       <r>   -13.9885    -0.3612     1.9609 </r>
       <r>   -13.8824     1.7444     2.1461 </r>
       <r>   -13.7762    14.4289     3.6778 </r>
       <r>   -13.6700     3.5496     4.0546 </r>
       <r>   -13.5639    -0.4988     4.0017 </r>
       <r>   -13.4577    -0.0159     4.0000 </r>
       <r>   -13.3516    -0.0000     4.0000 </r>
       <r>   -13.2454    -0.0000     4.0000 </r>
       <r>   -13.1393    -0.0000     4.0000 </r>
       <r>   -13.0331     0.0000     4.0000 </r>
       <r>   -12.9269     0.0000     4.0000 </r>
       <r>   -12.8208     0.0000     4.0000 </r>
       <r>   -12.7146     0.0000     4.0000 </r>
       <r>   -12.6085     0.0000     4.0000 </r>
       <r>   -12.5023     0.0000     4.0000 </r>
       <r>   -12.3962     0.0000     4.0000 </r>
       <r>   -12.2900    -0.0000     4.0000 </r>
       <r>   -12.1838    -0.0000     4.0000 </r>
       <r>   -12.0777    -0.0000     4.0000 </r>
       <r>   -11.9715    -0.0000     4.0000 </r>
       <r>   -11.8654    -0.0000     4.0000 </r>
       <r>   -11.7592    -0.0000     4.0000 </r>
       <r>   -11.6530    -0.0138     3.9985 </r>
       <r>   -11.5469    -0.4795     3.9476 </r>
       <r>   -11.4407     2.8728     4.2526 </r>
       <r>   -11.3346    15.6997     5.9192 </r>
       <r>   -11.2284    16.1682     7.6356 </r>
       <r>   -11.1223     3.9921     8.0594 </r>
       <r>   -11.0161    -1.0682     7.9460 </r>
       <r>   -10.9099     3.7570     8.3448 </r>
       <r>   -10.8038    14.3634     9.8696 </r>
       <r>   -10.6976     1.5810    10.0375 </r>
       <r>   -10.5915    -0.3464    10.0007 </r>
       <r>   -10.4853    -0.0064    10.0000 </r>
       <r>   -10.3792    -0.0158     9.9983 </r>
       <r>   -10.2730    -0.4975     9.9455 </r>
       <r>   -10.1668     3.5291    10.3202 </r>
       <r>   -10.0607    14.4342    11.8524 </r>
       <r>    -9.9545     1.7596    12.0392 </r>
       <r>    -9.8484    -0.3626    12.0008 </r>
       <r>    -9.7422    -0.0071    12.0000 </r>
       <r>    -9.6361    -0.0000    12.0000 </r>
       <r>    -9.5299    -0.0000    12.0000 </r>
       <r>    -9.4237    -0.0000    12.0000 </r>
       <r>    -9.3176    -0.0000    12.0000 </r>
       <r>    -9.2114    -0.0000    12.0000 </r>
       <r>    -9.1053    -0.0000    12.0000 </r>
       <r>    -8.9991    -0.0000    12.0000 </r>
       <r>    -8.8930    -0.0007    11.9999 </r>
       <r>    -8.7868    -0.1093    11.9883 </r>
       <r>    -8.6806    -0.4199    11.9437 </r>
       <r>    -8.5745    10.4223    13.0501 </r>
       <r>    -8.4683     9.5368    14.0625 </r>
       <r>    -8.3622    -1.0297    13.9532 </r>
       <r>    -8.2560     3.6816    14.3441 </r>
       <r>    -8.1499    14.3655    15.8691 </r>
       <r>    -8.0437     1.5849    16.0373 </r>
       <r>    -7.9375    -0.5308    15.9810 </r>
       <r>    -7.8314     0.0615    15.9875 </r>
       <r>    -7.7252    12.4304    17.3071 </r>
       <r>    -7.6191     6.3888    17.9853 </r>
       <r>    -7.5129     7.3270    18.7631 </r>
       <r>    -7.4068    25.0836    21.4259 </r>
       <r>    -7.3006    21.8262    23.7429 </r>
       <r>    -7.1944     6.4425    24.4269 </r>
       <r>    -7.0883    33.4230    27.9749 </r>
       <r>    -6.9821    20.4527    30.1462 </r>
       <r>    -6.8760    18.9585    32.1587 </r>
       <r>    -6.7698    23.9631    34.7026 </r>
       <r>    -6.6637    44.8351    39.4622 </r>
       <r>    -6.5575    51.6001    44.9399 </r>
       <r>    -6.4513    41.0954    49.3025 </r>
       <r>    -6.3452    20.9023    51.5214 </r>
       <r>    -6.2390    56.4497    57.5140 </r>
       <r>    -6.1329    41.1340    61.8806 </r>
       <r>    -6.0267    29.6928    65.0327 </r>
       <r>    -5.9206    33.0905    68.5455 </r>
       <r>    -5.8144    31.1918    71.8568 </r>
       <r>    -5.7082    38.5194    75.9459 </r>
       <r>    -5.6021    25.6456    78.6684 </r>
       <r>    -5.4959    50.6328    84.0434 </r>
       <r>    -5.3898    74.4592    91.9478 </r>
       <r>    -5.2836    77.8982   100.2173 </r>
       <r>    -5.1775    81.6915   108.8894 </r>
       <r>    -5.0713    69.2258   116.2382 </r>
       <r>    -4.9651    89.8606   125.7776 </r>
       <r>    -4.8590    72.3297   133.4559 </r>
       <r>    -4.7528    70.7555   140.9672 </r>
       <r>    -4.6467    42.9354   145.5251 </r>
       <r>    -4.5405    11.8566   146.7837 </r>
       <r>    -4.4343    11.5951   148.0146 </r>
       <r>    -4.3282    -0.0301   148.0114 </r>
       <r>    -4.2220    -0.7742   147.9293 </r>
       <r>    -4.1159     8.5571   148.8377 </r>
       <r>    -4.0097    17.1492   150.6582 </r>
       <r>    -3.9036    12.6732   152.0035 </r>
       <r>    -3.7974     0.1833   152.0230 </r>
       <r>    -3.6912    -0.2316   151.9984 </r>
       <r>    -3.5851    -0.5175   151.9435 </r>
       <r>    -3.4789     3.8151   152.3485 </r>
       <r>    -3.3728    14.3508   153.8719 </r>
       <r>    -3.2666     1.4051   154.0211 </r>
       <r>    -3.1605    -0.5223   153.9656 </r>
       <r>    -3.0543    11.3287   155.1682 </r>
       <r>    -2.9481    10.2912   156.2607 </r>
       <r>    -2.8420    13.9375   157.7403 </r>
       <r>    -2.7358     2.9172   158.0500 </r>
       <r>    -2.6297    -0.6913   157.9766 </r>
       <r>    -2.5235     0.4368   158.0230 </r>
       <r>    -2.4174    13.3030   159.4352 </r>
       <r>    -2.3112     5.8523   160.0564 </r>
       <r>    -2.2050    -1.0301   159.9471 </r>
       <r>    -2.0989    10.3463   161.0454 </r>
       <r>    -1.9927     9.1934   162.0214 </r>
       <r>    -1.8866     1.0885   162.1369 </r>
       <r>    -1.7804    16.5743   163.8964 </r>
       <r>    -1.6743    17.9182   165.7985 </r>
       <r>    -1.5681    14.5608   167.3443 </r>
       <r>    -1.4619    13.1529   168.7406 </r>
       <r>    -1.3558    11.9841   170.0128 </r>
       <r>    -1.2496    -0.1219   169.9998 </r>
       <r>    -1.1435    -0.0955   169.9897 </r>
       <r>    -1.0373    12.0434   171.2682 </r>
       <r>    -0.9312    12.1192   172.5547 </r>
       <r>    -0.8250    14.8314   174.1292 </r>
       <r>    -0.7188    15.0403   175.7258 </r>
       <r>    -0.6127     3.0832   176.0531 </r>
       <r>    -0.5065    -0.6978   175.9790 </r>
       <r>    -0.4004     0.2597   176.0066 </r>
       <r>    -0.2942    12.9685   177.3833 </r>
       <r>    -0.1881     5.9056   178.0102 </r>
       <r>    -0.0819     1.9371   178.2159 </r>
       <r>     0.0243    23.2822   180.6874 </r>
       <r>     0.1304    12.6391   182.0292 </r>
       <r>     0.2366     3.6077   182.4122 </r>
       <r>     0.3427    14.0361   183.9022 </r>
       <r>     0.4489     1.2409   184.0339 </r>
       <r>     0.5550    -0.3143   184.0006 </r>
       <r>     0.6612    -0.0052   184.0000 </r>
       <r>     0.7674    -0.0000   184.0000 </r>
       <r>     0.8735    -0.0000   184.0000 </r>
       <r>     0.9797    -0.0000   184.0000 </r>
       <r>     1.0858     0.0000   184.0000 </r>
       <r>     1.1920     0.0000   184.0000 </r>
       <r>     1.2981     0.0000   184.0000 </r>
       <r>     1.4043     0.0000   184.0000 </r>
       <r>     1.5105     0.0000   184.0000 </r>
       <r>     1.6166     0.0000   184.0000 </r>
       <r>     1.7228     0.0000   184.0000 </r>
      </set>
     </set>
    </array>
   </total>
  </dos>
 </calculation>
 <structure name="finalpos" >
  <crystal>
   <varray name="basis" >
    <v>      15.00000000       0.00000000       0.00000000 </v>
    <v>       0.00000000      15.00000000       0.00000000 </v>
    <v>       0.00000000       0.00000000      15.00000000 </v>
   </varray>
   <i name="volume">   3375.00000000 </i>
   <varray name="rec_basis" >
    <v>       0.06666667       0.00000000       0.00000000 </v>
    <v>       0.00000000       0.06666667       0.00000000 </v>
    <v>       0.00000000       0.00000000       0.06666667 </v>
   </varray>
  </crystal>
  <varray name="positions" >
   <v>       0.29234533       0.41495333       0.58077200 </v>
   <v>       0.37174667       0.54050733       0.49395867 </v>
   <v>       0.39655200       0.29801800       0.57075600 </v>
   <v>       0.54395267       0.51196867       0.46594733 </v>
   <v>       0.54885133       0.35031267       0.50235133 </v>
   <v>       0.45350133       0.43299133       0.61084133 </v>
   <v>       0.41723000       0.40317267       0.44994267 </v>
   <v>       0.21391000       0.55215733       0.53300667 </v>
   <v>       0.32896867       0.54469400       0.64825800 </v>
   <v>       0.36155600       0.67364000       0.57353667 </v>
   <v>       0.48866000       0.65821467       0.48145533 </v>
   <v>       0.61935400       0.50501467       0.61532600 </v>
   <v>       0.48330400       0.58261733       0.62465867 </v>
   <v>       0.73756000       0.51715400       0.65321467 </v>
   <v>       0.80676667       0.54913467       0.66088400 </v>
  </varray>
 </structure>
</modeling>
