 vasp.5.4.4.18Apr17-6-g9f103f2a35 (build May 08 2019 13:49:07) complex          
  
 executed on             LinuxIFC date 2019.11.13  13:28:50
 running on   24 total cores
 distrk:  each k-point on   24 cores,    1 groups
 distr:  one band on NCORES_PER_BAND=   6 cores,    4 groups


--------------------------------------------------------------------------------------------------------


 INCAR:
 POTCAR:    PAW_PBE Cu 22Jun2005                  
 POTCAR:    PAW_PBE C 08Apr2002                   
 POTCAR:    PAW_PBE O 08Apr2002                   
 POTCAR:    PAW_PBE Cu 22Jun2005                  
   VRHFIN =Cu: d10 p1                                                           
   LEXCH  = PE                                                                  
   EATOM  =  1390.9808 eV,  102.2342 Ry                                         
                                                                                
   TITEL  = PAW_PBE Cu 22Jun2005                                                
   LULTRA =        F    use ultrasoft PP ?                                      
   IUNSCR =        1    unscreen: 0-lin 1-nonlin 2-no                           
   RPACOR =    2.000    partial core radius                                     
   POMASS =   63.546; ZVAL   =   11.000    mass and valenz                      
   RCORE  =    2.300    outmost cutoff radius                                   
   RWIGS  =    2.200; RWIGS  =    1.164    wigner-seitz radius (au A)           
   ENMAX  =  295.446; ENMIN  =  221.585 eV                                      
   ICORE  =        3    local potential                                         
   LCOR   =        T    correct aug charges                                     
   LPAW   =        T    paw PP                                                  
   EAUG   =  586.980                                                            
   DEXC   =    0.000                                                            
   RMAX   =    2.344    core radius for proj-oper                               
   RAUG   =    1.300    factor for augmentation sphere                          
   RDEP   =    2.302    radius for radial grids                                 
   RDEPT  =    1.771    core radius for aug-charge                              
                                                                                
   Atomic configuration                                                         
    9 entries                                                                   
     n  l   j            E        occ.                                          
     1  0  0.50     -8850.2468   2.0000                                         
     2  0  0.50     -1062.3498   2.0000                                         
     2  1  1.50      -916.8226   6.0000                                         
     3  0  0.50      -114.6929   2.0000                                         
     3  1  1.50       -72.1325   6.0000                                         
     3  2  2.50        -5.0394  10.0000                                         
     4  0  0.50        -4.6097   1.0000                                         
     4  1  0.50        -4.0817   0.0000                                         
     4  3  2.50        -1.3606   0.0000                                         
   Description                                                                  
     l       E           TYP  RCUT    TYP  RCUT                                 
     2     -5.0393973     23  2.200                                             
     2     10.8846608     23  2.200                                             
     0     -4.6097109     23  2.200                                             
     0      8.2520465     23  2.200                                             
     1     -2.7211652     23  2.200                                             
     1     21.7055443     23  2.200                                             
     3      2.7211652     23  2.300                                             
  local pseudopotential read in
  partial core-charges read in
  partial kinetic energy density read in
  atomic valenz-charges read in
  non local Contribution for L=           2  read in
    real space projection operators read in
  non local Contribution for L=           2  read in
    real space projection operators read in
  non local Contribution for L=           0  read in
    real space projection operators read in
  non local Contribution for L=           0  read in
    real space projection operators read in
  non local Contribution for L=           1  read in
    real space projection operators read in
  non local Contribution for L=           1  read in
    real space projection operators read in
    PAW grid and wavefunctions read in
 
   number of l-projection  operators is LMAX  =           6
   number of lm-projection operators is LMMAX =          18
 
 POTCAR:    PAW_PBE C 08Apr2002                   
   VRHFIN =C: s2p2                                                              
   LEXCH  = PE                                                                  
   EATOM  =   147.1560 eV,   10.8157 Ry                                         
                                                                                
   TITEL  = PAW_PBE C 08Apr2002                                                 
   LULTRA =        F    use ultrasoft PP ?                                      
   IUNSCR =        1    unscreen: 0-lin 1-nonlin 2-no                           
   RPACOR =    1.200    partial core radius                                     
   POMASS =   12.011; ZVAL   =    4.000    mass and valenz                      
   RCORE  =    1.500    outmost cutoff radius                                   
   RWIGS  =    1.630; RWIGS  =    0.863    wigner-seitz radius (au A)           
   ENMAX  =  400.000; ENMIN  =  300.000 eV                                      
   ICORE  =        2    local potential                                         
   LCOR   =        T    correct aug charges                                     
   LPAW   =        T    paw PP                                                  
   EAUG   =  644.873                                                            
   DEXC   =    0.000                                                            
   RMAX   =    1.529    core radius for proj-oper                               
   RAUG   =    1.300    factor for augmentation sphere                          
   RDEP   =    1.501    radius for radial grids                                 
   RDEPT  =    1.300    core radius for aug-charge                              
                                                                                
   Atomic configuration                                                         
    4 entries                                                                   
     n  l   j            E        occ.                                          
     1  0  0.50      -273.3789   2.0000                                         
     2  0  0.50       -13.7508   2.0000                                         
     2  1  0.50        -5.2854   2.0000                                         
     3  2  1.50        -5.4423   0.0000                                         
   Description                                                                  
     l       E           TYP  RCUT    TYP  RCUT                                 
     0    -13.7508458     23  1.200                                             
     0     -8.2022199     23  1.200                                             
     1     -5.2854383     23  1.500                                             
     1     34.0145650     23  1.500                                             
     2     -5.4423304      7  1.500                                             
  local pseudopotential read in
  partial core-charges read in
  partial kinetic energy density read in
  atomic valenz-charges read in
  non local Contribution for L=           0  read in
    real space projection operators read in
  non local Contribution for L=           0  read in
    real space projection operators read in
  non local Contribution for L=           1  read in
    real space projection operators read in
  non local Contribution for L=           1  read in
    real space projection operators read in
    PAW grid and wavefunctions read in
 
   number of l-projection  operators is LMAX  =           4
   number of lm-projection operators is LMMAX =           8
 
 POTCAR:    PAW_PBE O 08Apr2002                   
   VRHFIN =O: s2p4                                                              
   LEXCH  = PE                                                                  
   EATOM  =   432.3788 eV,   31.7789 Ry                                         
                                                                                
   TITEL  = PAW_PBE O 08Apr2002                                                 
   LULTRA =        F    use ultrasoft PP ?                                      
   IUNSCR =        1    unscreen: 0-lin 1-nonlin 2-no                           
   RPACOR =    1.200    partial core radius                                     
   POMASS =   16.000; ZVAL   =    6.000    mass and valenz                      
   RCORE  =    1.520    outmost cutoff radius                                   
   RWIGS  =    1.550; RWIGS  =    0.820    wigner-seitz radius (au A)           
   ENMAX  =  400.000; ENMIN  =  300.000 eV                                      
   ICORE  =        2    local potential                                         
   LCOR   =        T    correct aug charges                                     
   LPAW   =        T    paw PP                                                  
   EAUG   =  605.392                                                            
   DEXC   =    0.000                                                            
   RMAX   =    1.553    core radius for proj-oper                               
   RAUG   =    1.300    factor for augmentation sphere                          
   RDEP   =    1.550    radius for radial grids                                 
   RDEPT  =    1.329    core radius for aug-charge                              
                                                                                
   Atomic configuration                                                         
    4 entries                                                                   
     n  l   j            E        occ.                                          
     1  0  0.50      -514.6923   2.0000                                         
     2  0  0.50       -23.9615   2.0000                                         
     2  1  0.50        -9.0305   4.0000                                         
     3  2  1.50        -9.5241   0.0000                                         
   Description                                                                  
     l       E           TYP  RCUT    TYP  RCUT                                 
     0    -23.9615318     23  1.200                                             
     0     -9.5240782     23  1.200                                             
     1     -9.0304911     23  1.520                                             
     1      8.1634956     23  1.520                                             
     2     -9.5240782      7  1.500                                             
  local pseudopotential read in
  partial core-charges read in
  partial kinetic energy density read in
  kinetic energy density of atom read in
  atomic valenz-charges read in
  non local Contribution for L=           0  read in
    real space projection operators read in
  non local Contribution for L=           0  read in
    real space projection operators read in
  non local Contribution for L=           1  read in
    real space projection operators read in
  non local Contribution for L=           1  read in
    real space projection operators read in
    PAW grid and wavefunctions read in
 
   number of l-projection  operators is LMAX  =           4
   number of lm-projection operators is LMMAX =           8
 
  PAW_PBE Cu 22Jun2005                  :
 energy of atom  1       EATOM=-1390.9808
 kinetic energy error for atom=    0.0033 (will be added to EATOM!!)
  PAW_PBE C 08Apr2002                   :
 energy of atom  2       EATOM= -147.1560
 kinetic energy error for atom=    0.0057 (will be added to EATOM!!)
  PAW_PBE O 08Apr2002                   :
 energy of atom  3       EATOM= -432.3788
 kinetic energy error for atom=    0.0168 (will be added to EATOM!!)
 
 
 POSCAR: Cu13 C1 O1                              
  positions in cartesian coordinates
  No initial velocities read in
 exchange correlation table for  LEXCH =        8
   RHO(1)=    0.500       N(1)  =     2000
   RHO(2)=  100.500       N(2)  =     4000
 


--------------------------------------------------------------------------------------------------------


 ion  position               nearest neighbor table
   1  0.294  0.422  0.555-   8 2.40   9 2.40   6 2.46   3 2.47   7 2.49   2 2.49
   2  0.375  0.551  0.489-  10 2.33   8 2.36   7 2.44  11 2.44   1 2.49   4 2.51   9 2.51  13 2.65
                             6 2.79
   3  0.396  0.293  0.563-   7 2.36   6 2.38   1 2.47   5 2.48
   4  0.536  0.506  0.481-  12 2.32   7 2.40   5 2.51   2 2.51  13 2.55  11 2.56   6 2.65
   5  0.548  0.346  0.527-   7 2.38   6 2.43   3 2.48   4 2.51  12 2.56
   6  0.446  0.435  0.616-   9 2.38   3 2.38   5 2.43   1 2.46  13 2.47   7 2.56  12 2.58   4 2.65
                             2 2.79
   7  0.421  0.400  0.450-   3 2.36   5 2.38   4 2.40   2 2.44   1 2.49   6 2.56
   8  0.229  0.568  0.545-   9 2.29   2 2.36   1 2.40  10 2.55
   9  0.336  0.543  0.651-   8 2.29   6 2.38   1 2.40  10 2.42  13 2.44   2 2.51
  10  0.353  0.681  0.570-   2 2.33   9 2.42  11 2.44  13 2.50   8 2.55
  11  0.486  0.670  0.477-  13 2.41   2 2.44  10 2.44   4 2.56
  12  0.612  0.478  0.613-  14 1.91   4 2.32   5 2.56  13 2.57   6 2.58
  13  0.487  0.594  0.619-  11 2.41   9 2.44   6 2.47  10 2.50   4 2.55  12 2.57   2 2.65
  14  0.734  0.494  0.646-  15 1.17  12 1.91
  15  0.812  0.489  0.641-  14 1.17
 

IMPORTANT INFORMATION: All symmetrisations will be switched off!
NOSYMM: (Re-)initialisation of all symmetry stuff for point group C_1.

 
 

Automatic generation of k-mesh.
 generate k-points for:    1    1    1
Space group operators:
 irot       det(A)        alpha          n_x          n_y          n_z        tau_x        tau_y        tau_z
    1     1.000000     0.000000     1.000000     0.000000     0.000000     0.000000     0.000000     0.000000
 
 Subroutine IBZKPT returns following result:
 ===========================================
 
 Found      1 irreducible k-points:
 
 Following reciprocal coordinates:
            Coordinates               Weight
  0.000000  0.000000  0.000000      1.000000
 
 Following cartesian coordinates:
            Coordinates               Weight
  0.000000  0.000000  0.000000      1.000000
 


--------------------------------------------------------------------------------------------------------




 Dimension of arrays:
   k-points           NKPTS =      1   k-points in BZ     NKDIM =      1   number of bands    NBANDS=     92
   number of dos      NEDOS =    301   number of ions     NIONS =     15
   non local maximal  LDIM  =      6   non local SUM 2l+1 LMDIM =     18
   total plane-waves  NPLWV = ******
   max r-space proj   IRMAX =      1   max aug-charges    IRDMAX=  15028
   dimension x,y,z NGX =   120 NGY =  120 NGZ =  120
   dimension x,y,z NGXF=   240 NGYF=  240 NGZF=  240
   support grid    NGXF=   240 NGYF=  240 NGZF=  240
   ions per type =              13   1   1
   NGX,Y,Z   is equivalent  to a cutoff of  13.30, 13.30, 13.30 a.u.
   NGXF,Y,Z  is equivalent  to a cutoff of  26.60, 26.60, 26.60 a.u.

 SYSTEM =  CuCO                                    
 POSCAR =  Cu13 C1 O1                              

 Startparameter for this run:
   NWRITE =      2    write-flag & timer
   PREC   = accura    normal or accurate (medium, high low for compatibility)
   ISTART =      0    job   : 0-new  1-cont  2-samecut
   ICHARG =      2    charge: 1-file 2-atom 10-const
   ISPIN  =      2    spin polarized calculation?
   LNONCOLLINEAR =      F non collinear calculations
   LSORBIT =      F    spin-orbit coupling
   INIWAV =      1    electr: 0-lowe 1-rand  2-diag
   LASPH  =      F    aspherical Exc in radial PAW
   METAGGA=      F    non-selfconsistent MetaGGA calc.

 Electronic Relaxation 1
   ENCUT  =  600.0 eV  44.10 Ry    6.64 a.u.  29.96 29.96 29.96*2*pi/ulx,y,z
   ENINI  =  600.0     initial cutoff
   ENAUG  =  644.9 eV  augmentation charge cutoff
   NELM   =    300;   NELMIN=  3; NELMDL= -5     # of ELM steps 
   EDIFF  = 0.1E-06   stopping-criterion for ELM
   LREAL  =      F    real-space projection
   NLSPLINE    = F    spline interpolate recip. space projectors
   LCOMPAT=      F    compatible to vasp.4.4
   GGA_COMPAT  = T    GGA compatible to vasp.4.4-vasp.4.6
   LMAXPAW     = -100 max onsite density
   LMAXMIX     =    2 max onsite mixed and CHGCAR
   VOSKOWN=      0    Vosko Wilk Nusair interpolation
   ROPT   =    0.00000   0.00000   0.00000
 Ionic relaxation
   EDIFFG = -.1E-02   stopping-criterion for IOM
   NSW    =      0    number of steps for IOM
   NBLOCK =      1;   KBLOCK =      1    inner block; outer block 
   IBRION =     -1    ionic relax: 0-MD 1-quasi-New 2-CG
   NFREE  =      0    steps in history (QN), initial steepest desc. (CG)
   ISIF   =      2    stress and relaxation
   IWAVPR =     10    prediction:  0-non 1-charg 2-wave 3-comb
   ISYM   =      0    0-nonsym 1-usesym 2-fastsym
   LCORR  =      T    Harris-Foulkes like correction to forces

   POTIM  = 0.5000    time-step for ionic-motion
   TEIN   =    0.0    initial temperature
   TEBEG  =    0.0;   TEEND  =   0.0 temperature during run
   SMASS  =  -3.00    Nose mass-parameter (am)
   estimated Nose-frequenzy (Omega)   =  0.10E-29 period in steps =****** mass=  -0.514E-26a.u.
   SCALEE = 1.0000    scale energy and forces
   NPACO  =    256;   APACO  = 16.0  distance and # of slots for P.C.
   PSTRESS=    0.0 pullay stress

  Mass of Ions in am
   POMASS =  63.55 12.01 16.00
  Ionic Valenz
   ZVAL   =  11.00  4.00  6.00
  Atomic Wigner-Seitz radii
   RWIGS  =  -1.00 -1.00 -1.00
  virtual crystal weights 
   VCA    =   1.00  1.00  1.00
   NELECT =     153.0000    total number of electrons
   NUPDOWN=       1.0000    fix difference up-down

 DOS related values:
   EMIN   =  10.00;   EMAX   =-10.00  energy-range for DOS
   EFERMI =   0.00
   ISMEAR =     1;   SIGMA  =   0.10  broadening in eV -4-tet -1-fermi 0-gaus

 Electronic relaxation 2 (details)
   IALGO  =     68    algorithm
   LDIAG  =      T    sub-space diagonalisation (order eigenvalues)
   LSUBROT=      F    optimize rotation matrix (better conditioning)
   TURBO    =      0    0=normal 1=particle mesh
   IRESTART =      0    0=no restart 2=restart with 2 vectors
   NREBOOT  =      0    no. of reboots
   NMIN     =      0    reboot dimension
   EREF     =   0.00    reference energy to select bands
   IMIX   =      4    mixing-type and parameters
     AMIX     =   0.40;   BMIX     =  1.00
     AMIX_MAG =   1.60;   BMIX_MAG =  1.00
     AMIN     =   0.10
     WC   =   100.;   INIMIX=   1;  MIXPRE=   1;  MAXMIX= -45

 Intra band minimization:
   WEIMIN = 0.0000     energy-eigenvalue tresh-hold
   EBREAK =  0.27E-09  absolut break condition
   DEPER  =   0.30     relativ break condition  

   TIME   =   0.40     timestep for ELM

  volume/ion in A,a.u.               =     225.00      1518.37
  Fermi-wavevector in a.u.,A,eV,Ry     =   0.583733  1.103095  4.636102  0.340744
  Thomas-Fermi vector in A             =   1.629149
 
 Write flags
   LWAVE        =      F    write WAVECAR
   LDOWNSAMPLE  =      F    k-point downsampling of WAVECAR
   LCHARG       =      F    write CHGCAR
   LVTOT        =      F    write LOCPOT, total local potential
   LVHAR        =      F    write LOCPOT, Hartree potential only
   LELF         =      F    write electronic localiz. function (ELF)
   LORBIT       =      0    0 simple, 1 ext, 2 COOP (PROOUT), +10 PAW based schemes


 Dipole corrections
   LMONO  =      F    monopole corrections only (constant potential shift)
   LDIPOL =      F    correct potential (dipole corrections)
   IDIPOL =      0    1-x, 2-y, 3-z, 4-all directions 
   EPSILON=  1.0000000 bulk dielectric constant

 Exchange correlation treatment:
   GGA     =    PE    GGA type
   LEXCH   =     8    internal setting for exchange type
   VOSKOWN=      0    Vosko Wilk Nusair interpolation
   LHFCALC =     F    Hartree Fock is set to
   LHFONE  =     F    Hartree Fock one center treatment
   AEXX    =    0.0000 exact exchange contribution

 Linear response parameters
   LEPSILON=     F    determine dielectric tensor
   LRPA    =     F    only Hartree local field effects (RPA)
   LNABLA  =     F    use nabla operator in PAW spheres
   LVEL    =     F    velocity operator in full k-point grid
   LINTERFAST=   F  fast interpolation
   KINTER  =     0    interpolate to denser k-point grid
   CSHIFT  =0.1000    complex shift for real part using Kramers Kronig
   OMEGAMAX=  -1.0    maximum frequency
   DEG_THRESHOLD= 0.2000000E-02 threshold for treating states as degnerate
   RTIME   =   -0.100 relaxation time in fs
  (WPLASMAI=    0.000 imaginary part of plasma frequency in eV, 0.658/RTIME)
   DFIELD  = 0.0000000 0.0000000 0.0000000 field for delta impulse in time
 
 Orbital magnetization related:
   ORBITALMAG=     F  switch on orbital magnetization
   LCHIMAG   =     F  perturbation theory with respect to B field
   DQ        =  0.001000  dq finite difference perturbation B field
   LLRAUG    =     F  two centre corrections for induced B field



--------------------------------------------------------------------------------------------------------


 Static calculation
 charge density and potential will be updated during run
 spin polarized calculation
 RMM-DIIS sequential band-by-band and
  variant of blocked Davidson during initial phase
 perform sub-space diagonalisation
    before iterative eigenvector-optimisation
 modified Broyden-mixing scheme, WC =      100.0
 initial mixing is a Kerker type mixing with AMIX =  0.4000 and BMIX =      1.0000
 Hartree-type preconditioning will be used
 using additional bands           15
 reciprocal scheme for non local part
 use partial core corrections
 calculate Harris-corrections to forces 
   (improved forces if not selfconsistent)
 use gradient corrections 
 use of overlap-Matrix (Vanderbilt PP)
 Methfessel and Paxton  Order N= 1 SIGMA  =   0.10


--------------------------------------------------------------------------------------------------------


  energy-cutoff  :      600.00
  volume of cell :     3375.00
      direct lattice vectors                 reciprocal lattice vectors
    15.000000000  0.000000000  0.000000000     0.066666667  0.000000000  0.000000000
     0.000000000 15.000000000  0.000000000     0.000000000  0.066666667  0.000000000
     0.000000000  0.000000000 15.000000000     0.000000000  0.000000000  0.066666667

  length of vectors
    15.000000000 15.000000000 15.000000000     0.066666667  0.066666667  0.066666667


 
 k-points in units of 2pi/SCALE and weight: read from INCAR                         
   0.00000000  0.00000000  0.00000000       1.000
 
 k-points in reciprocal lattice and weights: read from INCAR                         
   0.00000000  0.00000000  0.00000000       1.000
 
 position of ions in fractional coordinates (direct lattice) 
   0.29422533  0.42247800  0.55500333
   0.37512733  0.55106467  0.48874800
   0.39566067  0.29342800  0.56326800
   0.53620333  0.50616400  0.48144600
   0.54838267  0.34593933  0.52704667
   0.44586533  0.43481800  0.61555133
   0.42063800  0.39985933  0.45034333
   0.22914067  0.56801800  0.54498067
   0.33575733  0.54286733  0.65147867
   0.35329267  0.68122000  0.57047000
   0.48611200  0.66956667  0.47697000
   0.61227400  0.47824733  0.61328467
   0.48660533  0.59414200  0.61856733
   0.73426667  0.49395200  0.64641533
   0.81181333  0.48888133  0.64077667
 
 position of ions in cartesian coordinates  (Angst):
   4.41338000  6.33717000  8.32505000
   5.62691000  8.26597000  7.33122000
   5.93491000  4.40142000  8.44902000
   8.04305000  7.59246000  7.22169000
   8.22574000  5.18909000  7.90570000
   6.68798000  6.52227000  9.23327000
   6.30957000  5.99789000  6.75515000
   3.43711000  8.52027000  8.17471000
   5.03636000  8.14301000  9.77218000
   5.29939000 10.21830000  8.55705000
   7.29168000 10.04350000  7.15455000
   9.18411000  7.17371000  9.19927000
   7.29908000  8.91213000  9.27851000
  11.01400000  7.40928000  9.69623000
  12.17720000  7.33322000  9.61165000
 


--------------------------------------------------------------------------------------------------------


 k-point  1 :   0.0000 0.0000 0.0000  plane waves:  112451

 maximum and minimum number of plane-waves per node :     18753    18726

 maximum number of plane-waves:    112451
 maximum index in each direction: 
   IXMAX=   29   IYMAX=   29   IZMAX=   29
   IXMIN=  -29   IYMIN=  -29   IZMIN=  -29


 parallel 3D FFT for wavefunctions:
    minimum data exchange during FFTs selected (reduces bandwidth)
 parallel 3D FFT for charge:
    minimum data exchange during FFTs selected (reduces bandwidth)


 total amount of memory used by VASP MPI-rank0   158680. kBytes
=======================================================================

   base      :      30000. kBytes
   nonl-proj :      12601. kBytes
   fftplans  :      27994. kBytes
   grid      :      74150. kBytes
   one-center:         93. kBytes
   wavefun   :      13842. kBytes
 
     INWAV:  cpu time    0.0000: real time    0.0002
 Broyden mixing: mesh for mixing (old mesh)
   NGX = 59   NGY = 59   NGZ = 59
  (NGX  =240   NGY  =240   NGZ  =240)
  gives a total of 205379 points

 initial charge density was supplied:
 charge density of overlapping atoms calculated
 number of electron     153.0000000 magnetization       1.0000000
 keeping initial charge density in first step


--------------------------------------------------------------------------------------------------------


 Maximum index for augmentation-charges          711 (set IRDMAX)


--------------------------------------------------------------------------------------------------------


 First call to EWALD:  gamma=   0.118
 Maximum number of real-space cells 3x 3x 3
 Maximum number of reciprocal cells 3x 3x 3

    FEWALD:  cpu time    0.0016: real time    0.0022


--------------------------------------- Iteration      1(   1)  ---------------------------------------


    POTLOK:  cpu time    1.1762: real time    1.1795
    SETDIJ:  cpu time    0.0180: real time    0.0180
     EDDAV:  cpu time    7.5229: real time    7.5262
       DOS:  cpu time    0.0007: real time    0.0007
    --------------------------------------------
      LOOP:  cpu time    8.7178: real time    8.7244

 eigenvalue-minimisations  :   376
 total energy-change (2. order) : 0.1118926E+04  (-0.4468636E+04)
 number of electron     153.0000000 magnetization       1.0000000
 augmentation part      153.0000000 magnetization       1.0000000

 Free energy of the ion-electron system (eV)
  ---------------------------------------------------
  alpha Z        PSCENC =        41.16232785
  Ewald energy   TEWEN  =     16743.64729631
  -Hartree energ DENC   =    -33761.38846015
  -exchange      EXHF   =         0.00000000
  -V(xc)+E(xc)   XCENC  =       623.81036636
  PAW double counting   =     16421.75059358   -17800.06104309
  entropy T*S    EENTRO =         0.00273827
  eigenvalues    EBANDS =       187.78331165
  atomic energy  EATOM  =     18662.21924712
  Solvation  Ediel_sol  =         0.00000000
  ---------------------------------------------------
  free energy    TOTEN  =      1118.92637789 eV

  energy without entropy =     1118.92363962  energy(sigma->0) =     1118.92546513


--------------------------------------------------------------------------------------------------------




--------------------------------------- Iteration      1(   2)  ---------------------------------------


     EDDAV:  cpu time    7.4053: real time    7.4096
       DOS:  cpu time    0.0008: real time    0.0008
    --------------------------------------------
      LOOP:  cpu time    7.4060: real time    7.4104

 eigenvalue-minimisations  :   368
 total energy-change (2. order) :-0.1032710E+04  (-0.9808954E+03)
 number of electron     153.0000000 magnetization       1.0000000
 augmentation part      153.0000000 magnetization       1.0000000

 Free energy of the ion-electron system (eV)
  ---------------------------------------------------
  alpha Z        PSCENC =        41.16232785
  Ewald energy   TEWEN  =     16743.64729631
  -Hartree energ DENC   =    -33761.38846015
  -exchange      EXHF   =         0.00000000
  -V(xc)+E(xc)   XCENC  =       623.81036636
  PAW double counting   =     16421.75059358   -17800.06104309
  entropy T*S    EENTRO =         0.00580727
  eigenvalues    EBANDS =      -844.92989277
  atomic energy  EATOM  =     18662.21924712
  Solvation  Ediel_sol  =         0.00000000
  ---------------------------------------------------
  free energy    TOTEN  =        86.21624247 eV

  energy without entropy =       86.21043520  energy(sigma->0) =       86.21430671


--------------------------------------------------------------------------------------------------------




--------------------------------------- Iteration      1(   3)  ---------------------------------------


     EDDAV:  cpu time   11.4822: real time   11.4879
       DOS:  cpu time    0.0007: real time    0.0007
    --------------------------------------------
      LOOP:  cpu time   11.4829: real time   11.4886

 eigenvalue-minimisations  :   640
 total energy-change (2. order) :-0.1183265E+03  (-0.1091680E+03)
 number of electron     153.0000000 magnetization       1.0000000
 augmentation part      153.0000000 magnetization       1.0000000

 Free energy of the ion-electron system (eV)
  ---------------------------------------------------
  alpha Z        PSCENC =        41.16232785
  Ewald energy   TEWEN  =     16743.64729631
  -Hartree energ DENC   =    -33761.38846015
  -exchange      EXHF   =         0.00000000
  -V(xc)+E(xc)   XCENC  =       623.81036636
  PAW double counting   =     16421.75059358   -17800.06104309
  entropy T*S    EENTRO =         0.01540094
  eigenvalues    EBANDS =      -963.26598520
  atomic energy  EATOM  =     18662.21924712
  Solvation  Ediel_sol  =         0.00000000
  ---------------------------------------------------
  free energy    TOTEN  =       -32.11025629 eV

  energy without entropy =      -32.12565723  energy(sigma->0) =      -32.11538993


--------------------------------------------------------------------------------------------------------




--------------------------------------- Iteration      1(   4)  ---------------------------------------


     EDDAV:  cpu time   10.1201: real time   10.1270
       DOS:  cpu time    0.0006: real time    0.0006
    --------------------------------------------
      LOOP:  cpu time   10.1207: real time   10.1276

 eigenvalue-minimisations  :   552
 total energy-change (2. order) :-0.2347570E+02  (-0.2313282E+02)
 number of electron     153.0000000 magnetization       1.0000000
 augmentation part      153.0000000 magnetization       1.0000000

 Free energy of the ion-electron system (eV)
  ---------------------------------------------------
  alpha Z        PSCENC =        41.16232785
  Ewald energy   TEWEN  =     16743.64729631
  -Hartree energ DENC   =    -33761.38846015
  -exchange      EXHF   =         0.00000000
  -V(xc)+E(xc)   XCENC  =       623.81036636
  PAW double counting   =     16421.75059358   -17800.06104309
  entropy T*S    EENTRO =         0.01089938
  eigenvalues    EBANDS =      -986.73718346
  atomic energy  EATOM  =     18662.21924712
  Solvation  Ediel_sol  =         0.00000000
  ---------------------------------------------------
  free energy    TOTEN  =       -55.58595612 eV

  energy without entropy =      -55.59685549  energy(sigma->0) =      -55.58958924


--------------------------------------------------------------------------------------------------------




--------------------------------------- Iteration      1(   5)  ---------------------------------------


     EDDAV:  cpu time   12.0983: real time   12.1028
       DOS:  cpu time    0.0008: real time    0.0008
    CHARGE:  cpu time    0.6621: real time    0.6624
    MIXING:  cpu time    0.0229: real time    0.0230
    --------------------------------------------
      LOOP:  cpu time   12.7840: real time   12.7889

 eigenvalue-minimisations  :   684
 total energy-change (2. order) :-0.1729320E+01  (-0.1574237E+01)
 number of electron     153.0000003 magnetization       1.0000000
 augmentation part       87.4294553 magnetization       0.3644102

 Broyden mixing:
  rms(total) = 0.23467E+01    rms(broyden)= 0.23466E+01
  rms(prec ) = 0.26918E+01
  weight for this iteration     100.00

 Free energy of the ion-electron system (eV)
  ---------------------------------------------------
  alpha Z        PSCENC =        41.16232785
  Ewald energy   TEWEN  =     16743.64729631
  -Hartree energ DENC   =    -33761.38846015
  -exchange      EXHF   =         0.00000000
  -V(xc)+E(xc)   XCENC  =       623.81036636
  PAW double counting   =     16421.75059358   -17800.06104309
  entropy T*S    EENTRO =         0.01222090
  eigenvalues    EBANDS =      -988.46782468
  atomic energy  EATOM  =     18662.21924712
  Solvation  Ediel_sol  =         0.00000000
  ---------------------------------------------------
  free energy    TOTEN  =       -57.31527581 eV

  energy without entropy =      -57.32749671  energy(sigma->0) =      -57.31934945


--------------------------------------------------------------------------------------------------------




--------------------------------------- Iteration      1(   6)  ---------------------------------------


    POTLOK:  cpu time    1.1629: real time    1.1641
    SETDIJ:  cpu time    0.0181: real time    0.0181
    EDDIAG:  cpu time    1.1057: real time    1.1062
  RMM-DIIS:  cpu time    7.0885: real time    7.0914
    ORTHCH:  cpu time    0.0587: real time    0.0587
       DOS:  cpu time    0.0006: real time    0.0006
    CHARGE:  cpu time    0.6483: real time    0.6486
    MIXING:  cpu time    0.0236: real time    0.0236
    --------------------------------------------
      LOOP:  cpu time   10.1064: real time   10.1113

 eigenvalue-minimisations  :   416
 total energy-change (2. order) : 0.1335510E+01  (-0.1160358E+02)
 number of electron     153.0000004 magnetization       1.0000000
 augmentation part       95.6250796 magnetization       0.0708971

 Broyden mixing:
  rms(total) = 0.15014E+01    rms(broyden)= 0.15012E+01
  rms(prec ) = 0.17356E+01
  weight for this iteration     100.00

 eigenvalues of (default mixing * dielectric matrix)
  average eigenvalue GAMMA=   0.6201
  0.6201

 Free energy of the ion-electron system (eV)
  ---------------------------------------------------
  alpha Z        PSCENC =        41.16232785
  Ewald energy   TEWEN  =     16743.64729631
  -Hartree energ DENC   =    -33509.83662264
  -exchange      EXHF   =         0.00000000
  -V(xc)+E(xc)   XCENC  =       611.60292283
  PAW double counting   =     16719.71394232   -18044.09055295
  entropy T*S    EENTRO =         0.00927518
  eigenvalues    EBANDS =     -1280.40760206
  atomic energy  EATOM  =     18662.21924712
  Solvation  Ediel_sol  =         0.00000000
  ---------------------------------------------------
  free energy    TOTEN  =       -55.97976604 eV

  energy without entropy =      -55.98904122  energy(sigma->0) =      -55.98285777


--------------------------------------------------------------------------------------------------------




--------------------------------------- Iteration      1(   7)  ---------------------------------------


    POTLOK:  cpu time    1.1631: real time    1.1652
    SETDIJ:  cpu time    0.0176: real time    0.0176
    EDDIAG:  cpu time    1.1067: real time    1.1074
  RMM-DIIS:  cpu time    6.5188: real time    6.5203
    ORTHCH:  cpu time    0.0590: real time    0.0590
       DOS:  cpu time    0.0004: real time    0.0004
    CHARGE:  cpu time    0.6493: real time    0.6497
    MIXING:  cpu time    0.0234: real time    0.0233
    --------------------------------------------
      LOOP:  cpu time    9.5383: real time    9.5430

 eigenvalue-minimisations  :   381
 total energy-change (2. order) : 0.6684507E+01  (-0.2378693E+01)
 number of electron     153.0000004 magnetization       1.0000000
 augmentation part       92.7822686 magnetization       0.1043623

 Broyden mixing:
  rms(total) = 0.36681E+00    rms(broyden)= 0.36678E+00
  rms(prec ) = 0.46054E+00
  weight for this iteration     100.00

 eigenvalues of (default mixing * dielectric matrix)
  average eigenvalue GAMMA=   0.9009
  1.1351  0.6668

 Free energy of the ion-electron system (eV)
  ---------------------------------------------------
  alpha Z        PSCENC =        41.16232785
  Ewald energy   TEWEN  =     16743.64729631
  -Hartree energ DENC   =    -33646.32802210
  -exchange      EXHF   =         0.00000000
  -V(xc)+E(xc)   XCENC  =       616.01109667
  PAW double counting   =     17066.15748523   -18440.59860690
  entropy T*S    EENTRO =         0.00898741
  eigenvalues    EBANDS =     -1091.57507060
  atomic energy  EATOM  =     18662.21924712
  Solvation  Ediel_sol  =         0.00000000
  ---------------------------------------------------
  free energy    TOTEN  =       -49.29525902 eV

  energy without entropy =      -49.30424644  energy(sigma->0) =      -49.29825483


--------------------------------------------------------------------------------------------------------




--------------------------------------- Iteration      1(   8)  ---------------------------------------


    POTLOK:  cpu time    1.1639: real time    1.1684
    SETDIJ:  cpu time    0.0173: real time    0.0173
    EDDIAG:  cpu time    1.1073: real time    1.1077
  RMM-DIIS:  cpu time    7.0419: real time    7.0438
    ORTHCH:  cpu time    0.0592: real time    0.0592
       DOS:  cpu time    0.0005: real time    0.0005
    CHARGE:  cpu time    0.6537: real time    0.6540
    MIXING:  cpu time    0.0242: real time    0.0241
    --------------------------------------------
      LOOP:  cpu time   10.0679: real time   10.0751

 eigenvalue-minimisations  :   429
 total energy-change (2. order) : 0.2561752E+00  (-0.3567998E+00)
 number of electron     153.0000003 magnetization       1.0000000
 augmentation part       92.0749385 magnetization       0.1052208

 Broyden mixing:
  rms(total) = 0.25986E+00    rms(broyden)= 0.25984E+00
  rms(prec ) = 0.29355E+00
  weight for this iteration     100.00

 eigenvalues of (default mixing * dielectric matrix)
  average eigenvalue GAMMA=   0.9611
  1.4479  0.7177  0.7177

 Free energy of the ion-electron system (eV)
  ---------------------------------------------------
  alpha Z        PSCENC =        41.16232785
  Ewald energy   TEWEN  =     16743.64729631
  -Hartree energ DENC   =    -33692.22511353
  -exchange      EXHF   =         0.00000000
  -V(xc)+E(xc)   XCENC  =       616.29561448
  PAW double counting   =     17409.17824236   -18802.38590264
  entropy T*S    EENTRO =         0.00914054
  eigenvalues    EBANDS =     -1026.93993626
  atomic energy  EATOM  =     18662.21924712
  Solvation  Ediel_sol  =         0.00000000
  ---------------------------------------------------
  free energy    TOTEN  =       -49.03908378 eV

  energy without entropy =      -49.04822432  energy(sigma->0) =      -49.04213063


--------------------------------------------------------------------------------------------------------




--------------------------------------- Iteration      1(   9)  ---------------------------------------


    POTLOK:  cpu time    1.1649: real time    1.1666
    SETDIJ:  cpu time    0.0175: real time    0.0175
    EDDIAG:  cpu time    1.1065: real time    1.1078
  RMM-DIIS:  cpu time    6.9653: real time    6.9673
    ORTHCH:  cpu time    0.0590: real time    0.0590
       DOS:  cpu time    0.0005: real time    0.0005
    CHARGE:  cpu time    0.6540: real time    0.6542
    MIXING:  cpu time    0.0255: real time    0.0254
    --------------------------------------------
      LOOP:  cpu time    9.9931: real time    9.9984

 eigenvalue-minimisations  :   416
 total energy-change (2. order) : 0.3153764E-01  (-0.8140356E-01)
 number of electron     153.0000004 magnetization       1.0000000
 augmentation part       92.2577497 magnetization       0.0876108

 Broyden mixing:
  rms(total) = 0.17024E+00    rms(broyden)= 0.17024E+00
  rms(prec ) = 0.20195E+00
  weight for this iteration     100.00

 eigenvalues of (default mixing * dielectric matrix)
  average eigenvalue GAMMA=   1.0206
  2.0311  0.7688  0.7688  0.5139

 Free energy of the ion-electron system (eV)
  ---------------------------------------------------
  alpha Z        PSCENC =        41.16232785
  Ewald energy   TEWEN  =     16743.64729631
  -Hartree energ DENC   =    -33691.02044346
  -exchange      EXHF   =         0.00000000
  -V(xc)+E(xc)   XCENC  =       615.75957086
  PAW double counting   =     17544.21341344   -18940.11393318
  entropy T*S    EENTRO =         0.00907060
  eigenvalues    EBANDS =     -1024.88409567
  atomic energy  EATOM  =     18662.21924712
  Solvation  Ediel_sol  =         0.00000000
  ---------------------------------------------------
  free energy    TOTEN  =       -49.00754614 eV

  energy without entropy =      -49.01661675  energy(sigma->0) =      -49.01056968


--------------------------------------------------------------------------------------------------------




--------------------------------------- Iteration      1(  10)  ---------------------------------------


    POTLOK:  cpu time    1.1662: real time    1.1674
    SETDIJ:  cpu time    0.0175: real time    0.0175
    EDDIAG:  cpu time    1.1051: real time    1.1058
  RMM-DIIS:  cpu time    7.5444: real time    7.5465
    ORTHCH:  cpu time    0.0577: real time    0.0577
       DOS:  cpu time    0.0004: real time    0.0004
    CHARGE:  cpu time    0.6548: real time    0.6550
    MIXING:  cpu time    0.0255: real time    0.0255
    --------------------------------------------
      LOOP:  cpu time   10.5716: real time   10.5757

 eigenvalue-minimisations  :   419
 total energy-change (2. order) : 0.5002110E-01  (-0.2221242E-01)
 number of electron     153.0000003 magnetization       1.0000000
 augmentation part       92.3826177 magnetization       0.0779995

 Broyden mixing:
  rms(total) = 0.52025E-01    rms(broyden)= 0.52020E-01
  rms(prec ) = 0.68201E-01
  weight for this iteration     100.00

 eigenvalues of (default mixing * dielectric matrix)
  average eigenvalue GAMMA=   1.0449
  2.0782  1.1218  0.7825  0.7825  0.4597

 Free energy of the ion-electron system (eV)
  ---------------------------------------------------
  alpha Z        PSCENC =        41.16232785
  Ewald energy   TEWEN  =     16743.64729631
  -Hartree energ DENC   =    -33690.45631554
  -exchange      EXHF   =         0.00000000
  -V(xc)+E(xc)   XCENC  =       615.47268491
  PAW double counting   =     17626.55227537   -19024.07459659
  entropy T*S    EENTRO =         0.00921369
  eigenvalues    EBANDS =     -1023.48965816
  atomic energy  EATOM  =     18662.21924712
  Solvation  Ediel_sol  =         0.00000000
  ---------------------------------------------------
  free energy    TOTEN  =       -48.95752504 eV

  energy without entropy =      -48.96673874  energy(sigma->0) =      -48.96059627


--------------------------------------------------------------------------------------------------------




--------------------------------------- Iteration      1(  11)  ---------------------------------------


    POTLOK:  cpu time    1.1677: real time    1.1706
    SETDIJ:  cpu time    0.0175: real time    0.0175
    EDDIAG:  cpu time    1.1060: real time    1.1064
  RMM-DIIS:  cpu time    7.2719: real time    7.2737
    ORTHCH:  cpu time    0.0572: real time    0.0572
       DOS:  cpu time    0.0004: real time    0.0004
    CHARGE:  cpu time    0.6508: real time    0.6511
    MIXING:  cpu time    0.0264: real time    0.0264
    --------------------------------------------
      LOOP:  cpu time   10.2978: real time   10.3032

 eigenvalue-minimisations  :   443
 total energy-change (2. order) : 0.9126799E-02  (-0.5754255E-02)
 number of electron     153.0000003 magnetization       1.0000000
 augmentation part       92.3521672 magnetization       0.0806932

 Broyden mixing:
  rms(total) = 0.36517E-01    rms(broyden)= 0.36516E-01
  rms(prec ) = 0.48194E-01
  weight for this iteration     100.00

 eigenvalues of (default mixing * dielectric matrix)
  average eigenvalue GAMMA=   1.0563
  2.1912  1.5052  0.7747  0.7747  0.6310  0.4610

 Free energy of the ion-electron system (eV)
  ---------------------------------------------------
  alpha Z        PSCENC =        41.16232785
  Ewald energy   TEWEN  =     16743.64729631
  -Hartree energ DENC   =    -33697.08728378
  -exchange      EXHF   =         0.00000000
  -V(xc)+E(xc)   XCENC  =       615.55607094
  PAW double counting   =     17676.93265626   -19076.49952536
  entropy T*S    EENTRO =         0.00911599
  eigenvalues    EBANDS =     -1014.88830357
  atomic energy  EATOM  =     18662.21924712
  Solvation  Ediel_sol  =         0.00000000
  ---------------------------------------------------
  free energy    TOTEN  =       -48.94839824 eV

  energy without entropy =      -48.95751423  energy(sigma->0) =      -48.95143691


--------------------------------------------------------------------------------------------------------




--------------------------------------- Iteration      1(  12)  ---------------------------------------


    POTLOK:  cpu time    1.1639: real time    1.1645
    SETDIJ:  cpu time    0.0178: real time    0.0178
    EDDIAG:  cpu time    1.1015: real time    1.1019
  RMM-DIIS:  cpu time    7.1801: real time    7.1820
    ORTHCH:  cpu time    0.0564: real time    0.0563
       DOS:  cpu time    0.0004: real time    0.0004
    CHARGE:  cpu time    0.6555: real time    0.6557
    MIXING:  cpu time    0.0273: real time    0.0273
    --------------------------------------------
      LOOP:  cpu time   10.2029: real time   10.2060

 eigenvalue-minimisations  :   421
 total energy-change (2. order) : 0.2087214E-02  (-0.1655819E-02)
 number of electron     153.0000003 magnetization       1.0000000
 augmentation part       92.3579142 magnetization       0.0802019

 Broyden mixing:
  rms(total) = 0.15099E-01    rms(broyden)= 0.15098E-01
  rms(prec ) = 0.27437E-01
  weight for this iteration     100.00

 eigenvalues of (default mixing * dielectric matrix)
  average eigenvalue GAMMA=   1.0684
  2.4222  1.5710  1.0113  0.7410  0.7410  0.5350  0.4574

 Free energy of the ion-electron system (eV)
  ---------------------------------------------------
  alpha Z        PSCENC =        41.16232785
  Ewald energy   TEWEN  =     16743.64729631
  -Hartree energ DENC   =    -33699.83931691
  -exchange      EXHF   =         0.00000000
  -V(xc)+E(xc)   XCENC  =       615.57863261
  PAW double counting   =     17686.30449059   -19086.17699483
  entropy T*S    EENTRO =         0.00918649
  eigenvalues    EBANDS =     -1011.85118025
  atomic energy  EATOM  =     18662.21924712
  Solvation  Ediel_sol  =         0.00000000
  ---------------------------------------------------
  free energy    TOTEN  =       -48.94631103 eV

  energy without entropy =      -48.95549752  energy(sigma->0) =      -48.94937319


--------------------------------------------------------------------------------------------------------




--------------------------------------- Iteration      1(  13)  ---------------------------------------


    POTLOK:  cpu time    1.1651: real time    1.1655
    SETDIJ:  cpu time    0.0178: real time    0.0178
    EDDIAG:  cpu time    1.1030: real time    1.1033
  RMM-DIIS:  cpu time    7.6082: real time    7.6105
    ORTHCH:  cpu time    0.0567: real time    0.0567
       DOS:  cpu time    0.0004: real time    0.0004
    CHARGE:  cpu time    0.6539: real time    0.6539
    MIXING:  cpu time    0.0280: real time    0.0280
    --------------------------------------------
      LOOP:  cpu time   10.6331: real time   10.6360

 eigenvalue-minimisations  :   466
 total energy-change (2. order) : 0.6281372E-03  (-0.4655362E-03)
 number of electron     153.0000003 magnetization       1.0000000
 augmentation part       92.3629985 magnetization       0.0802306

 Broyden mixing:
  rms(total) = 0.95529E-02    rms(broyden)= 0.95526E-02
  rms(prec ) = 0.19071E-01
  weight for this iteration     100.00

 eigenvalues of (default mixing * dielectric matrix)
  average eigenvalue GAMMA=   1.1116
  2.3922  1.9022  1.3411  0.7951  0.7951  0.6995  0.5232  0.4445

 Free energy of the ion-electron system (eV)
  ---------------------------------------------------
  alpha Z        PSCENC =        41.16232785
  Ewald energy   TEWEN  =     16743.64729631
  -Hartree energ DENC   =    -33704.03324793
  -exchange      EXHF   =         0.00000000
  -V(xc)+E(xc)   XCENC  =       615.59435272
  PAW double counting   =     17691.23889910   -19091.19511132
  entropy T*S    EENTRO =         0.00917512
  eigenvalues    EBANDS =     -1007.58862186
  atomic energy  EATOM  =     18662.21924712
  Solvation  Ediel_sol  =         0.00000000
  ---------------------------------------------------
  free energy    TOTEN  =       -48.94568289 eV

  energy without entropy =      -48.95485801  energy(sigma->0) =      -48.94874127


--------------------------------------------------------------------------------------------------------




--------------------------------------- Iteration      1(  14)  ---------------------------------------


    POTLOK:  cpu time    1.1654: real time    1.1704
    SETDIJ:  cpu time    0.0179: real time    0.0179
    EDDIAG:  cpu time    1.1005: real time    1.1012
  RMM-DIIS:  cpu time    7.5465: real time    7.5490
    ORTHCH:  cpu time    0.0568: real time    0.0568
       DOS:  cpu time    0.0005: real time    0.0005
    CHARGE:  cpu time    0.6518: real time    0.6522
    MIXING:  cpu time    0.0289: real time    0.0289
    --------------------------------------------
      LOOP:  cpu time   10.5683: real time   10.5768

 eigenvalue-minimisations  :   441
 total energy-change (2. order) :-0.1227981E-02  (-0.2697499E-03)
 number of electron     153.0000003 magnetization       1.0000000
 augmentation part       92.3630874 magnetization       0.0804692

 Broyden mixing:
  rms(total) = 0.82610E-02    rms(broyden)= 0.82608E-02
  rms(prec ) = 0.14195E-01
  weight for this iteration     100.00

 eigenvalues of (default mixing * dielectric matrix)
  average eigenvalue GAMMA=   1.1510
  2.4343  2.4343  1.2723  1.0099  0.7951  0.7951  0.6711  0.4991  0.4478

 Free energy of the ion-electron system (eV)
  ---------------------------------------------------
  alpha Z        PSCENC =        41.16232785
  Ewald energy   TEWEN  =     16743.64729631
  -Hartree energ DENC   =    -33709.63294928
  -exchange      EXHF   =         0.00000000
  -V(xc)+E(xc)   XCENC  =       615.64238273
  PAW double counting   =     17682.01376665   -19081.66430449
  entropy T*S    EENTRO =         0.00918346
  eigenvalues    EBANDS =     -1002.34386122
  atomic energy  EATOM  =     18662.21924712
  Solvation  Ediel_sol  =         0.00000000
  ---------------------------------------------------
  free energy    TOTEN  =       -48.94691087 eV

  energy without entropy =      -48.95609433  energy(sigma->0) =      -48.94997202


--------------------------------------------------------------------------------------------------------




--------------------------------------- Iteration      1(  15)  ---------------------------------------


    POTLOK:  cpu time    1.1659: real time    1.1663
    SETDIJ:  cpu time    0.0173: real time    0.0173
    EDDIAG:  cpu time    1.1002: real time    1.1011
  RMM-DIIS:  cpu time    6.9040: real time    6.9058
    ORTHCH:  cpu time    0.0564: real time    0.0564
       DOS:  cpu time    0.0005: real time    0.0005
    CHARGE:  cpu time    0.6540: real time    0.6542
    MIXING:  cpu time    0.0292: real time    0.0292
    --------------------------------------------
      LOOP:  cpu time    9.9276: real time    9.9307

 eigenvalue-minimisations  :   399
 total energy-change (2. order) :-0.1135071E-02  (-0.1378543E-03)
 number of electron     153.0000003 magnetization       1.0000000
 augmentation part       92.3597053 magnetization       0.0808779

 Broyden mixing:
  rms(total) = 0.56334E-02    rms(broyden)= 0.56331E-02
  rms(prec ) = 0.95760E-02
  weight for this iteration     100.00

 eigenvalues of (default mixing * dielectric matrix)
  average eigenvalue GAMMA=   1.1769
  2.7012  2.7012  1.3082  1.3082  0.7797  0.7797  0.7120  0.5535  0.4505  0.4743

 Free energy of the ion-electron system (eV)
  ---------------------------------------------------
  alpha Z        PSCENC =        41.16232785
  Ewald energy   TEWEN  =     16743.64729631
  -Hartree energ DENC   =    -33712.96063457
  -exchange      EXHF   =         0.00000000
  -V(xc)+E(xc)   XCENC  =       615.67571020
  PAW double counting   =     17677.20560163   -19076.75784661
  entropy T*S    EENTRO =         0.00917728
  eigenvalues    EBANDS =      -999.14892514
  atomic energy  EATOM  =     18662.21924712
  Solvation  Ediel_sol  =         0.00000000
  ---------------------------------------------------
  free energy    TOTEN  =       -48.94804594 eV

  energy without entropy =      -48.95722322  energy(sigma->0) =      -48.95110504


--------------------------------------------------------------------------------------------------------




--------------------------------------- Iteration      1(  16)  ---------------------------------------


    POTLOK:  cpu time    1.1656: real time    1.1659
    SETDIJ:  cpu time    0.0177: real time    0.0177
    EDDIAG:  cpu time    1.1030: real time    1.1036
  RMM-DIIS:  cpu time    7.1848: real time    7.1869
    ORTHCH:  cpu time    0.0556: real time    0.0556
       DOS:  cpu time    0.0004: real time    0.0004
    CHARGE:  cpu time    0.6535: real time    0.6535
    MIXING:  cpu time    0.0302: real time    0.0304
    --------------------------------------------
      LOOP:  cpu time   10.2109: real time   10.2140

 eigenvalue-minimisations  :   389
 total energy-change (2. order) :-0.1400165E-02  (-0.6239757E-04)
 number of electron     153.0000003 magnetization       1.0000000
 augmentation part       92.3612271 magnetization       0.0809131

 Broyden mixing:
  rms(total) = 0.40031E-02    rms(broyden)= 0.40030E-02
  rms(prec ) = 0.66183E-02
  weight for this iteration     100.00

 eigenvalues of (default mixing * dielectric matrix)
  average eigenvalue GAMMA=   1.2298
  3.2131  2.5895  1.5208  1.5208  0.8703  0.8703  0.7407  0.7407  0.4469  0.5230
  0.4921

 Free energy of the ion-electron system (eV)
  ---------------------------------------------------
  alpha Z        PSCENC =        41.16232785
  Ewald energy   TEWEN  =     16743.64729631
  -Hartree energ DENC   =    -33715.30572038
  -exchange      EXHF   =         0.00000000
  -V(xc)+E(xc)   XCENC  =       615.69480282
  PAW double counting   =     17673.40022127   -19072.86456392
  entropy T*S    EENTRO =         0.00916904
  eigenvalues    EBANDS =      -996.91222622
  atomic energy  EATOM  =     18662.21924712
  Solvation  Ediel_sol  =         0.00000000
  ---------------------------------------------------
  free energy    TOTEN  =       -48.94944611 eV

  energy without entropy =      -48.95861515  energy(sigma->0) =      -48.95250246


--------------------------------------------------------------------------------------------------------




--------------------------------------- Iteration      1(  17)  ---------------------------------------


    POTLOK:  cpu time    1.1658: real time    1.1687
    SETDIJ:  cpu time    0.0180: real time    0.0180
    EDDIAG:  cpu time    1.1028: real time    1.1031
  RMM-DIIS:  cpu time    6.8237: real time    6.8256
    ORTHCH:  cpu time    0.0562: real time    0.0562
       DOS:  cpu time    0.0004: real time    0.0004
    CHARGE:  cpu time    0.6517: real time    0.6517
    MIXING:  cpu time    0.0311: real time    0.0311
    --------------------------------------------
      LOOP:  cpu time    9.8497: real time    9.8547

 eigenvalue-minimisations  :   394
 total energy-change (2. order) :-0.1770259E-02  (-0.5001998E-04)
 number of electron     153.0000003 magnetization       1.0000000
 augmentation part       92.3615007 magnetization       0.0808234

 Broyden mixing:
  rms(total) = 0.23360E-02    rms(broyden)= 0.23360E-02
  rms(prec ) = 0.38371E-02
  weight for this iteration     100.00

 eigenvalues of (default mixing * dielectric matrix)
  average eigenvalue GAMMA=   1.3436
  4.4544  2.5910  2.1900  1.3534  1.0724  0.7936  0.7936  0.7354  0.6839  0.4473
  0.5174  0.4913

 Free energy of the ion-electron system (eV)
  ---------------------------------------------------
  alpha Z        PSCENC =        41.16232785
  Ewald energy   TEWEN  =     16743.64729631
  -Hartree energ DENC   =    -33717.43088808
  -exchange      EXHF   =         0.00000000
  -V(xc)+E(xc)   XCENC  =       615.70215815
  PAW double counting   =     17672.07593695   -19071.53279918
  entropy T*S    EENTRO =         0.00916881
  eigenvalues    EBANDS =      -994.80366430
  atomic energy  EATOM  =     18662.21924712
  Solvation  Ediel_sol  =         0.00000000
  ---------------------------------------------------
  free energy    TOTEN  =       -48.95121637 eV

  energy without entropy =      -48.96038518  energy(sigma->0) =      -48.95427264


--------------------------------------------------------------------------------------------------------




--------------------------------------- Iteration      1(  18)  ---------------------------------------


    POTLOK:  cpu time    1.1657: real time    1.1663
    SETDIJ:  cpu time    0.0178: real time    0.0178
    EDDIAG:  cpu time    1.1019: real time    1.1024
  RMM-DIIS:  cpu time    7.0433: real time    7.0454
    ORTHCH:  cpu time    0.0554: real time    0.0554
       DOS:  cpu time    0.0005: real time    0.0005
    CHARGE:  cpu time    0.6520: real time    0.6522
    MIXING:  cpu time    0.0324: real time    0.0324
    --------------------------------------------
      LOOP:  cpu time   10.0691: real time   10.0725

 eigenvalue-minimisations  :   418
 total energy-change (2. order) :-0.8005312E-03  (-0.2160164E-04)
 number of electron     153.0000003 magnetization       1.0000000
 augmentation part       92.3580634 magnetization       0.0810047

 Broyden mixing:
  rms(total) = 0.16315E-02    rms(broyden)= 0.16314E-02
  rms(prec ) = 0.27244E-02
  weight for this iteration     100.00

 eigenvalues of (default mixing * dielectric matrix)
  average eigenvalue GAMMA=   1.3674
  5.0849  2.6801  2.1757  1.2938  1.2938  0.8749  0.8749  0.7264  0.7264  0.6012
  0.4478  0.5108  0.4861

 Free energy of the ion-electron system (eV)
  ---------------------------------------------------
  alpha Z        PSCENC =        41.16232785
  Ewald energy   TEWEN  =     16743.64729631
  -Hartree energ DENC   =    -33718.44395240
  -exchange      EXHF   =         0.00000000
  -V(xc)+E(xc)   XCENC  =       615.70726844
  PAW double counting   =     17672.11663108   -19071.61044457
  entropy T*S    EENTRO =         0.00916998
  eigenvalues    EBANDS =      -993.75956071
  atomic energy  EATOM  =     18662.21924712
  Solvation  Ediel_sol  =         0.00000000
  ---------------------------------------------------
  free energy    TOTEN  =       -48.95201690 eV

  energy without entropy =      -48.96118688  energy(sigma->0) =      -48.95507356


--------------------------------------------------------------------------------------------------------




--------------------------------------- Iteration      1(  19)  ---------------------------------------


    POTLOK:  cpu time    1.1659: real time    1.1662
    SETDIJ:  cpu time    0.0178: real time    0.0178
    EDDIAG:  cpu time    1.1030: real time    1.1032
  RMM-DIIS:  cpu time    7.1269: real time    7.1290
    ORTHCH:  cpu time    0.0558: real time    0.0558
       DOS:  cpu time    0.0004: real time    0.0004
    CHARGE:  cpu time    0.6506: real time    0.6509
    MIXING:  cpu time    0.0345: real time    0.0345
    --------------------------------------------
      LOOP:  cpu time   10.1550: real time   10.1579

 eigenvalue-minimisations  :   434
 total energy-change (2. order) :-0.6389393E-03  (-0.8977472E-05)
 number of electron     153.0000003 magnetization       1.0000000
 augmentation part       92.3575595 magnetization       0.0809619

 Broyden mixing:
  rms(total) = 0.12104E-02    rms(broyden)= 0.12104E-02
  rms(prec ) = 0.20284E-02
  weight for this iteration     100.00

 eigenvalues of (default mixing * dielectric matrix)
  average eigenvalue GAMMA=   1.4260
  5.9210  2.6924  2.2445  1.5437  1.5437  0.9407  0.9407  0.7423  0.7423  0.6650
  0.4472  0.5448  0.5125  0.4839

 Free energy of the ion-electron system (eV)
  ---------------------------------------------------
  alpha Z        PSCENC =        41.16232785
  Ewald energy   TEWEN  =     16743.64729631
  -Hartree energ DENC   =    -33718.81581478
  -exchange      EXHF   =         0.00000000
  -V(xc)+E(xc)   XCENC  =       615.70758818
  PAW double counting   =     17672.12478387   -19071.62504306
  entropy T*S    EENTRO =         0.00917006
  eigenvalues    EBANDS =      -993.38221139
  atomic energy  EATOM  =     18662.21924712
  Solvation  Ediel_sol  =         0.00000000
  ---------------------------------------------------
  free energy    TOTEN  =       -48.95265584 eV

  energy without entropy =      -48.96182590  energy(sigma->0) =      -48.95571253


--------------------------------------------------------------------------------------------------------




--------------------------------------- Iteration      1(  20)  ---------------------------------------


    POTLOK:  cpu time    1.1651: real time    1.1702
    SETDIJ:  cpu time    0.0182: real time    0.0182
    EDDIAG:  cpu time    1.1017: real time    1.1022
  RMM-DIIS:  cpu time    6.6438: real time    6.6457
    ORTHCH:  cpu time    0.0559: real time    0.0559
       DOS:  cpu time    0.0005: real time    0.0005
    CHARGE:  cpu time    0.6523: real time    0.6526
    MIXING:  cpu time    0.0354: real time    0.0354
    --------------------------------------------
      LOOP:  cpu time    9.6730: real time    9.6807

 eigenvalue-minimisations  :   401
 total energy-change (2. order) :-0.5546615E-03  (-0.4125183E-05)
 number of electron     153.0000003 magnetization       1.0000000
 augmentation part       92.3593981 magnetization       0.0809580

 Broyden mixing:
  rms(total) = 0.68525E-03    rms(broyden)= 0.68517E-03
  rms(prec ) = 0.12336E-02
  weight for this iteration     100.00

 eigenvalues of (default mixing * dielectric matrix)
  average eigenvalue GAMMA=   1.4661
  6.4456  2.8136  2.3115  2.0121  1.2531  1.2531  0.8949  0.8949  0.7409  0.7409
  0.6431  0.4473  0.4826  0.5289  0.5289

 Free energy of the ion-electron system (eV)
  ---------------------------------------------------
  alpha Z        PSCENC =        41.16232785
  Ewald energy   TEWEN  =     16743.64729631
  -Hartree energ DENC   =    -33718.85490631
  -exchange      EXHF   =         0.00000000
  -V(xc)+E(xc)   XCENC  =       615.70443002
  PAW double counting   =     17672.39111166   -19071.88438323
  entropy T*S    EENTRO =         0.00917010
  eigenvalues    EBANDS =      -993.34750401
  atomic energy  EATOM  =     18662.21924712
  Solvation  Ediel_sol  =         0.00000000
  ---------------------------------------------------
  free energy    TOTEN  =       -48.95321050 eV

  energy without entropy =      -48.96238060  energy(sigma->0) =      -48.95626720


--------------------------------------------------------------------------------------------------------




--------------------------------------- Iteration      1(  21)  ---------------------------------------


    POTLOK:  cpu time    1.1649: real time    1.1653
    SETDIJ:  cpu time    0.0184: real time    0.0184
    EDDIAG:  cpu time    1.1014: real time    1.1018
  RMM-DIIS:  cpu time    6.6972: real time    6.6993
    ORTHCH:  cpu time    0.0559: real time    0.0559
       DOS:  cpu time    0.0004: real time    0.0004
    CHARGE:  cpu time    0.6525: real time    0.6525
    MIXING:  cpu time    0.0366: real time    0.0370
    --------------------------------------------
      LOOP:  cpu time    9.7273: real time    9.7304

 eigenvalue-minimisations  :   399
 total energy-change (2. order) :-0.3938318E-03  (-0.3214927E-05)
 number of electron     153.0000003 magnetization       1.0000000
 augmentation part       92.3607070 magnetization       0.0809566

 Broyden mixing:
  rms(total) = 0.78264E-03    rms(broyden)= 0.78261E-03
  rms(prec ) = 0.10981E-02
  weight for this iteration     100.00

 eigenvalues of (default mixing * dielectric matrix)
  average eigenvalue GAMMA=   1.5063
  6.6898  3.2391  2.4858  2.1370  1.4156  1.4156  0.9429  0.9429  0.7639  0.7639
  0.6865  0.6550  0.4474  0.4812  0.5167  0.5167

 Free energy of the ion-electron system (eV)
  ---------------------------------------------------
  alpha Z        PSCENC =        41.16232785
  Ewald energy   TEWEN  =     16743.64729631
  -Hartree energ DENC   =    -33718.85526475
  -exchange      EXHF   =         0.00000000
  -V(xc)+E(xc)   XCENC  =       615.70186609
  PAW double counting   =     17672.60506044   -19072.09160406
  entropy T*S    EENTRO =         0.00917131
  eigenvalues    EBANDS =      -993.35170464
  atomic energy  EATOM  =     18662.21924712
  Solvation  Ediel_sol  =         0.00000000
  ---------------------------------------------------
  free energy    TOTEN  =       -48.95360433 eV

  energy without entropy =      -48.96277564  energy(sigma->0) =      -48.95666144


--------------------------------------------------------------------------------------------------------




--------------------------------------- Iteration      1(  22)  ---------------------------------------


    POTLOK:  cpu time    1.1630: real time    1.1634
    SETDIJ:  cpu time    0.0183: real time    0.0183
    EDDIAG:  cpu time    1.1012: real time    1.1017
  RMM-DIIS:  cpu time    6.7694: real time    6.7716
    ORTHCH:  cpu time    0.0560: real time    0.0560
       DOS:  cpu time    0.0004: real time    0.0004
    CHARGE:  cpu time    0.6524: real time    0.6524
    MIXING:  cpu time    0.0387: real time    0.0387
    --------------------------------------------
      LOOP:  cpu time    9.7994: real time    9.8025

 eigenvalue-minimisations  :   403
 total energy-change (2. order) :-0.2632753E-03  (-0.2089048E-05)
 number of electron     153.0000003 magnetization       1.0000000
 augmentation part       92.3598017 magnetization       0.0809565

 Broyden mixing:
  rms(total) = 0.39855E-03    rms(broyden)= 0.39846E-03
  rms(prec ) = 0.60174E-03
  weight for this iteration     100.00

 eigenvalues of (default mixing * dielectric matrix)
  average eigenvalue GAMMA=   1.5305
  7.0051  3.8342  2.4580  2.2088  1.4183  1.4183  1.0798  0.9152  0.9152  0.7665
  0.7665  0.6754  0.6046  0.4473  0.4820  0.5115  0.5115

 Free energy of the ion-electron system (eV)
  ---------------------------------------------------
  alpha Z        PSCENC =        41.16232785
  Ewald energy   TEWEN  =     16743.64729631
  -Hartree energ DENC   =    -33718.97438974
  -exchange      EXHF   =         0.00000000
  -V(xc)+E(xc)   XCENC  =       615.70201703
  PAW double counting   =     17672.86525824   -19072.36265303
  entropy T*S    EENTRO =         0.00917045
  eigenvalues    EBANDS =      -993.22214184
  atomic energy  EATOM  =     18662.21924712
  Solvation  Ediel_sol  =         0.00000000
  ---------------------------------------------------
  free energy    TOTEN  =       -48.95386761 eV

  energy without entropy =      -48.96303806  energy(sigma->0) =      -48.95692442


--------------------------------------------------------------------------------------------------------




--------------------------------------- Iteration      1(  23)  ---------------------------------------


    POTLOK:  cpu time    1.1628: real time    1.1640
    SETDIJ:  cpu time    0.0181: real time    0.0181
    EDDIAG:  cpu time    1.1014: real time    1.1021
  RMM-DIIS:  cpu time    6.7233: real time    6.7252
    ORTHCH:  cpu time    0.0558: real time    0.0558
       DOS:  cpu time    0.0004: real time    0.0004
    CHARGE:  cpu time    0.6515: real time    0.6518
    MIXING:  cpu time    0.0410: real time    0.0410
    --------------------------------------------
      LOOP:  cpu time    9.7544: real time    9.7585

 eigenvalue-minimisations  :   405
 total energy-change (2. order) :-0.1190960E-03  (-0.7169481E-06)
 number of electron     153.0000003 magnetization       1.0000000
 augmentation part       92.3592750 magnetization       0.0809412

 Broyden mixing:
  rms(total) = 0.25812E-03    rms(broyden)= 0.25812E-03
  rms(prec ) = 0.39499E-03
  weight for this iteration     100.00

 eigenvalues of (default mixing * dielectric matrix)
  average eigenvalue GAMMA=   1.5666
  7.4311  4.2924  2.4874  2.1878  1.8123  1.2985  1.2985  0.9590  0.9590  0.7790
  0.7790  0.6966  0.6803  0.4473  0.5752  0.4817  0.5168  0.5168

 Free energy of the ion-electron system (eV)
  ---------------------------------------------------
  alpha Z        PSCENC =        41.16232785
  Ewald energy   TEWEN  =     16743.64729631
  -Hartree energ DENC   =    -33719.03023348
  -exchange      EXHF   =         0.00000000
  -V(xc)+E(xc)   XCENC  =       615.70250937
  PAW double counting   =     17672.86650899   -19072.36751697
  entropy T*S    EENTRO =         0.00917067
  eigenvalues    EBANDS =      -993.16329657
  atomic energy  EATOM  =     18662.21924712
  Solvation  Ediel_sol  =         0.00000000
  ---------------------------------------------------
  free energy    TOTEN  =       -48.95398670 eV

  energy without entropy =      -48.96315737  energy(sigma->0) =      -48.95704359


--------------------------------------------------------------------------------------------------------




--------------------------------------- Iteration      1(  24)  ---------------------------------------


    POTLOK:  cpu time    1.1659: real time    1.1698
    SETDIJ:  cpu time    0.0177: real time    0.0177
    EDDIAG:  cpu time    1.1014: real time    1.1022
  RMM-DIIS:  cpu time    7.0062: real time    7.0082
    ORTHCH:  cpu time    0.0541: real time    0.0541
       DOS:  cpu time    0.0004: real time    0.0004
    CHARGE:  cpu time    0.6523: real time    0.6523
    MIXING:  cpu time    0.0426: real time    0.0426
    --------------------------------------------
      LOOP:  cpu time   10.0406: real time   10.0473

 eigenvalue-minimisations  :   404
 total energy-change (2. order) :-0.9981664E-04  (-0.7164517E-06)
 number of electron     153.0000003 magnetization       1.0000000
 augmentation part       92.3593281 magnetization       0.0809484

 Broyden mixing:
  rms(total) = 0.14530E-03    rms(broyden)= 0.14527E-03
  rms(prec ) = 0.24033E-03
  weight for this iteration     100.00

 eigenvalues of (default mixing * dielectric matrix)
  average eigenvalue GAMMA=   1.5828
  7.7274  4.5608  2.3990  2.3990  1.9400  1.3614  1.3614  0.9764  0.9764  0.7796
  0.7796  0.8148  0.8148  0.6321  0.4473  0.5875  0.4814  0.5167  0.5167

 Free energy of the ion-electron system (eV)
  ---------------------------------------------------
  alpha Z        PSCENC =        41.16232785
  Ewald energy   TEWEN  =     16743.64729631
  -Hartree energ DENC   =    -33719.04359485
  -exchange      EXHF   =         0.00000000
  -V(xc)+E(xc)   XCENC  =       615.70244554
  PAW double counting   =     17672.78926842   -19072.28797883
  entropy T*S    EENTRO =         0.00917027
  eigenvalues    EBANDS =      -993.15226834
  atomic energy  EATOM  =     18662.21924712
  Solvation  Ediel_sol  =         0.00000000
  ---------------------------------------------------
  free energy    TOTEN  =       -48.95408652 eV

  energy without entropy =      -48.96325679  energy(sigma->0) =      -48.95714328


--------------------------------------------------------------------------------------------------------




--------------------------------------- Iteration      1(  25)  ---------------------------------------


    POTLOK:  cpu time    1.1641: real time    1.1647
    SETDIJ:  cpu time    0.0182: real time    0.0182
    EDDIAG:  cpu time    1.1008: real time    1.1012
  RMM-DIIS:  cpu time    6.5258: real time    6.5277
    ORTHCH:  cpu time    0.0565: real time    0.0565
       DOS:  cpu time    0.0004: real time    0.0004
    CHARGE:  cpu time    0.6523: real time    0.6525
    MIXING:  cpu time    0.0454: real time    0.0454
    --------------------------------------------
      LOOP:  cpu time    9.5635: real time    9.5666

 eigenvalue-minimisations  :   392
 total energy-change (2. order) :-0.6784316E-04  (-0.5193417E-06)
 number of electron     153.0000003 magnetization       1.0000000
 augmentation part       92.3597009 magnetization       0.0809563

 Broyden mixing:
  rms(total) = 0.13296E-03    rms(broyden)= 0.13294E-03
  rms(prec ) = 0.18814E-03
  weight for this iteration     100.00

 eigenvalues of (default mixing * dielectric matrix)
  average eigenvalue GAMMA=   1.6298
  7.9744  5.0512  2.6154  2.6154  1.9246  1.7561  1.2765  1.2765  0.9805  0.9805
  0.7895  0.7895  0.7061  0.7061  0.4473  0.5989  0.5989  0.4808  0.5142  0.5142

 Free energy of the ion-electron system (eV)
  ---------------------------------------------------
  alpha Z        PSCENC =        41.16232785
  Ewald energy   TEWEN  =     16743.64729631
  -Hartree energ DENC   =    -33719.02471502
  -exchange      EXHF   =         0.00000000
  -V(xc)+E(xc)   XCENC  =       615.70198465
  PAW double counting   =     17672.68276478   -19072.17578244
  entropy T*S    EENTRO =         0.00917020
  eigenvalues    EBANDS =      -993.17644781
  atomic energy  EATOM  =     18662.21924712
  Solvation  Ediel_sol  =         0.00000000
  ---------------------------------------------------
  free energy    TOTEN  =       -48.95415436 eV

  energy without entropy =      -48.96332456  energy(sigma->0) =      -48.95721110


--------------------------------------------------------------------------------------------------------




--------------------------------------- Iteration      1(  26)  ---------------------------------------


    POTLOK:  cpu time    1.1640: real time    1.1643
    SETDIJ:  cpu time    0.0182: real time    0.0182
    EDDIAG:  cpu time    1.0992: real time    1.1000
  RMM-DIIS:  cpu time    6.6631: real time    6.6810
    ORTHCH:  cpu time    0.0548: real time    0.0548
       DOS:  cpu time    0.0004: real time    0.0004
    CHARGE:  cpu time    0.6521: real time    0.6524
    MIXING:  cpu time    0.0481: real time    0.0481
    --------------------------------------------
      LOOP:  cpu time    9.6999: real time    9.7191

 eigenvalue-minimisations  :   389
 total energy-change (2. order) :-0.3379467E-04  (-0.3179913E-06)
 number of electron     153.0000003 magnetization       1.0000000
 augmentation part       92.3596849 magnetization       0.0809626

 Broyden mixing:
  rms(total) = 0.66421E-04    rms(broyden)= 0.66417E-04
  rms(prec ) = 0.10081E-03
  weight for this iteration     100.00

 eigenvalues of (default mixing * dielectric matrix)
  average eigenvalue GAMMA=   1.6451
  8.1534  5.4056  3.0380  2.5393  1.9756  1.8407  1.3006  1.3006  1.0069  1.0069
  0.8358  0.8358  0.7551  0.7551  0.4473  0.6456  0.6187  0.5756  0.4810  0.5146
  0.5146

 Free energy of the ion-electron system (eV)
  ---------------------------------------------------
  alpha Z        PSCENC =        41.16232785
  Ewald energy   TEWEN  =     16743.64729631
  -Hartree energ DENC   =    -33719.02662337
  -exchange      EXHF   =         0.00000000
  -V(xc)+E(xc)   XCENC  =       615.70200284
  PAW double counting   =     17672.64017898   -19072.13243441
  entropy T*S    EENTRO =         0.00917038
  eigenvalues    EBANDS =      -993.17535385
  atomic energy  EATOM  =     18662.21924712
  Solvation  Ediel_sol  =         0.00000000
  ---------------------------------------------------
  free energy    TOTEN  =       -48.95418816 eV

  energy without entropy =      -48.96335854  energy(sigma->0) =      -48.95724495


--------------------------------------------------------------------------------------------------------




--------------------------------------- Iteration      1(  27)  ---------------------------------------


    POTLOK:  cpu time    1.1679: real time    1.1694
    SETDIJ:  cpu time    0.0176: real time    0.0176
    EDDIAG:  cpu time    1.0989: real time    1.0995
  RMM-DIIS:  cpu time    4.9516: real time    4.9538
    ORTHCH:  cpu time    0.0550: real time    0.0550
       DOS:  cpu time    0.0003: real time    0.0003
    CHARGE:  cpu time    0.6519: real time    0.6521
    MIXING:  cpu time    0.0515: real time    0.0515
    --------------------------------------------
      LOOP:  cpu time    7.9948: real time    7.9993

 eigenvalue-minimisations  :   273
 total energy-change (2. order) :-0.1233055E-04  (-0.1034955E-06)
 number of electron     153.0000003 magnetization       1.0000000
 augmentation part       92.3595510 magnetization       0.0809586

 Broyden mixing:
  rms(total) = 0.53146E-04    rms(broyden)= 0.53140E-04
  rms(prec ) = 0.76836E-04
  weight for this iteration     100.00

 eigenvalues of (default mixing * dielectric matrix)
  average eigenvalue GAMMA=   1.6237
  8.1775  5.6072  3.1518  2.5319  1.9252  1.9252  1.2766  1.2766  1.0386  1.0386
  0.9993  0.7779  0.7779  0.8144  0.4473  0.6586  0.5926  0.5926  0.4813  0.5169
  0.5169  0.5961

 Free energy of the ion-electron system (eV)
  ---------------------------------------------------
  alpha Z        PSCENC =        41.16232785
  Ewald energy   TEWEN  =     16743.64729631
  -Hartree energ DENC   =    -33719.03368333
  -exchange      EXHF   =         0.00000000
  -V(xc)+E(xc)   XCENC  =       615.70214824
  PAW double counting   =     17672.64049360   -19072.13421401
  entropy T*S    EENTRO =         0.00917044
  eigenvalues    EBANDS =      -993.16698670
  atomic energy  EATOM  =     18662.21924712
  Solvation  Ediel_sol  =         0.00000000
  ---------------------------------------------------
  free energy    TOTEN  =       -48.95420049 eV

  energy without entropy =      -48.96337093  energy(sigma->0) =      -48.95725730


--------------------------------------------------------------------------------------------------------




--------------------------------------- Iteration      1(  28)  ---------------------------------------


    POTLOK:  cpu time    1.1629: real time    1.1660
    SETDIJ:  cpu time    0.0183: real time    0.0183
    EDDIAG:  cpu time    1.0996: real time    1.1001
  RMM-DIIS:  cpu time    4.6941: real time    4.6956
    ORTHCH:  cpu time    0.0553: real time    0.0555
       DOS:  cpu time    0.0004: real time    0.0004
    CHARGE:  cpu time    0.6517: real time    0.6516
[...]
     66      -4.9421      1.00000
     67      -4.9112      1.00000
     68      -4.8996      1.00000
     69      -4.8816      1.00000
     70      -4.8511      1.00000
     71      -4.8146      1.00000
     72      -4.7950      1.00000
     73      -4.7391      1.00000
     74      -4.5544      1.00000
     75      -4.2189      1.00000
     76      -4.1720      1.00000
     77      -3.4816      1.00001
     78      -3.0588     -0.00001
     79      -2.8717     -0.00000
     80      -2.5600     -0.00000
     81      -2.3708     -0.00000
     82      -1.9735     -0.00000
     83      -1.9206     -0.00000
     84      -1.7553     -0.00000
     85      -1.3703     -0.00000
     86      -1.0326     -0.00000
     87      -0.9397     -0.00000
     88      -0.6985     -0.00000
     89      -0.4309      0.00000
     90      -0.2768      0.00000
     91      -0.1376      0.00000
     92       0.1302      0.00000

 spin component 2

 k-point     1 :       0.0000    0.0000    0.0000
  band No.  band energies     occupation 
      1     -28.2297      1.00000
      2     -13.7037      1.00000
      3     -11.1159      1.00000
      4     -10.9548      1.00000
      5     -10.6568      1.00000
      6     -10.1576      1.00000
      7      -8.7213      1.00000
      8      -8.2557      1.00000
      9      -7.7005      1.00000
     10      -7.5818      1.00000
     11      -7.5129      1.00000
     12      -7.3380      1.00000
     13      -7.2636      1.00000
     14      -7.1319      1.00000
     15      -7.0158      1.00000
     16      -6.9271      1.00000
     17      -6.8466      1.00000
     18      -6.8288      1.00000
     19      -6.7740      1.00000
     20      -6.6878      1.00000
     21      -6.6269      1.00000
     22      -6.5737      1.00000
     23      -6.5480      1.00000
     24      -6.5017      1.00000
     25      -6.4759      1.00000
     26      -6.4151      1.00000
     27      -6.3418      1.00000
     28      -6.3217      1.00000
     29      -6.2753      1.00000
     30      -6.2503      1.00000
     31      -6.2048      1.00000
     32      -6.1528      1.00000
     33      -6.0992      1.00000
     34      -5.9938      1.00000
     35      -5.8755      1.00000
     36      -5.8546      1.00000
     37      -5.7973      1.00000
     38      -5.7020      1.00000
     39      -5.6885      1.00000
     40      -5.6540      1.00000
     41      -5.5946      1.00000
     42      -5.5789      1.00000
     43      -5.5260      1.00000
     44      -5.4868      1.00000
     45      -5.4444      1.00000
     46      -5.4299      1.00000
     47      -5.4198      1.00000
     48      -5.3831      1.00000
     49      -5.3589      1.00000
     50      -5.3305      1.00000
     51      -5.3054      1.00000
     52      -5.2930      1.00000
     53      -5.2798      1.00000
     54      -5.2464      1.00000
     55      -5.2198      1.00000
     56      -5.1971      1.00000
     57      -5.1776      1.00000
     58      -5.1597      1.00000
     59      -5.1166      1.00000
     60      -5.0752      1.00000
     61      -5.0407      1.00000
     62      -5.0119      1.00000
     63      -5.0075      1.00000
     64      -4.9785      1.00000
     65      -4.9390      1.00000
     66      -4.9102      1.00000
     67      -4.8903      1.00000
     68      -4.8558      1.00000
     69      -4.8544      1.00000
     70      -4.8195      1.00000
     71      -4.7763      1.00000
     72      -4.7709      1.00000
     73      -4.7130      1.00000
     74      -4.5091      1.00000
     75      -4.1627      1.03082
     76      -4.1287      0.96918
     77      -3.2769     -0.00000
     78      -3.0064     -0.00000
     79      -2.8207     -0.00000
     80      -2.4756     -0.00000
     81      -2.2805     -0.00000
     82      -1.9395     -0.00000
     83      -1.8457     -0.00000
     84      -1.6791     -0.00000
     85      -1.2476      0.00000
     86      -0.9526      0.00000
     87      -0.8154      0.00000
     88      -0.6208      0.00000
     89      -0.2723      0.00000
     90      -0.1177      0.00000
     91       0.1485      0.00000
     92       0.2727      0.00000


--------------------------------------------------------------------------------------------------------


 soft charge-density along one line, spin component           1
         0         1         2         3         4         5         6         7         8         9
 total charge-density along one line
 
 soft charge-density along one line, spin component           2
         0         1         2         3         4         5         6         7         8         9
 total charge-density along one line
 
 pseudopotential strength for first ion, spin component:           1
-10.571  -0.002  -0.014  -0.003  -0.007   1.063   0.002   0.012
 -0.002 -10.558  -0.009   0.005   0.008   0.002   1.053   0.006
 -0.014  -0.009 -10.540   0.002  -0.011   0.012   0.006   1.038
 -0.003   0.005   0.002 -10.545  -0.005   0.002  -0.006  -0.001
 -0.007   0.008  -0.011  -0.005 -10.558   0.005  -0.006   0.009
  1.063   0.002   0.012   0.002   0.005   6.260  -0.001  -0.010
  0.002   1.053   0.006  -0.006  -0.006  -0.001   6.264  -0.004
  0.012   0.006   1.038  -0.001   0.009  -0.010  -0.004   6.275
  0.002  -0.006  -0.001   1.041   0.003  -0.001   0.006   0.001
  0.005  -0.006   0.009   0.003   1.053  -0.004   0.003  -0.007
 -0.006   0.001  -0.004   0.001  -0.004   0.004   0.001  -0.001
 -0.012   0.002  -0.007   0.001  -0.007   0.008   0.001  -0.002
 -0.012  -0.000   0.004  -0.000   0.007   0.009   0.001  -0.004
 -0.000  -0.005  -0.001  -0.011  -0.000   0.000   0.005   0.001
 -0.005  -0.000   0.008  -0.001  -0.012   0.003   0.000  -0.006
 -0.013  -0.000   0.004  -0.000   0.008   0.009   0.001  -0.004
 -0.000  -0.005  -0.001  -0.011  -0.000   0.001   0.005   0.001
 -0.004  -0.000   0.008  -0.001  -0.013   0.002   0.001  -0.007
 pseudopotential strength for first ion, spin component:           2
-10.537  -0.003  -0.007  -0.012   0.004   1.036   0.002   0.006
 -0.003 -10.549  -0.009   0.005   0.007   0.002   1.044   0.007
 -0.007  -0.009 -10.530  -0.000  -0.008   0.006   0.007   1.029
 -0.012   0.005  -0.000 -10.532  -0.008   0.009  -0.005   0.000
  0.004   0.007  -0.008  -0.008 -10.547  -0.003  -0.005   0.007
  1.036   0.002   0.006   0.009  -0.003   6.277  -0.000  -0.004
  0.002   1.044   0.007  -0.005  -0.005  -0.000   6.269  -0.005
  0.006   0.007   1.029   0.000   0.007  -0.004  -0.005   6.279
  0.009  -0.005   0.000   1.030   0.005  -0.006   0.004  -0.000
 -0.003  -0.005   0.007   0.005   1.043   0.002   0.003  -0.005
 -0.003   0.002  -0.002   0.000  -0.003   0.001   0.000  -0.002
 -0.006   0.004  -0.003   0.000  -0.005   0.001   0.001  -0.004
 -0.013   0.000   0.005   0.001   0.007   0.012  -0.000  -0.005
  0.001  -0.006   0.000  -0.013   0.000  -0.000   0.006  -0.001
 -0.008   0.001   0.008   0.001  -0.013   0.007  -0.000  -0.007
 -0.015   0.000   0.005   0.001   0.007   0.014  -0.000  -0.006
  0.001  -0.007   0.001  -0.014   0.000  -0.000   0.007  -0.002
 -0.008   0.001   0.009   0.001  -0.015   0.008  -0.000  -0.009
 total augmentation occupancy for first ion, spin component:           1
  1.936   0.004  -0.007   0.000  -0.002  -0.011  -0.000   0.008   0.001   0.002  -0.012   0.013   0.032   0.004   0.034  -0.019
  0.004   1.927  -0.004   0.006  -0.002  -0.000  -0.015   0.006  -0.001  -0.001   0.002  -0.001   0.007   0.045  -0.001  -0.001
 -0.007  -0.004   1.946   0.002  -0.004   0.008   0.006  -0.027  -0.003   0.004  -0.013   0.010  -0.010   0.003  -0.017   0.006
  0.000   0.006   0.002   1.936  -0.005   0.001  -0.001  -0.003  -0.019   0.002   0.001   0.002   0.009   0.063   0.003  -0.000
 -0.002  -0.002  -0.004  -0.005   1.940   0.002  -0.001   0.004   0.002  -0.013  -0.009   0.007  -0.015   0.004   0.036   0.011
 -0.011  -0.000   0.008   0.001   0.002   0.015   0.000   0.002   0.001   0.001  -0.028   0.000   0.022   0.001   0.010  -0.001
 -0.000  -0.015   0.006  -0.001  -0.001   0.000   0.009   0.000   0.001  -0.001   0.014  -0.001   0.002   0.015   0.002  -0.000
  0.008   0.006  -0.027  -0.003   0.004   0.002   0.000   0.008  -0.000   0.001  -0.038   0.005  -0.007  -0.000  -0.008   0.001
  0.001  -0.001  -0.003  -0.019   0.002   0.001   0.001  -0.000   0.010  -0.001  -0.001   0.000   0.000   0.022  -0.001  -0.000
  0.002  -0.001   0.004   0.002  -0.013   0.001  -0.001   0.001  -0.001   0.014  -0.018   0.001  -0.024  -0.003   0.023   0.002
 -0.012   0.002  -0.013   0.001  -0.009  -0.028   0.014  -0.038  -0.001  -0.018   1.710  -0.125   0.138   0.012   0.193  -0.018
  0.013  -0.001   0.010   0.002   0.007   0.000  -0.001   0.005   0.000   0.001  -0.125   0.015  -0.020   0.000  -0.028   0.002
  0.032   0.007  -0.010   0.009  -0.015   0.022   0.002  -0.007   0.000  -0.024   0.138  -0.020   0.199   0.005  -0.041  -0.013
  0.004   0.045   0.003   0.063   0.004   0.001   0.015  -0.000   0.022  -0.003   0.012   0.000   0.005   0.098  -0.006  -0.001
  0.034  -0.001  -0.017   0.003   0.036   0.010   0.002  -0.008  -0.001   0.023   0.193  -0.028  -0.041  -0.006   0.151   0.001
 -0.019  -0.001   0.006  -0.000   0.011  -0.001  -0.000   0.001  -0.000   0.002  -0.018   0.002  -0.013  -0.001   0.001   0.001
  0.000  -0.012  -0.002  -0.021   0.000  -0.000  -0.001   0.000  -0.001   0.000  -0.001   0.000  -0.001  -0.006   0.000   0.000
 -0.012   0.000   0.010  -0.001  -0.019  -0.000  -0.000   0.001   0.000  -0.001  -0.026   0.003   0.001   0.000  -0.011   0.000
 total augmentation occupancy for first ion, spin component:           2
  0.014  -0.001   0.002  -0.005   0.006  -0.002  -0.000  -0.002   0.001  -0.002   0.028   0.005  -0.009   0.007  -0.016  -0.001
 -0.001   0.000  -0.000   0.001  -0.001  -0.000   0.001   0.000   0.001   0.000  -0.001  -0.001   0.002  -0.002   0.001   0.000
  0.002  -0.000   0.001  -0.002   0.001  -0.002   0.000   0.002   0.000  -0.001   0.004   0.000  -0.000   0.003  -0.000   0.000
 -0.005   0.001  -0.002   0.003  -0.002   0.001   0.001   0.000   0.001   0.000  -0.011  -0.002   0.003  -0.006   0.007   0.000
  0.006  -0.001   0.001  -0.002   0.002  -0.002   0.000  -0.001   0.000   0.002   0.012   0.002  -0.002   0.002  -0.009  -0.000
 -0.002  -0.000  -0.002   0.001  -0.002   0.001  -0.000   0.000  -0.000   0.000  -0.007  -0.001   0.001  -0.002   0.004   0.000
 -0.000   0.001   0.000   0.001   0.000  -0.000  -0.000   0.000  -0.000  -0.000  -0.000   0.000   0.000   0.000  -0.000  -0.000
 -0.002   0.000   0.002   0.000  -0.001   0.000   0.000  -0.000  -0.000   0.000  -0.002  -0.000   0.000  -0.000   0.001   0.000
  0.001   0.001   0.000   0.001   0.000  -0.000  -0.000  -0.000  -0.000  -0.000   0.002   0.000  -0.001   0.001  -0.001  -0.000
 -0.002   0.000  -0.001   0.000   0.002   0.000  -0.000   0.000  -0.000  -0.000  -0.002  -0.000   0.001  -0.001   0.001  -0.000
  0.028  -0.001   0.004  -0.011   0.012  -0.007  -0.000  -0.002   0.002  -0.002   0.070   0.004  -0.014   0.017  -0.038  -0.000
  0.005  -0.001   0.000  -0.002   0.002  -0.001   0.000  -0.000   0.000  -0.000   0.004   0.001  -0.001   0.001  -0.002  -0.000
 -0.009   0.002  -0.000   0.003  -0.002   0.001   0.000   0.000  -0.001   0.001  -0.014  -0.001   0.003  -0.003   0.005   0.000
  0.007  -0.002   0.003  -0.006   0.002  -0.002   0.000  -0.000   0.001  -0.001   0.017   0.001  -0.003   0.004  -0.007  -0.000
 -0.016   0.001  -0.000   0.007  -0.009   0.004  -0.000   0.001  -0.001   0.001  -0.038  -0.002   0.005  -0.007   0.015   0.000
 -0.001   0.000   0.000   0.000  -0.000   0.000  -0.000   0.000  -0.000  -0.000  -0.000  -0.000   0.000  -0.000   0.000   0.000
  0.000  -0.000   0.000  -0.001   0.000   0.000  -0.000  -0.000   0.000   0.000  -0.000   0.000   0.000  -0.000   0.000  -0.000
 -0.001   0.000   0.000   0.001  -0.001   0.000   0.000  -0.000  -0.000   0.000   0.000  -0.000   0.000  -0.000   0.000   0.000


------------------------ aborting loop because EDIFF is reached ----------------------------------------


    CHARGE:  cpu time    0.6489: real time    0.6492
    FORLOC:  cpu time    0.0671: real time    0.0671
    FORNL :  cpu time    1.5352: real time    1.5355
    STRESS:  cpu time    6.3665: real time    6.3699
    FORCOR:  cpu time    1.1708: real time    1.1710
    FORHAR:  cpu time    0.1877: real time    0.1877
    MIXING:  cpu time    0.1137: real time    0.1140
    OFIELD:  cpu time    0.0001: real time    0.0001

  FORCE on cell =-STRESS in cart. coord.  units (eV):
  Direction    XX          YY          ZZ          XY          YZ          ZX
  --------------------------------------------------------------------------------------
  Alpha Z    41.16233    41.16233    41.16233
  Ewald   10294.12731  7851.47661 -1401.97261  -939.82613   268.40105   205.69010
  Hartree 15407.71790 13305.06716  5006.25497  -834.71169   235.92519   180.00424
  E(xc)    -876.41608  -877.90529  -879.68214    -0.17312     0.04144     0.04167
  Local  -27100.50278-22588.15042 -5043.41134  1772.76340  -503.55028  -385.11197
  n-local  -326.76750  -318.63802  -325.12406    -0.84094    -0.32328     1.36222
  augment  1223.07118  1226.07804  1232.54563     0.47663    -0.39694    -1.03549
  Kinetic  1336.44996  1362.44889  1370.99014     1.60630    -0.30006    -0.15304
  Fock        0.00000     0.00000     0.00000     0.00000     0.00000     0.00000
  -------------------------------------------------------------------------------------
  Total      -1.15768     1.53930     0.76291    -0.70554    -0.20290     0.79773
  in kB      -0.54957     0.73074     0.36217    -0.33493    -0.09632     0.37870
  external pressure =        0.18 kB  Pullay stress =        0.00 kB


 VOLUME and BASIS-vectors are now :
 -----------------------------------------------------------------------------
  energy-cutoff  :      600.00
  volume of cell :     3375.00
      direct lattice vectors                 reciprocal lattice vectors
    15.000000000  0.000000000  0.000000000     0.066666667  0.000000000  0.000000000
     0.000000000 15.000000000  0.000000000     0.000000000  0.066666667  0.000000000
     0.000000000  0.000000000 15.000000000     0.000000000  0.000000000  0.066666667

  length of vectors
    15.000000000 15.000000000 15.000000000     0.066666667  0.066666667  0.066666667


 FORCES acting on ions
    electron-ion (+dipol)            ewald-force                    non-local-force                 convergence-correction
 -----------------------------------------------------------------------------------------------
   0.112E+04 0.707E+03 -.112E+02   -.112E+04 -.704E+03 0.117E+02   -.477E+01 -.313E+01 -.640E+00   -.119E-04 -.153E-04 0.497E-05
   0.412E+03 -.336E+03 0.972E+03   -.411E+03 0.333E+03 -.972E+03   -.100E+01 0.205E+01 -.307E+00   -.757E-05 -.943E-05 -.271E-04
   0.323E+03 0.130E+04 -.206E+03   -.321E+03 -.129E+04 0.204E+03   -.195E+01 -.916E+01 0.220E+01   -.113E-04 -.923E-05 0.186E-05
   -.865E+03 -.181E+03 0.908E+03   0.862E+03 0.180E+03 -.903E+03   0.283E+01 0.110E+01 -.429E+01   0.176E-04 0.703E-06 0.484E-05
   -.845E+03 0.102E+04 0.218E+03   0.840E+03 -.102E+04 -.216E+03   0.491E+01 -.621E+01 -.193E+01   0.288E-04 -.547E-05 0.967E-05
   -.123E+03 0.511E+03 -.964E+03   0.123E+03 -.508E+03 0.964E+03   0.101E+01 -.274E+01 0.130E+00   0.402E-05 -.381E-05 0.309E-04
   0.184E+03 0.627E+03 0.122E+04   -.183E+03 -.623E+03 -.122E+04   -.117E+01 -.381E+01 -.549E+01   -.671E-05 0.413E-05 0.307E-05
   0.130E+04 -.365E+03 0.182E+03   -.129E+04 0.363E+03 -.179E+03   -.918E+01 0.299E+01 -.300E+01   -.216E-04 -.114E-04 0.494E-05
   0.604E+03 -.201E+03 -.124E+04   -.600E+03 0.200E+03 0.123E+04   -.328E+01 0.309E+00 0.631E+01   -.699E-07 -.964E-05 0.174E-04
   0.458E+03 -.129E+04 -.189E+03   -.456E+03 0.128E+04 0.187E+03   -.274E+01 0.726E+01 0.187E+01   -.763E-06 0.308E-04 0.646E-05
   -.490E+03 -.105E+04 0.696E+03   0.486E+03 0.105E+04 -.689E+03   0.397E+01 0.625E+01 -.652E+01   0.127E-04 0.129E-04 0.317E-05
   -.907E+03 0.598E+02 -.528E+03   0.905E+03 -.602E+02 0.523E+03   0.267E+01 0.473E+00 0.515E+01   0.363E-04 -.156E-05 -.170E-05
   -.577E+03 -.775E+03 -.844E+03   0.573E+03 0.771E+03 0.841E+03   0.309E+01 0.414E+01 0.287E+01   0.170E-04 -.844E-05 0.197E-04
   -.119E+03 -.390E+02 -.145E+03   0.989E+02 0.402E+02 0.148E+03   0.204E+02 -.161E+01 -.256E+01   0.830E-05 0.130E-06 0.146E-05
   -.435E+03 0.960E+01 -.722E+02   0.492E+03 -.135E+02 0.680E+02   -.584E+02 0.413E+01 0.428E+01   0.993E-07 0.180E-05 -.495E-06
 -----------------------------------------------------------------------------------------------
   0.437E+02 -.205E+01 0.193E+01   0.227E-12 -.115E-12 0.171E-12   -.437E+02 0.205E+01 -.193E+01   0.648E-04 -.240E-04 0.791E-04
 
 
 POSITION                                       TOTAL-FORCE (eV/Angst)
 -----------------------------------------------------------------------------------
      4.41338      6.33717      8.32505        -0.102988     -0.463463     -0.168496
      5.62691      8.26597      7.33122         0.463081     -0.299541     -0.238199
      5.93491      4.40142      8.44902        -0.103585     -0.313492      0.138197
      8.04305      7.59246      7.22169        -0.354958      0.337238     -0.096831
      8.22574      5.18909      7.90570         0.240867      0.133740      0.197050
      6.68798      6.52227      9.23327         0.620237      0.033213     -0.238827
      6.30957      5.99789      6.75515        -0.261625      0.103581     -0.140630
      3.43711      8.52027      8.17471        -0.662797      0.391311     -0.196957
      5.03636      8.14301      9.77218         0.246657      0.217308      0.529953
      5.29939     10.21830      8.55705        -0.150115      0.406074      0.139958
      7.29168     10.04350      7.15455         0.116022     -0.181011      0.104956
      9.18411      7.17371      9.19927         0.653770      0.067363      0.393018
      7.29908      8.91213      9.27851        -0.012000     -0.221003     -0.301925
     11.01400      7.40928      9.69623         0.599470     -0.436477     -0.228059
     12.17720      7.33322      9.61165        -1.292037      0.225159      0.106793
 -----------------------------------------------------------------------------------
    total drift:                                0.000678     -0.003058     -0.000683


--------------------------------------------------------------------------------------------------------



  FREE ENERGIE OF THE ION-ELECTRON SYSTEM (eV)
  ---------------------------------------------------
  free  energy   TOTEN  =       -48.95421538 eV

  energy  without entropy=      -48.96338572  energy(sigma->0) =      -48.95727216
 


--------------------------------------------------------------------------------------------------------


    POTLOK:  cpu time    1.1867: real time    1.1869


--------------------------------------------------------------------------------------------------------


     LOOP+:  cpu time  352.8068: real time  353.0219
    4ORBIT:  cpu time    0.0000: real time    0.0000

 total amount of memory used by VASP MPI-rank0   158680. kBytes
=======================================================================

   base      :      30000. kBytes
   nonl-proj :      12601. kBytes
   fftplans  :      27994. kBytes
   grid      :      74150. kBytes
   one-center:         93. kBytes
   wavefun   :      13842. kBytes
 
  
  
 General timing and accounting informations for this job:
 ========================================================
  
                  Total CPU time used (sec):      356.804
                            User time (sec):      343.894
                          System time (sec):       12.910
                         Elapsed time (sec):      357.066
  
                   Maximum memory used (kb):      282456.
                   Average memory used (kb):           0.
  
                          Minor page faults:       283385
                          Major page faults:            0
                 Voluntary context switches:          891
