 vasp.5.4.4.18Apr17-6-g9f103f2a35 (build May 08 2019 13:49:07) complex          
  
 executed on             LinuxIFC date 2019.11.13  15:32:00
 running on   24 total cores
 distrk:  each k-point on   24 cores,    1 groups
 distr:  one band on NCORES_PER_BAND=   6 cores,    4 groups


--------------------------------------------------------------------------------------------------------


 INCAR:
 POTCAR:    PAW_PBE Cu 22Jun2005                  
 POTCAR:    PAW_PBE C 08Apr2002                   
 POTCAR:    PAW_PBE O 08Apr2002                   
 POTCAR:    PAW_PBE Cu 22Jun2005                  
   VRHFIN =Cu: d10 p1                                                           
   LEXCH  = PE                                                                  
   EATOM  =  1390.9808 eV,  102.2342 Ry                                         
                                                                                
   TITEL  = PAW_PBE Cu 22Jun2005                                                
   LULTRA =        F    use ultrasoft PP ?                                      
   IUNSCR =        1    unscreen: 0-lin 1-nonlin 2-no                           
   RPACOR =    2.000    partial core radius                                     
   POMASS =   63.546; ZVAL   =   11.000    mass and valenz                      
   RCORE  =    2.300    outmost cutoff radius                                   
   RWIGS  =    2.200; RWIGS  =    1.164    wigner-seitz radius (au A)           
   ENMAX  =  295.446; ENMIN  =  221.585 eV                                      
   ICORE  =        3    local potential                                         
   LCOR   =        T    correct aug charges                                     
   LPAW   =        T    paw PP                                                  
   EAUG   =  586.980                                                            
   DEXC   =    0.000                                                            
   RMAX   =    2.344    core radius for proj-oper                               
   RAUG   =    1.300    factor for augmentation sphere                          
   RDEP   =    2.302    radius for radial grids                                 
   RDEPT  =    1.771    core radius for aug-charge                              
                                                                                
   Atomic configuration                                                         
    9 entries                                                                   
     n  l   j            E        occ.                                          
     1  0  0.50     -8850.2468   2.0000                                         
     2  0  0.50     -1062.3498   2.0000                                         
     2  1  1.50      -916.8226   6.0000                                         
     3  0  0.50      -114.6929   2.0000                                         
     3  1  1.50       -72.1325   6.0000                                         
     3  2  2.50        -5.0394  10.0000                                         
     4  0  0.50        -4.6097   1.0000                                         
     4  1  0.50        -4.0817   0.0000                                         
     4  3  2.50        -1.3606   0.0000                                         
   Description                                                                  
     l       E           TYP  RCUT    TYP  RCUT                                 
     2     -5.0393973     23  2.200                                             
     2     10.8846608     23  2.200                                             
     0     -4.6097109     23  2.200                                             
     0      8.2520465     23  2.200                                             
     1     -2.7211652     23  2.200                                             
     1     21.7055443     23  2.200                                             
     3      2.7211652     23  2.300                                             
  local pseudopotential read in
  partial core-charges read in
  partial kinetic energy density read in
  atomic valenz-charges read in
  non local Contribution for L=           2  read in
    real space projection operators read in
  non local Contribution for L=           2  read in
    real space projection operators read in
  non local Contribution for L=           0  read in
    real space projection operators read in
  non local Contribution for L=           0  read in
    real space projection operators read in
  non local Contribution for L=           1  read in
    real space projection operators read in
  non local Contribution for L=           1  read in
    real space projection operators read in
    PAW grid and wavefunctions read in
 
   number of l-projection  operators is LMAX  =           6
   number of lm-projection operators is LMMAX =          18
 
 POTCAR:    PAW_PBE C 08Apr2002                   
   VRHFIN =C: s2p2                                                              
   LEXCH  = PE                                                                  
   EATOM  =   147.1560 eV,   10.8157 Ry                                         
                                                                                
   TITEL  = PAW_PBE C 08Apr2002                                                 
   LULTRA =        F    use ultrasoft PP ?                                      
   IUNSCR =        1    unscreen: 0-lin 1-nonlin 2-no                           
   RPACOR =    1.200    partial core radius                                     
   POMASS =   12.011; ZVAL   =    4.000    mass and valenz                      
   RCORE  =    1.500    outmost cutoff radius                                   
   RWIGS  =    1.630; RWIGS  =    0.863    wigner-seitz radius (au A)           
   ENMAX  =  400.000; ENMIN  =  300.000 eV                                      
   ICORE  =        2    local potential                                         
   LCOR   =        T    correct aug charges                                     
   LPAW   =        T    paw PP                                                  
   EAUG   =  644.873                                                            
   DEXC   =    0.000                                                            
   RMAX   =    1.529    core radius for proj-oper                               
   RAUG   =    1.300    factor for augmentation sphere                          
   RDEP   =    1.501    radius for radial grids                                 
   RDEPT  =    1.300    core radius for aug-charge                              
                                                                                
   Atomic configuration                                                         
    4 entries                                                                   
     n  l   j            E        occ.                                          
     1  0  0.50      -273.3789   2.0000                                         
     2  0  0.50       -13.7508   2.0000                                         
     2  1  0.50        -5.2854   2.0000                                         
     3  2  1.50        -5.4423   0.0000                                         
   Description                                                                  
     l       E           TYP  RCUT    TYP  RCUT                                 
     0    -13.7508458     23  1.200                                             
     0     -8.2022199     23  1.200                                             
     1     -5.2854383     23  1.500                                             
     1     34.0145650     23  1.500                                             
     2     -5.4423304      7  1.500                                             
  local pseudopotential read in
  partial core-charges read in
  partial kinetic energy density read in
  atomic valenz-charges read in
  non local Contribution for L=           0  read in
    real space projection operators read in
  non local Contribution for L=           0  read in
    real space projection operators read in
  non local Contribution for L=           1  read in
    real space projection operators read in
  non local Contribution for L=           1  read in
    real space projection operators read in
    PAW grid and wavefunctions read in
 
   number of l-projection  operators is LMAX  =           4
   number of lm-projection operators is LMMAX =           8
 
 POTCAR:    PAW_PBE O 08Apr2002                   
   VRHFIN =O: s2p4                                                              
   LEXCH  = PE                                                                  
   EATOM  =   432.3788 eV,   31.7789 Ry                                         
                                                                                
   TITEL  = PAW_PBE O 08Apr2002                                                 
   LULTRA =        F    use ultrasoft PP ?                                      
   IUNSCR =        1    unscreen: 0-lin 1-nonlin 2-no                           
   RPACOR =    1.200    partial core radius                                     
   POMASS =   16.000; ZVAL   =    6.000    mass and valenz                      
   RCORE  =    1.520    outmost cutoff radius                                   
   RWIGS  =    1.550; RWIGS  =    0.820    wigner-seitz radius (au A)           
   ENMAX  =  400.000; ENMIN  =  300.000 eV                                      
   ICORE  =        2    local potential                                         
   LCOR   =        T    correct aug charges                                     
   LPAW   =        T    paw PP                                                  
   EAUG   =  605.392                                                            
   DEXC   =    0.000                                                            
   RMAX   =    1.553    core radius for proj-oper                               
   RAUG   =    1.300    factor for augmentation sphere                          
   RDEP   =    1.550    radius for radial grids                                 
   RDEPT  =    1.329    core radius for aug-charge                              
                                                                                
   Atomic configuration                                                         
    4 entries                                                                   
     n  l   j            E        occ.                                          
     1  0  0.50      -514.6923   2.0000                                         
     2  0  0.50       -23.9615   2.0000                                         
     2  1  0.50        -9.0305   4.0000                                         
     3  2  1.50        -9.5241   0.0000                                         
   Description                                                                  
     l       E           TYP  RCUT    TYP  RCUT                                 
     0    -23.9615318     23  1.200                                             
     0     -9.5240782     23  1.200                                             
     1     -9.0304911     23  1.520                                             
     1      8.1634956     23  1.520                                             
     2     -9.5240782      7  1.500                                             
  local pseudopotential read in
  partial core-charges read in
  partial kinetic energy density read in
  kinetic energy density of atom read in
  atomic valenz-charges read in
  non local Contribution for L=           0  read in
    real space projection operators read in
  non local Contribution for L=           0  read in
    real space projection operators read in
  non local Contribution for L=           1  read in
    real space projection operators read in
  non local Contribution for L=           1  read in
    real space projection operators read in
    PAW grid and wavefunctions read in
 
   number of l-projection  operators is LMAX  =           4
   number of lm-projection operators is LMMAX =           8
 
  PAW_PBE Cu 22Jun2005                  :
 energy of atom  1       EATOM=-1390.9808
 kinetic energy error for atom=    0.0033 (will be added to EATOM!!)
  PAW_PBE C 08Apr2002                   :
 energy of atom  2       EATOM= -147.1560
 kinetic energy error for atom=    0.0057 (will be added to EATOM!!)
  PAW_PBE O 08Apr2002                   :
 energy of atom  3       EATOM= -432.3788
 kinetic energy error for atom=    0.0168 (will be added to EATOM!!)
 
 
 POSCAR: Cu13 C1 O1                              
  positions in cartesian coordinates
  No initial velocities read in
 exchange correlation table for  LEXCH =        8
   RHO(1)=    0.500       N(1)  =     2000
   RHO(2)=  100.500       N(2)  =     4000
 


--------------------------------------------------------------------------------------------------------


 ion  position               nearest neighbor table
   1  0.295  0.419  0.561-   6 2.40   8 2.41   2 2.42   3 2.45   9 2.50   7 2.60
   2  0.369  0.546  0.495-  10 2.28   8 2.38   7 2.41   1 2.42  11 2.48   4 2.50  13 2.60   6 2.61
                             9 2.62
   3  0.396  0.291  0.561-   1 2.45   6 2.46   7 2.49   5 2.50
   4  0.529  0.504  0.478-   7 2.32  12 2.39   5 2.49  13 2.50   2 2.50  11 2.51   6 2.52
   5  0.549  0.349  0.534-   6 2.34   4 2.49   3 2.50   7 2.54  12 2.65
   6  0.446  0.439  0.609-   5 2.34  13 2.39   1 2.40   9 2.44   3 2.46   4 2.52   2 2.61   7 2.61

   7  0.418  0.403  0.441-   4 2.32   2 2.41   3 2.49   5 2.54   1 2.60   6 2.61
   8  0.223  0.562  0.556-   9 2.37   2 2.38   1 2.41  10 2.55
   9  0.334  0.542  0.666-   8 2.37   6 2.44   1 2.50  10 2.52  13 2.56   2 2.62
  10  0.347  0.678  0.568-   2 2.28  11 2.48   9 2.52  13 2.55   8 2.55
  11  0.482  0.664  0.473-  13 2.35  10 2.48   2 2.48   4 2.51
  12  0.640  0.489  0.592-  14 1.89   4 2.39   5 2.65  13 2.78
  13  0.488  0.593  0.612-  11 2.35   6 2.39   4 2.50  10 2.55   9 2.56   2 2.60  12 2.78
  14  0.750  0.501  0.650-  15 1.15  12 1.89
  15  0.819  0.514  0.682-  14 1.15
 

IMPORTANT INFORMATION: All symmetrisations will be switched off!
NOSYMM: (Re-)initialisation of all symmetry stuff for point group C_1.

 
 

Automatic generation of k-mesh.
 generate k-points for:    1    1    1
Space group operators:
 irot       det(A)        alpha          n_x          n_y          n_z        tau_x        tau_y        tau_z
    1     1.000000     0.000000     1.000000     0.000000     0.000000     0.000000     0.000000     0.000000
 
 Subroutine IBZKPT returns following result:
 ===========================================
 
 Found      1 irreducible k-points:
 
 Following reciprocal coordinates:
            Coordinates               Weight
  0.000000  0.000000  0.000000      1.000000
 
 Following cartesian coordinates:
            Coordinates               Weight
  0.000000  0.000000  0.000000      1.000000
 


--------------------------------------------------------------------------------------------------------




 Dimension of arrays:
   k-points           NKPTS =      1   k-points in BZ     NKDIM =      1   number of bands    NBANDS=     92
   number of dos      NEDOS =    301   number of ions     NIONS =     15
   non local maximal  LDIM  =      6   non local SUM 2l+1 LMDIM =     18
   total plane-waves  NPLWV = ******
   max r-space proj   IRMAX =      1   max aug-charges    IRDMAX=  15028
   dimension x,y,z NGX =   120 NGY =  120 NGZ =  120
   dimension x,y,z NGXF=   240 NGYF=  240 NGZF=  240
   support grid    NGXF=   240 NGYF=  240 NGZF=  240
   ions per type =              13   1   1
   NGX,Y,Z   is equivalent  to a cutoff of  13.30, 13.30, 13.30 a.u.
   NGXF,Y,Z  is equivalent  to a cutoff of  26.60, 26.60, 26.60 a.u.

 SYSTEM =  CuCO                                    
 POSCAR =  Cu13 C1 O1                              

 Startparameter for this run:
   NWRITE =      2    write-flag & timer
   PREC   = accura    normal or accurate (medium, high low for compatibility)
   ISTART =      0    job   : 0-new  1-cont  2-samecut
   ICHARG =      2    charge: 1-file 2-atom 10-const
   ISPIN  =      2    spin polarized calculation?
   LNONCOLLINEAR =      F non collinear calculations
   LSORBIT =      F    spin-orbit coupling
   INIWAV =      1    electr: 0-lowe 1-rand  2-diag
   LASPH  =      F    aspherical Exc in radial PAW
   METAGGA=      F    non-selfconsistent MetaGGA calc.

 Electronic Relaxation 1
   ENCUT  =  600.0 eV  44.10 Ry    6.64 a.u.  29.96 29.96 29.96*2*pi/ulx,y,z
   ENINI  =  600.0     initial cutoff
   ENAUG  =  644.9 eV  augmentation charge cutoff
   NELM   =    300;   NELMIN=  3; NELMDL= -5     # of ELM steps 
   EDIFF  = 0.1E-06   stopping-criterion for ELM
   LREAL  =      F    real-space projection
   NLSPLINE    = F    spline interpolate recip. space projectors
   LCOMPAT=      F    compatible to vasp.4.4
   GGA_COMPAT  = T    GGA compatible to vasp.4.4-vasp.4.6
   LMAXPAW     = -100 max onsite density
   LMAXMIX     =    2 max onsite mixed and CHGCAR
   VOSKOWN=      0    Vosko Wilk Nusair interpolation
   ROPT   =    0.00000   0.00000   0.00000
 Ionic relaxation
   EDIFFG = -.1E-02   stopping-criterion for IOM
   NSW    =      0    number of steps for IOM
   NBLOCK =      1;   KBLOCK =      1    inner block; outer block 
   IBRION =     -1    ionic relax: 0-MD 1-quasi-New 2-CG
   NFREE  =      0    steps in history (QN), initial steepest desc. (CG)
   ISIF   =      2    stress and relaxation
   IWAVPR =     10    prediction:  0-non 1-charg 2-wave 3-comb
   ISYM   =      0    0-nonsym 1-usesym 2-fastsym
   LCORR  =      T    Harris-Foulkes like correction to forces

   POTIM  = 0.5000    time-step for ionic-motion
   TEIN   =    0.0    initial temperature
   TEBEG  =    0.0;   TEEND  =   0.0 temperature during run
   SMASS  =  -3.00    Nose mass-parameter (am)
   estimated Nose-frequenzy (Omega)   =  0.10E-29 period in steps =****** mass=  -0.514E-26a.u.
   SCALEE = 1.0000    scale energy and forces
   NPACO  =    256;   APACO  = 16.0  distance and # of slots for P.C.
   PSTRESS=    0.0 pullay stress

  Mass of Ions in am
   POMASS =  63.55 12.01 16.00
  Ionic Valenz
   ZVAL   =  11.00  4.00  6.00
  Atomic Wigner-Seitz radii
   RWIGS  =  -1.00 -1.00 -1.00
  virtual crystal weights 
   VCA    =   1.00  1.00  1.00
   NELECT =     153.0000    total number of electrons
   NUPDOWN=       1.0000    fix difference up-down

 DOS related values:
   EMIN   =  10.00;   EMAX   =-10.00  energy-range for DOS
   EFERMI =   0.00
   ISMEAR =     1;   SIGMA  =   0.10  broadening in eV -4-tet -1-fermi 0-gaus

 Electronic relaxation 2 (details)
   IALGO  =     68    algorithm
   LDIAG  =      T    sub-space diagonalisation (order eigenvalues)
   LSUBROT=      F    optimize rotation matrix (better conditioning)
   TURBO    =      0    0=normal 1=particle mesh
   IRESTART =      0    0=no restart 2=restart with 2 vectors
   NREBOOT  =      0    no. of reboots
   NMIN     =      0    reboot dimension
   EREF     =   0.00    reference energy to select bands
   IMIX   =      4    mixing-type and parameters
     AMIX     =   0.40;   BMIX     =  1.00
     AMIX_MAG =   1.60;   BMIX_MAG =  1.00
     AMIN     =   0.10
     WC   =   100.;   INIMIX=   1;  MIXPRE=   1;  MAXMIX= -45

 Intra band minimization:
   WEIMIN = 0.0000     energy-eigenvalue tresh-hold
   EBREAK =  0.27E-09  absolut break condition
   DEPER  =   0.30     relativ break condition  

   TIME   =   0.40     timestep for ELM

  volume/ion in A,a.u.               =     225.00      1518.37
  Fermi-wavevector in a.u.,A,eV,Ry     =   0.583733  1.103095  4.636102  0.340744
  Thomas-Fermi vector in A             =   1.629149
 
 Write flags
   LWAVE        =      F    write WAVECAR
   LDOWNSAMPLE  =      F    k-point downsampling of WAVECAR
   LCHARG       =      F    write CHGCAR
   LVTOT        =      F    write LOCPOT, total local potential
   LVHAR        =      F    write LOCPOT, Hartree potential only
   LELF         =      F    write electronic localiz. function (ELF)
   LORBIT       =      0    0 simple, 1 ext, 2 COOP (PROOUT), +10 PAW based schemes


 Dipole corrections
   LMONO  =      F    monopole corrections only (constant potential shift)
   LDIPOL =      F    correct potential (dipole corrections)
   IDIPOL =      0    1-x, 2-y, 3-z, 4-all directions 
   EPSILON=  1.0000000 bulk dielectric constant

 Exchange correlation treatment:
   GGA     =    PE    GGA type
   LEXCH   =     8    internal setting for exchange type
   VOSKOWN=      0    Vosko Wilk Nusair interpolation
   LHFCALC =     F    Hartree Fock is set to
   LHFONE  =     F    Hartree Fock one center treatment
   AEXX    =    0.0000 exact exchange contribution

 Linear response parameters
   LEPSILON=     F    determine dielectric tensor
   LRPA    =     F    only Hartree local field effects (RPA)
   LNABLA  =     F    use nabla operator in PAW spheres
   LVEL    =     F    velocity operator in full k-point grid
   LINTERFAST=   F  fast interpolation
   KINTER  =     0    interpolate to denser k-point grid
   CSHIFT  =0.1000    complex shift for real part using Kramers Kronig
   OMEGAMAX=  -1.0    maximum frequency
   DEG_THRESHOLD= 0.2000000E-02 threshold for treating states as degnerate
   RTIME   =   -0.100 relaxation time in fs
  (WPLASMAI=    0.000 imaginary part of plasma frequency in eV, 0.658/RTIME)
   DFIELD  = 0.0000000 0.0000000 0.0000000 field for delta impulse in time
 
 Orbital magnetization related:
   ORBITALMAG=     F  switch on orbital magnetization
   LCHIMAG   =     F  perturbation theory with respect to B field
   DQ        =  0.001000  dq finite difference perturbation B field
   LLRAUG    =     F  two centre corrections for induced B field



--------------------------------------------------------------------------------------------------------


 Static calculation
 charge density and potential will be updated during run
 spin polarized calculation
 RMM-DIIS sequential band-by-band and
  variant of blocked Davidson during initial phase
 perform sub-space diagonalisation
    before iterative eigenvector-optimisation
 modified Broyden-mixing scheme, WC =      100.0
 initial mixing is a Kerker type mixing with AMIX =  0.4000 and BMIX =      1.0000
 Hartree-type preconditioning will be used
 using additional bands           15
 reciprocal scheme for non local part
 use partial core corrections
 calculate Harris-corrections to forces 
   (improved forces if not selfconsistent)
 use gradient corrections 
 use of overlap-Matrix (Vanderbilt PP)
 Methfessel and Paxton  Order N= 1 SIGMA  =   0.10


--------------------------------------------------------------------------------------------------------


  energy-cutoff  :      600.00
  volume of cell :     3375.00
      direct lattice vectors                 reciprocal lattice vectors
    15.000000000  0.000000000  0.000000000     0.066666667  0.000000000  0.000000000
     0.000000000 15.000000000  0.000000000     0.000000000  0.066666667  0.000000000
     0.000000000  0.000000000 15.000000000     0.000000000  0.000000000  0.066666667

  length of vectors
    15.000000000 15.000000000 15.000000000     0.066666667  0.066666667  0.066666667


 
 k-points in units of 2pi/SCALE and weight: read from INCAR                         
   0.00000000  0.00000000  0.00000000       1.000
 
 k-points in reciprocal lattice and weights: read from INCAR                         
   0.00000000  0.00000000  0.00000000       1.000
 
 position of ions in fractional coordinates (direct lattice) 
   0.29473133  0.41903600  0.56141200
   0.36863733  0.54597800  0.49515800
   0.39559800  0.29067133  0.56103867
   0.52932733  0.50402200  0.47765200
   0.54907133  0.34885933  0.53389067
   0.44631200  0.43944800  0.60894400
   0.41813200  0.40274200  0.44097133
   0.22254267  0.56239600  0.55569067
   0.33375867  0.54242400  0.66630000
   0.34707000  0.67766667  0.56793467
   0.48176733  0.66449800  0.47306400
   0.63964600  0.48928333  0.59187200
   0.48779533  0.59307933  0.61223133
   0.75046000  0.50086667  0.65005733
   0.81909333  0.51433733  0.68172000
 
 position of ions in cartesian coordinates  (Angst):
   4.42097000  6.28554000  8.42118000
   5.52956000  8.18967000  7.42737000
   5.93397000  4.36007000  8.41558000
   7.93991000  7.56033000  7.16478000
   8.23607000  5.23289000  8.00836000
   6.69468000  6.59172000  9.13416000
   6.27198000  6.04113000  6.61457000
   3.33814000  8.43594000  8.33536000
   5.00638000  8.13636000  9.99450000
   5.20605000 10.16500000  8.51902000
   7.22651000  9.96747000  7.09596000
   9.59469000  7.33925000  8.87808000
   7.31693000  8.89619000  9.18347000
  11.25690000  7.51300000  9.75086000
  12.28640000  7.71506000 10.22580000
 


--------------------------------------------------------------------------------------------------------


 k-point  1 :   0.0000 0.0000 0.0000  plane waves:  112451

 maximum and minimum number of plane-waves per node :     18753    18726

 maximum number of plane-waves:    112451
 maximum index in each direction: 
   IXMAX=   29   IYMAX=   29   IZMAX=   29
   IXMIN=  -29   IYMIN=  -29   IZMIN=  -29


 parallel 3D FFT for wavefunctions:
    minimum data exchange during FFTs selected (reduces bandwidth)
 parallel 3D FFT for charge:
    minimum data exchange during FFTs selected (reduces bandwidth)


 total amount of memory used by VASP MPI-rank0   158680. kBytes
=======================================================================

   base      :      30000. kBytes
   nonl-proj :      12601. kBytes
   fftplans  :      27994. kBytes
   grid      :      74150. kBytes
   one-center:         93. kBytes
   wavefun   :      13842. kBytes
 
     INWAV:  cpu time    0.0000: real time    0.0001
 Broyden mixing: mesh for mixing (old mesh)
   NGX = 59   NGY = 59   NGZ = 59
  (NGX  =240   NGY  =240   NGZ  =240)
  gives a total of 205379 points

 initial charge density was supplied:
 charge density of overlapping atoms calculated
 number of electron     153.0000000 magnetization       1.0000000
 keeping initial charge density in first step


--------------------------------------------------------------------------------------------------------


 Maximum index for augmentation-charges          713 (set IRDMAX)


--------------------------------------------------------------------------------------------------------


 First call to EWALD:  gamma=   0.118
 Maximum number of real-space cells 3x 3x 3
 Maximum number of reciprocal cells 3x 3x 3

    FEWALD:  cpu time    0.0022: real time    0.0022


--------------------------------------- Iteration      1(   1)  ---------------------------------------


    POTLOK:  cpu time    1.1475: real time    1.1516
    SETDIJ:  cpu time    0.0170: real time    0.0170
     EDDAV:  cpu time    7.5683: real time    7.5741
       DOS:  cpu time    0.0014: real time    0.0014
    --------------------------------------------
      LOOP:  cpu time    8.7343: real time    8.7441

 eigenvalue-minimisations  :   376
 total energy-change (2. order) : 0.1117130E+04  (-0.4462137E+04)
 number of electron     153.0000000 magnetization       1.0000000
 augmentation part      153.0000000 magnetization       1.0000000

 Free energy of the ion-electron system (eV)
  ---------------------------------------------------
  alpha Z        PSCENC =        41.16232785
  Ewald energy   TEWEN  =     16195.15424788
  -Hartree energ DENC   =    -33218.55234161
  -exchange      EXHF   =         0.00000000
  -V(xc)+E(xc)   XCENC  =       623.31251092
  PAW double counting   =     16421.75059358   -17800.06104309
  entropy T*S    EENTRO =        -0.00047355
  eigenvalues    EBANDS =       192.14508294
  atomic energy  EATOM  =     18662.21924712
  Solvation  Ediel_sol  =         0.00000000
  ---------------------------------------------------
  free energy    TOTEN  =      1117.13015203 eV

  energy without entropy =     1117.13062558  energy(sigma->0) =     1117.13030988


--------------------------------------------------------------------------------------------------------




--------------------------------------- Iteration      1(   2)  ---------------------------------------


     EDDAV:  cpu time    7.4773: real time    7.4829
       DOS:  cpu time    0.0007: real time    0.0007
    --------------------------------------------
      LOOP:  cpu time    7.4780: real time    7.4836

 eigenvalue-minimisations  :   368
 total energy-change (2. order) :-0.1029351E+04  (-0.9776263E+03)
 number of electron     153.0000000 magnetization       1.0000000
 augmentation part      153.0000000 magnetization       1.0000000

 Free energy of the ion-electron system (eV)
  ---------------------------------------------------
  alpha Z        PSCENC =        41.16232785
  Ewald energy   TEWEN  =     16195.15424788
  -Hartree energ DENC   =    -33218.55234161
  -exchange      EXHF   =         0.00000000
  -V(xc)+E(xc)   XCENC  =       623.31251092
  PAW double counting   =     16421.75059358   -17800.06104309
  entropy T*S    EENTRO =        -0.00591202
  eigenvalues    EBANDS =      -837.20014742
  atomic energy  EATOM  =     18662.21924712
  Solvation  Ediel_sol  =         0.00000000
  ---------------------------------------------------
  free energy    TOTEN  =        87.77948320 eV

  energy without entropy =       87.78539522  energy(sigma->0) =       87.78145388


--------------------------------------------------------------------------------------------------------




--------------------------------------- Iteration      1(   3)  ---------------------------------------


     EDDAV:  cpu time   11.9966: real time   12.0051
       DOS:  cpu time    0.0011: real time    0.0011
    --------------------------------------------
      LOOP:  cpu time   11.9977: real time   12.0062

 eigenvalue-minimisations  :   672
 total energy-change (2. order) :-0.1222086E+03  (-0.1146032E+03)
 number of electron     153.0000000 magnetization       1.0000000
 augmentation part      153.0000000 magnetization       1.0000000

 Free energy of the ion-electron system (eV)
  ---------------------------------------------------
  alpha Z        PSCENC =        41.16232785
  Ewald energy   TEWEN  =     16195.15424788
  -Hartree energ DENC   =    -33218.55234161
  -exchange      EXHF   =         0.00000000
  -V(xc)+E(xc)   XCENC  =       623.31251092
  PAW double counting   =     16421.75059358   -17800.06104309
  entropy T*S    EENTRO =         0.00974601
  eigenvalues    EBANDS =      -959.42445108
  atomic energy  EATOM  =     18662.21924712
  Solvation  Ediel_sol  =         0.00000000
  ---------------------------------------------------
  free energy    TOTEN  =       -34.42916243 eV

  energy without entropy =      -34.43890844  energy(sigma->0) =      -34.43241110


--------------------------------------------------------------------------------------------------------




--------------------------------------- Iteration      1(   4)  ---------------------------------------


     EDDAV:  cpu time   10.4525: real time   10.4608
       DOS:  cpu time    0.0006: real time    0.0006
    --------------------------------------------
      LOOP:  cpu time   10.4531: real time   10.4614

 eigenvalue-minimisations  :   568
 total energy-change (2. order) :-0.2117625E+02  (-0.2088356E+02)
 number of electron     153.0000000 magnetization       1.0000000
 augmentation part      153.0000000 magnetization       1.0000000

 Free energy of the ion-electron system (eV)
  ---------------------------------------------------
  alpha Z        PSCENC =        41.16232785
  Ewald energy   TEWEN  =     16195.15424788
  -Hartree energ DENC   =    -33218.55234161
  -exchange      EXHF   =         0.00000000
  -V(xc)+E(xc)   XCENC  =       623.31251092
  PAW double counting   =     16421.75059358   -17800.06104309
  entropy T*S    EENTRO =         0.00914702
  eigenvalues    EBANDS =      -980.60010232
  atomic energy  EATOM  =     18662.21924712
  Solvation  Ediel_sol  =         0.00000000
  ---------------------------------------------------
  free energy    TOTEN  =       -55.60541266 eV

  energy without entropy =      -55.61455968  energy(sigma->0) =      -55.60846167


--------------------------------------------------------------------------------------------------------




--------------------------------------- Iteration      1(   5)  ---------------------------------------


     EDDAV:  cpu time   12.1721: real time   12.1791
       DOS:  cpu time    0.0009: real time    0.0009
    CHARGE:  cpu time    0.6625: real time    0.6629
    MIXING:  cpu time    0.0228: real time    0.0228
    --------------------------------------------
      LOOP:  cpu time   12.8582: real time   12.8657

 eigenvalue-minimisations  :   680
 total energy-change (2. order) :-0.1307827E+01  (-0.1202038E+01)
 number of electron     153.0000006 magnetization       1.0000000
 augmentation part       87.5741798 magnetization       0.3662913

 Broyden mixing:
  rms(total) = 0.23167E+01    rms(broyden)= 0.23166E+01
  rms(prec ) = 0.26550E+01
  weight for this iteration     100.00

 Free energy of the ion-electron system (eV)
  ---------------------------------------------------
  alpha Z        PSCENC =        41.16232785
  Ewald energy   TEWEN  =     16195.15424788
  -Hartree energ DENC   =    -33218.55234161
  -exchange      EXHF   =         0.00000000
  -V(xc)+E(xc)   XCENC  =       623.31251092
  PAW double counting   =     16421.75059358   -17800.06104309
  entropy T*S    EENTRO =         0.00931136
  eigenvalues    EBANDS =      -981.90809406
  atomic energy  EATOM  =     18662.21924712
  Solvation  Ediel_sol  =         0.00000000
  ---------------------------------------------------
  free energy    TOTEN  =       -56.91324005 eV

  energy without entropy =      -56.92255141  energy(sigma->0) =      -56.91634384


--------------------------------------------------------------------------------------------------------




--------------------------------------- Iteration      1(   6)  ---------------------------------------


    POTLOK:  cpu time    1.1308: real time    1.1320
    SETDIJ:  cpu time    0.0174: real time    0.0174
    EDDIAG:  cpu time    1.0951: real time    1.0956
  RMM-DIIS:  cpu time    7.1287: real time    7.1338
    ORTHCH:  cpu time    0.0592: real time    0.0592
       DOS:  cpu time    0.0005: real time    0.0005
    CHARGE:  cpu time    0.6361: real time    0.6365
    MIXING:  cpu time    0.0237: real time    0.0236
    --------------------------------------------
      LOOP:  cpu time   10.0915: real time   10.0987

 eigenvalue-minimisations  :   421
 total energy-change (2. order) : 0.1044435E+01  (-0.1159441E+02)
 number of electron     153.0000005 magnetization       1.0000000
 augmentation part       95.6218075 magnetization       0.0938684

 Broyden mixing:
  rms(total) = 0.15128E+01    rms(broyden)= 0.15126E+01
  rms(prec ) = 0.17446E+01
  weight for this iteration     100.00

 eigenvalues of (default mixing * dielectric matrix)
  average eigenvalue GAMMA=   0.6172
  0.6172

 Free energy of the ion-electron system (eV)
  ---------------------------------------------------
  alpha Z        PSCENC =        41.16232785
  Ewald energy   TEWEN  =     16195.15424788
  -Hartree energ DENC   =    -32973.84110527
  -exchange      EXHF   =         0.00000000
  -V(xc)+E(xc)   XCENC  =       611.21696391
  PAW double counting   =     16702.14659983   -18027.21875007
  entropy T*S    EENTRO =         0.00629021
  eigenvalues    EBANDS =     -1266.71462691
  atomic energy  EATOM  =     18662.21924712
  Solvation  Ediel_sol  =         0.00000000
  ---------------------------------------------------
  free energy    TOTEN  =       -55.86880545 eV

  energy without entropy =      -55.87509567  energy(sigma->0) =      -55.87090219


--------------------------------------------------------------------------------------------------------




--------------------------------------- Iteration      1(   7)  ---------------------------------------


    POTLOK:  cpu time    1.1332: real time    1.1358
    SETDIJ:  cpu time    0.0167: real time    0.0167
    EDDIAG:  cpu time    1.0969: real time    1.0977
  RMM-DIIS:  cpu time    7.3219: real time    7.3260
    ORTHCH:  cpu time    0.0589: real time    0.0589
       DOS:  cpu time    0.0005: real time    0.0005
    CHARGE:  cpu time    0.6487: real time    0.6490
    MIXING:  cpu time    0.0238: real time    0.0238
    --------------------------------------------
      LOOP:  cpu time   10.3005: real time   10.3083

 eigenvalue-minimisations  :   381
 total energy-change (2. order) : 0.6812200E+01  (-0.2388324E+01)
 number of electron     153.0000006 magnetization       1.0000000
 augmentation part       92.8687014 magnetization       0.1071035

 Broyden mixing:
  rms(total) = 0.37780E+00    rms(broyden)= 0.37778E+00
  rms(prec ) = 0.46660E+00
  weight for this iteration     100.00

 eigenvalues of (default mixing * dielectric matrix)
  average eigenvalue GAMMA=   0.9613
  1.2583  0.6643

 Free energy of the ion-electron system (eV)
  ---------------------------------------------------
  alpha Z        PSCENC =        41.16232785
  Ewald energy   TEWEN  =     16195.15424788
  -Hartree energ DENC   =    -33106.25732371
  -exchange      EXHF   =         0.00000000
  -V(xc)+E(xc)   XCENC  =       615.57377206
  PAW double counting   =     17038.24478058   -18411.94773004
  entropy T*S    EENTRO =         0.00724204
  eigenvalues    EBANDS =     -1083.21316884
  atomic energy  EATOM  =     18662.21924712
  Solvation  Ediel_sol  =         0.00000000
  ---------------------------------------------------
  free energy    TOTEN  =       -49.05660507 eV

  energy without entropy =      -49.06384710  energy(sigma->0) =      -49.05901908


--------------------------------------------------------------------------------------------------------




--------------------------------------- Iteration      1(   8)  ---------------------------------------


    POTLOK:  cpu time    1.1312: real time    1.1325
    SETDIJ:  cpu time    0.0177: real time    0.0177
    EDDIAG:  cpu time    1.0956: real time    1.0963
  RMM-DIIS:  cpu time    7.2955: real time    7.3018
    ORTHCH:  cpu time    0.0586: real time    0.0586
       DOS:  cpu time    0.0005: real time    0.0005
    CHARGE:  cpu time    0.6590: real time    0.6593
    MIXING:  cpu time    0.0248: real time    0.0248
    --------------------------------------------
      LOOP:  cpu time   10.2829: real time   10.2916

 eigenvalue-minimisations  :   428
 total energy-change (2. order) : 0.1836783E+00  (-0.4344727E+00)
 number of electron     153.0000006 magnetization       1.0000000
 augmentation part       92.0630660 magnetization       0.1031366

 Broyden mixing:
  rms(total) = 0.33454E+00    rms(broyden)= 0.33452E+00
  rms(prec ) = 0.37946E+00
  weight for this iteration     100.00

 eigenvalues of (default mixing * dielectric matrix)
  average eigenvalue GAMMA=   0.9033
  1.3570  0.6764  0.6764

 Free energy of the ion-electron system (eV)
  ---------------------------------------------------
  alpha Z        PSCENC =        41.16232785
  Ewald energy   TEWEN  =     16195.15424788
  -Hartree energ DENC   =    -33156.27159446
  -exchange      EXHF   =         0.00000000
  -V(xc)+E(xc)   XCENC  =       616.01894473
  PAW double counting   =     17406.41135304   -18800.42293788
  entropy T*S    EENTRO =         0.00807469
  eigenvalues    EBANDS =     -1013.15258977
  atomic energy  EATOM  =     18662.21924712
  Solvation  Ediel_sol  =         0.00000000
  ---------------------------------------------------
  free energy    TOTEN  =       -48.87292680 eV

  energy without entropy =      -48.88100150  energy(sigma->0) =      -48.87561837


--------------------------------------------------------------------------------------------------------




--------------------------------------- Iteration      1(   9)  ---------------------------------------


    POTLOK:  cpu time    1.1343: real time    1.1360
    SETDIJ:  cpu time    0.0173: real time    0.0173
    EDDIAG:  cpu time    1.0896: real time    1.1006
  RMM-DIIS:  cpu time    7.1644: real time    7.1698
    ORTHCH:  cpu time    0.0554: real time    0.0555
       DOS:  cpu time    0.0005: real time    0.0005
    CHARGE:  cpu time    0.6613: real time    0.6613
    MIXING:  cpu time    0.0247: real time    0.0248
    --------------------------------------------
      LOOP:  cpu time   10.1474: real time   10.1657

 eigenvalue-minimisations  :   412
 total energy-change (2. order) : 0.7511820E-01  (-0.1063954E+00)
 number of electron     153.0000006 magnetization       1.0000000
 augmentation part       92.2702538 magnetization       0.0943544

 Broyden mixing:
  rms(total) = 0.18432E+00    rms(broyden)= 0.18431E+00
  rms(prec ) = 0.21976E+00
  weight for this iteration     100.00

 eigenvalues of (default mixing * dielectric matrix)
  average eigenvalue GAMMA=   1.0305
  2.0801  0.7821  0.7821  0.4776

 Free energy of the ion-electron system (eV)
  ---------------------------------------------------
  alpha Z        PSCENC =        41.16232785
  Ewald energy   TEWEN  =     16195.15424788
  -Hartree energ DENC   =    -33152.95487739
  -exchange      EXHF   =         0.00000000
  -V(xc)+E(xc)   XCENC  =       615.59697850
  PAW double counting   =     17486.40884488   -18881.30759766
  entropy T*S    EENTRO =         0.00798099
  eigenvalues    EBANDS =     -1015.08496076
  atomic energy  EATOM  =     18662.21924712
  Solvation  Ediel_sol  =         0.00000000
  ---------------------------------------------------
  free energy    TOTEN  =       -48.79780861 eV

  energy without entropy =      -48.80578959  energy(sigma->0) =      -48.80046894


--------------------------------------------------------------------------------------------------------




--------------------------------------- Iteration      1(  10)  ---------------------------------------


    POTLOK:  cpu time    1.1333: real time    1.1358
    SETDIJ:  cpu time    0.0178: real time    0.0178
    EDDIAG:  cpu time    1.0888: real time    1.0956
  RMM-DIIS:  cpu time    7.7972: real time    7.8020
    ORTHCH:  cpu time    0.0558: real time    0.0559
       DOS:  cpu time    0.0005: real time    0.0005
    CHARGE:  cpu time    0.6604: real time    0.6605
    MIXING:  cpu time    0.0253: real time    0.0253
    --------------------------------------------
      LOOP:  cpu time   10.7792: real time   10.7934

 eigenvalue-minimisations  :   419
 total energy-change (2. order) : 0.6211107E-01  (-0.2028815E-01)
 number of electron     153.0000006 magnetization       1.0000000
 augmentation part       92.4960986 magnetization       0.0816050

 Broyden mixing:
  rms(total) = 0.71614E-01    rms(broyden)= 0.71612E-01
  rms(prec ) = 0.93622E-01
  weight for this iteration     100.00

 eigenvalues of (default mixing * dielectric matrix)
  average eigenvalue GAMMA=   1.0676
  2.1511  1.2128  0.7514  0.7514  0.4714

 Free energy of the ion-electron system (eV)
  ---------------------------------------------------
  alpha Z        PSCENC =        41.16232785
  Ewald energy   TEWEN  =     16195.15424788
  -Hartree energ DENC   =    -33149.48700136
  -exchange      EXHF   =         0.00000000
  -V(xc)+E(xc)   XCENC  =       615.10123955
  PAW double counting   =     17592.29764683   -18988.47305644
  entropy T*S    EENTRO =         0.00784107
  eigenvalues    EBANDS =     -1016.71819003
  atomic energy  EATOM  =     18662.21924712
  Solvation  Ediel_sol  =         0.00000000
  ---------------------------------------------------
  free energy    TOTEN  =       -48.73569754 eV

  energy without entropy =      -48.74353861  energy(sigma->0) =      -48.73831123


--------------------------------------------------------------------------------------------------------




--------------------------------------- Iteration      1(  11)  ---------------------------------------


    POTLOK:  cpu time    1.1259: real time    1.1330
    SETDIJ:  cpu time    0.0172: real time    0.0172
    EDDIAG:  cpu time    1.0933: real time    1.0940
  RMM-DIIS:  cpu time    7.9460: real time    7.9514
    ORTHCH:  cpu time    0.0523: real time    0.0523
       DOS:  cpu time    0.0005: real time    0.0005
    CHARGE:  cpu time    0.6591: real time    0.6595
    MIXING:  cpu time    0.0264: real time    0.0264
    --------------------------------------------
      LOOP:  cpu time   10.9207: real time   10.9343

 eigenvalue-minimisations  :   422
 total energy-change (2. order) : 0.1690151E-01  (-0.7576835E-02)
 number of electron     153.0000006 magnetization       1.0000000
 augmentation part       92.4235449 magnetization       0.0822199

 Broyden mixing:
  rms(total) = 0.37292E-01    rms(broyden)= 0.37287E-01
  rms(prec ) = 0.49681E-01
  weight for this iteration     100.00

 eigenvalues of (default mixing * dielectric matrix)
  average eigenvalue GAMMA=   1.0399
  2.2092  1.4530  0.7681  0.7681  0.4785  0.5625

 Free energy of the ion-electron system (eV)
  ---------------------------------------------------
  alpha Z        PSCENC =        41.16232785
  Ewald energy   TEWEN  =     16195.15424788
  -Hartree energ DENC   =    -33157.76389428
  -exchange      EXHF   =         0.00000000
  -V(xc)+E(xc)   XCENC  =       615.20966869
  PAW double counting   =     17642.80027941   -19041.17798040
  entropy T*S    EENTRO =         0.00810751
  eigenvalues    EBANDS =     -1006.33079979
  atomic energy  EATOM  =     18662.21924712
  Solvation  Ediel_sol  =         0.00000000
  ---------------------------------------------------
  free energy    TOTEN  =       -48.71879602 eV

  energy without entropy =      -48.72690353  energy(sigma->0) =      -48.72149852


--------------------------------------------------------------------------------------------------------




--------------------------------------- Iteration      1(  12)  ---------------------------------------


    POTLOK:  cpu time    1.1300: real time    1.1346
    SETDIJ:  cpu time    0.0178: real time    0.0178
    EDDIAG:  cpu time    1.0907: real time    1.0914
  RMM-DIIS:  cpu time    7.1819: real time    7.1866
    ORTHCH:  cpu time    0.0515: real time    0.0515
       DOS:  cpu time    0.0005: real time    0.0005
    CHARGE:  cpu time    0.6585: real time    0.6588
    MIXING:  cpu time    0.0274: real time    0.0274
    --------------------------------------------
      LOOP:  cpu time   10.1583: real time   10.1685

 eigenvalue-minimisations  :   431
 total energy-change (2. order) : 0.1805095E-02  (-0.1984949E-02)
 number of electron     153.0000006 magnetization       1.0000000
 augmentation part       92.4145269 magnetization       0.0808002

 Broyden mixing:
  rms(total) = 0.19159E-01    rms(broyden)= 0.19158E-01
  rms(prec ) = 0.31537E-01
  weight for this iteration     100.00

 eigenvalues of (default mixing * dielectric matrix)
  average eigenvalue GAMMA=   1.0923
  2.3660  1.7118  1.1564  0.7066  0.7066  0.4551  0.5437

 Free energy of the ion-electron system (eV)
  ---------------------------------------------------
  alpha Z        PSCENC =        41.16232785
  Ewald energy   TEWEN  =     16195.15424788
  -Hartree energ DENC   =    -33160.97166836
  -exchange      EXHF   =         0.00000000
  -V(xc)+E(xc)   XCENC  =       615.25545476
  PAW double counting   =     17649.97647844   -19048.72293842
  entropy T*S    EENTRO =         0.00796877
  eigenvalues    EBANDS =     -1002.79810897
  atomic energy  EATOM  =     18662.21924712
  Solvation  Ediel_sol  =         0.00000000
  ---------------------------------------------------
  free energy    TOTEN  =       -48.71699093 eV

  energy without entropy =      -48.72495970  energy(sigma->0) =      -48.71964718


--------------------------------------------------------------------------------------------------------




--------------------------------------- Iteration      1(  13)  ---------------------------------------


    POTLOK:  cpu time    1.1355: real time    1.1382
    SETDIJ:  cpu time    0.0176: real time    0.0176
    EDDIAG:  cpu time    1.0887: real time    1.0910
  RMM-DIIS:  cpu time    7.4864: real time    7.4902
    ORTHCH:  cpu time    0.0515: real time    0.0515
       DOS:  cpu time    0.0005: real time    0.0005
    CHARGE:  cpu time    0.6589: real time    0.6593
    MIXING:  cpu time    0.0278: real time    0.0278
    --------------------------------------------
      LOOP:  cpu time   10.4669: real time   10.4761

 eigenvalue-minimisations  :   461
 total energy-change (2. order) : 0.1094356E-02  (-0.6227860E-03)
 number of electron     153.0000006 magnetization       1.0000000
 augmentation part       92.4197161 magnetization       0.0809038

 Broyden mixing:
  rms(total) = 0.94408E-02    rms(broyden)= 0.94405E-02
  rms(prec ) = 0.19151E-01
  weight for this iteration     100.00

 eigenvalues of (default mixing * dielectric matrix)
  average eigenvalue GAMMA=   1.1269
  2.3896  2.0569  1.3771  0.7584  0.7584  0.7068  0.5213  0.4467

 Free energy of the ion-electron system (eV)
  ---------------------------------------------------
  alpha Z        PSCENC =        41.16232785
  Ewald energy   TEWEN  =     16195.15424788
  -Hartree energ DENC   =    -33166.18100396
  -exchange      EXHF   =         0.00000000
  -V(xc)+E(xc)   XCENC  =       615.29673665
  PAW double counting   =     17651.22642347   -19050.00561719
  entropy T*S    EENTRO =         0.00797623
  eigenvalues    EBANDS =      -997.59623462
  atomic energy  EATOM  =     18662.21924712
  Solvation  Ediel_sol  =         0.00000000
  ---------------------------------------------------
  free energy    TOTEN  =       -48.71589657 eV

  energy without entropy =      -48.72387280  energy(sigma->0) =      -48.71855531


--------------------------------------------------------------------------------------------------------




--------------------------------------- Iteration      1(  14)  ---------------------------------------


    POTLOK:  cpu time    1.1341: real time    1.1354
    SETDIJ:  cpu time    0.0179: real time    0.0179
    EDDIAG:  cpu time    1.0911: real time    1.0930
  RMM-DIIS:  cpu time    6.6975: real time    6.7007
    ORTHCH:  cpu time    0.0517: real time    0.0517
       DOS:  cpu time    0.0005: real time    0.0005
    CHARGE:  cpu time    0.6569: real time    0.6570
    MIXING:  cpu time    0.0287: real time    0.0287
    --------------------------------------------
      LOOP:  cpu time    9.6784: real time    9.6849

 eigenvalue-minimisations  :   402
 total energy-change (2. order) :-0.1261064E-02  (-0.3108531E-03)
 number of electron     153.0000006 magnetization       1.0000000
 augmentation part       92.4323561 magnetization       0.0811357

 Broyden mixing:
  rms(total) = 0.10894E-01    rms(broyden)= 0.10894E-01
  rms(prec ) = 0.16906E-01
  weight for this iteration     100.00

 eigenvalues of (default mixing * dielectric matrix)
  average eigenvalue GAMMA=   1.1391
  2.4111  2.4111  1.3178  1.0342  0.7392  0.7392  0.6512  0.4985  0.4501

 Free energy of the ion-electron system (eV)
  ---------------------------------------------------
  alpha Z        PSCENC =        41.16232785
  Ewald energy   TEWEN  =     16195.15424788
  -Hartree energ DENC   =    -33170.67997102
  -exchange      EXHF   =         0.00000000
  -V(xc)+E(xc)   XCENC  =       615.32695328
  PAW double counting   =     17643.39777863   -19041.83979139
  entropy T*S    EENTRO =         0.00796959
  eigenvalues    EBANDS =      -993.46591957
  atomic energy  EATOM  =     18662.21924712
  Solvation  Ediel_sol  =         0.00000000
  ---------------------------------------------------
  free energy    TOTEN  =       -48.71715763 eV

  energy without entropy =      -48.72512722  energy(sigma->0) =      -48.71981416


--------------------------------------------------------------------------------------------------------




--------------------------------------- Iteration      1(  15)  ---------------------------------------


    POTLOK:  cpu time    1.1369: real time    1.1381
    SETDIJ:  cpu time    0.0176: real time    0.0176
    EDDIAG:  cpu time    1.0969: real time    1.1084
  RMM-DIIS:  cpu time    6.8786: real time    6.8918
    ORTHCH:  cpu time    0.0545: real time    0.0545
       DOS:  cpu time    0.0005: real time    0.0005
    CHARGE:  cpu time    0.6572: real time    0.6572
    MIXING:  cpu time    0.0293: real time    0.0293
    --------------------------------------------
      LOOP:  cpu time    9.8715: real time    9.8975

 eigenvalue-minimisations  :   407
 total energy-change (2. order) :-0.1159731E-02  (-0.1270711E-03)
 number of electron     153.0000006 magnetization       1.0000000
 augmentation part       92.4310793 magnetization       0.0812590

 Broyden mixing:
  rms(total) = 0.67038E-02    rms(broyden)= 0.67036E-02
  rms(prec ) = 0.11049E-01
  weight for this iteration     100.00

 eigenvalues of (default mixing * dielectric matrix)
  average eigenvalue GAMMA=   1.2028
  2.7088  2.7088  1.4410  1.4410  0.7502  0.7502  0.7449  0.5525  0.4514  0.4789

 Free energy of the ion-electron system (eV)
  ---------------------------------------------------
  alpha Z        PSCENC =        41.16232785
  Ewald energy   TEWEN  =     16195.15424788
  -Hartree energ DENC   =    -33173.64073540
  -exchange      EXHF   =         0.00000000
  -V(xc)+E(xc)   XCENC  =       615.35149458
  PAW double counting   =     17638.62175890   -19036.92600589
  entropy T*S    EENTRO =         0.00795299
  eigenvalues    EBANDS =      -990.66860540
  atomic energy  EATOM  =     18662.21924712
  Solvation  Ediel_sol  =         0.00000000
  ---------------------------------------------------
  free energy    TOTEN  =       -48.71831736 eV

  energy without entropy =      -48.72627035  energy(sigma->0) =      -48.72096836


--------------------------------------------------------------------------------------------------------




--------------------------------------- Iteration      1(  16)  ---------------------------------------


    POTLOK:  cpu time    1.1331: real time    1.1353
    SETDIJ:  cpu time    0.0174: real time    0.0174
    EDDIAG:  cpu time    1.0879: real time    1.0900
  RMM-DIIS:  cpu time    6.6487: real time    6.6521
    ORTHCH:  cpu time    0.0525: real time    0.0525
       DOS:  cpu time    0.0004: real time    0.0004
    CHARGE:  cpu time    0.6561: real time    0.6565
    MIXING:  cpu time    0.0302: real time    0.0302
    --------------------------------------------
      LOOP:  cpu time    9.6263: real time    9.6344

 eigenvalue-minimisations  :   397
 total energy-change (2. order) :-0.1833522E-02  (-0.1039793E-03)
 number of electron     153.0000006 magnetization       1.0000000
 augmentation part       92.4239810 magnetization       0.0812398

 Broyden mixing:
  rms(total) = 0.44623E-02    rms(broyden)= 0.44616E-02
  rms(prec ) = 0.68803E-02
  weight for this iteration     100.00

 eigenvalues of (default mixing * dielectric matrix)
  average eigenvalue GAMMA=   1.2479
  3.3907  2.6407  1.5370  1.5370  0.9740  0.7509  0.7509  0.6939  0.4474  0.5114
  0.4927

 Free energy of the ion-electron system (eV)
  ---------------------------------------------------
  alpha Z        PSCENC =        41.16232785
  Ewald energy   TEWEN  =     16195.15424788
  -Hartree energ DENC   =    -33176.77951135
  -exchange      EXHF   =         0.00000000
  -V(xc)+E(xc)   XCENC  =       615.38016459
  PAW double counting   =     17634.23923809   -19032.48646265
  entropy T*S    EENTRO =         0.00798547
  eigenvalues    EBANDS =      -987.61738787
  atomic energy  EATOM  =     18662.21924712
  Solvation  Ediel_sol  =         0.00000000
  ---------------------------------------------------
  free energy    TOTEN  =       -48.72015089 eV

  energy without entropy =      -48.72813636  energy(sigma->0) =      -48.72281271


--------------------------------------------------------------------------------------------------------




--------------------------------------- Iteration      1(  17)  ---------------------------------------


    POTLOK:  cpu time    1.1354: real time    1.1358
    SETDIJ:  cpu time    0.0178: real time    0.0178
    EDDIAG:  cpu time    1.0897: real time    1.0905
  RMM-DIIS:  cpu time    6.6514: real time    6.6558
    ORTHCH:  cpu time    0.0528: real time    0.0529
       DOS:  cpu time    0.0005: real time    0.0005
    CHARGE:  cpu time    0.6565: real time    0.6568
    MIXING:  cpu time    0.0314: real time    0.0314
    --------------------------------------------
      LOOP:  cpu time    9.6355: real time    9.6415

 eigenvalue-minimisations  :   401
 total energy-change (2. order) :-0.1524675E-02  (-0.4007110E-04)
 number of electron     153.0000006 magnetization       1.0000000
 augmentation part       92.4219208 magnetization       0.0811617

 Broyden mixing:
  rms(total) = 0.24467E-02    rms(broyden)= 0.24466E-02
  rms(prec ) = 0.40808E-02
  weight for this iteration     100.00

 eigenvalues of (default mixing * dielectric matrix)
  average eigenvalue GAMMA=   1.3329
  4.3425  2.6105  1.9982  1.3442  1.3442  0.7703  0.7703  0.7035  0.6665  0.5211
  0.4485  0.4748

 Free energy of the ion-electron system (eV)
  ---------------------------------------------------
  alpha Z        PSCENC =        41.16232785
  Ewald energy   TEWEN  =     16195.15424788
  -Hartree energ DENC   =    -33178.41997589
  -exchange      EXHF   =         0.00000000
  -V(xc)+E(xc)   XCENC  =       615.39231827
  PAW double counting   =     17632.78463180   -19031.04689350
  entropy T*S    EENTRO =         0.00798851
  eigenvalues    EBANDS =      -985.97556759
  atomic energy  EATOM  =     18662.21924712
  Solvation  Ediel_sol  =         0.00000000
  ---------------------------------------------------
  free energy    TOTEN  =       -48.72167556 eV

  energy without entropy =      -48.72966407  energy(sigma->0) =      -48.72433840


--------------------------------------------------------------------------------------------------------




--------------------------------------- Iteration      1(  18)  ---------------------------------------


    POTLOK:  cpu time    1.1342: real time    1.1346
    SETDIJ:  cpu time    0.0173: real time    0.0173
    EDDIAG:  cpu time    1.0897: real time    1.0903
  RMM-DIIS:  cpu time    6.7888: real time    6.7938
    ORTHCH:  cpu time    0.0532: real time    0.0532
       DOS:  cpu time    0.0005: real time    0.0005
    CHARGE:  cpu time    0.6572: real time    0.6575
    MIXING:  cpu time    0.0323: real time    0.0324
    --------------------------------------------
      LOOP:  cpu time    9.7732: real time    9.7797

 eigenvalue-minimisations  :   404
 total energy-change (2. order) :-0.1057089E-02  (-0.2011391E-04)
 number of electron     153.0000006 magnetization       1.0000000
 augmentation part       92.4208831 magnetization       0.0812370

 Broyden mixing:
  rms(total) = 0.17746E-02    rms(broyden)= 0.17746E-02
  rms(prec ) = 0.29132E-02
  weight for this iteration     100.00

 eigenvalues of (default mixing * dielectric matrix)
  average eigenvalue GAMMA=   1.3894
  5.2208  2.6564  2.2200  1.3898  1.3898  0.8313  0.8313  0.7495  0.7495  0.5897
  0.5124  0.4484  0.4730

 Free energy of the ion-electron system (eV)
  ---------------------------------------------------
  alpha Z        PSCENC =        41.16232785
  Ewald energy   TEWEN  =     16195.15424788
  -Hartree energ DENC   =    -33179.37741310
  -exchange      EXHF   =         0.00000000
  -V(xc)+E(xc)   XCENC  =       615.39569626
  PAW double counting   =     17632.79201839   -19031.08398301
  entropy T*S    EENTRO =         0.00799136
  eigenvalues    EBANDS =      -984.99286539
  atomic energy  EATOM  =     18662.21924712
  Solvation  Ediel_sol  =         0.00000000
  ---------------------------------------------------
  free energy    TOTEN  =       -48.72273265 eV

  energy without entropy =      -48.73072401  energy(sigma->0) =      -48.72539644


--------------------------------------------------------------------------------------------------------




--------------------------------------- Iteration      1(  19)  ---------------------------------------


    POTLOK:  cpu time    1.1362: real time    1.1374
    SETDIJ:  cpu time    0.0173: real time    0.0173
    EDDIAG:  cpu time    1.0893: real time    1.0898
  RMM-DIIS:  cpu time    6.7342: real time    6.7383
    ORTHCH:  cpu time    0.0530: real time    0.0531
       DOS:  cpu time    0.0005: real time    0.0005
    CHARGE:  cpu time    0.6569: real time    0.6569
    MIXING:  cpu time    0.0342: real time    0.0342
    --------------------------------------------
      LOOP:  cpu time    9.7215: real time    9.7275

 eigenvalue-minimisations  :   405
 total energy-change (2. order) :-0.7906382E-03  (-0.1032300E-04)
 number of electron     153.0000006 magnetization       1.0000000
 augmentation part       92.4242984 magnetization       0.0813153

 Broyden mixing:
  rms(total) = 0.12568E-02    rms(broyden)= 0.12566E-02
  rms(prec ) = 0.19719E-02
  weight for this iteration     100.00

 eigenvalues of (default mixing * dielectric matrix)
  average eigenvalue GAMMA=   1.4381
  5.8586  2.7498  2.3235  1.5202  1.3883  1.3883  0.7638  0.7638  0.7025  0.7025
  0.5370  0.5145  0.4480  0.4731

 Free energy of the ion-electron system (eV)
  ---------------------------------------------------
  alpha Z        PSCENC =        41.16232785
  Ewald energy   TEWEN  =     16195.15424788
  -Hartree energ DENC   =    -33179.64991353
  -exchange      EXHF   =         0.00000000
  -V(xc)+E(xc)   XCENC  =       615.39094982
  PAW double counting   =     17632.79175673   -19031.06328735
  entropy T*S    EENTRO =         0.00798459
  eigenvalues    EBANDS =      -984.73683640
  atomic energy  EATOM  =     18662.21924712
  Solvation  Ediel_sol  =         0.00000000
  ---------------------------------------------------
  free energy    TOTEN  =       -48.72352329 eV

  energy without entropy =      -48.73150787  energy(sigma->0) =      -48.72618482


--------------------------------------------------------------------------------------------------------




--------------------------------------- Iteration      1(  20)  ---------------------------------------


    POTLOK:  cpu time    1.1335: real time    1.1377
    SETDIJ:  cpu time    0.0173: real time    0.0173
    EDDIAG:  cpu time    1.0893: real time    1.0897
  RMM-DIIS:  cpu time    6.8548: real time    6.8592
    ORTHCH:  cpu time    0.0529: real time    0.0529
       DOS:  cpu time    0.0005: real time    0.0005
    CHARGE:  cpu time    0.6576: real time    0.6578
    MIXING:  cpu time    0.0357: real time    0.0357
    --------------------------------------------
      LOOP:  cpu time    9.8415: real time    9.8508

 eigenvalue-minimisations  :   401
 total energy-change (2. order) :-0.5248509E-03  (-0.5247022E-05)
 number of electron     153.0000006 magnetization       1.0000000
 augmentation part       92.4248510 magnetization       0.0813157

 Broyden mixing:
  rms(total) = 0.84439E-03    rms(broyden)= 0.84438E-03
  rms(prec ) = 0.13077E-02
  weight for this iteration     100.00

 eigenvalues of (default mixing * dielectric matrix)
  average eigenvalue GAMMA=   1.4672
  6.2789  2.8911  2.3722  1.9263  1.3790  1.3790  0.8605  0.8605  0.7417  0.7417
  0.6231  0.5170  0.5170  0.4485  0.4711

 Free energy of the ion-electron system (eV)
  ---------------------------------------------------
  alpha Z        PSCENC =        41.16232785
  Ewald energy   TEWEN  =     16195.15424788
  -Hartree energ DENC   =    -33179.82619991
  -exchange      EXHF   =         0.00000000
  -V(xc)+E(xc)   XCENC  =       615.38875617
  PAW double counting   =     17633.12588845   -19031.39868016
  entropy T*S    EENTRO =         0.00798439
  eigenvalues    EBANDS =      -984.55761993
  atomic energy  EATOM  =     18662.21924712
  Solvation  Ediel_sol  =         0.00000000
  ---------------------------------------------------
  free energy    TOTEN  =       -48.72404814 eV

  energy without entropy =      -48.73203253  energy(sigma->0) =      -48.72670960


--------------------------------------------------------------------------------------------------------




--------------------------------------- Iteration      1(  21)  ---------------------------------------


    POTLOK:  cpu time    1.1354: real time    1.1364
    SETDIJ:  cpu time    0.0172: real time    0.0172
    EDDIAG:  cpu time    1.0891: real time    1.0899
  RMM-DIIS:  cpu time    6.7377: real time    6.7426
    ORTHCH:  cpu time    0.0524: real time    0.0524
       DOS:  cpu time    0.0005: real time    0.0005
    CHARGE:  cpu time    0.6556: real time    0.6560
    MIXING:  cpu time    0.0372: real time    0.0372
    --------------------------------------------
      LOOP:  cpu time    9.7251: real time    9.7323

 eigenvalue-minimisations  :   400
 total energy-change (2. order) :-0.4106344E-03  (-0.2970483E-05)
 number of electron     153.0000006 magnetization       1.0000000
 augmentation part       92.4236765 magnetization       0.0812735

 Broyden mixing:
  rms(total) = 0.45603E-03    rms(broyden)= 0.45602E-03
  rms(prec ) = 0.77300E-03
  weight for this iteration     100.00

 eigenvalues of (default mixing * dielectric matrix)
  average eigenvalue GAMMA=   1.5193
  6.6932  3.4335  2.4585  2.2198  1.3850  1.3850  1.2118  0.7572  0.7572  0.7300
  0.7300  0.5905  0.4483  0.4718  0.5270  0.5101

 Free energy of the ion-electron system (eV)
  ---------------------------------------------------
  alpha Z        PSCENC =        41.16232785
  Ewald energy   TEWEN  =     16195.15424788
  -Hartree energ DENC   =    -33179.96716755
  -exchange      EXHF   =         0.00000000
  -V(xc)+E(xc)   XCENC  =       615.38970094
  PAW double counting   =     17633.41834361   -19031.70558591
  entropy T*S    EENTRO =         0.00797994
  eigenvalues    EBANDS =      -984.40355265
  atomic energy  EATOM  =     18662.21924712
  Solvation  Ediel_sol  =         0.00000000
  ---------------------------------------------------
  free energy    TOTEN  =       -48.72445877 eV

  energy without entropy =      -48.73243871  energy(sigma->0) =      -48.72711875


--------------------------------------------------------------------------------------------------------




--------------------------------------- Iteration      1(  22)  ---------------------------------------


    POTLOK:  cpu time    1.1327: real time    1.1333
    SETDIJ:  cpu time    0.0172: real time    0.0176
    EDDIAG:  cpu time    1.0888: real time    1.0893
  RMM-DIIS:  cpu time    6.7397: real time    6.7442
    ORTHCH:  cpu time    0.0526: real time    0.0526
       DOS:  cpu time    0.0005: real time    0.0005
    CHARGE:  cpu time    0.6558: real time    0.6561
    MIXING:  cpu time    0.0386: real time    0.0386
    --------------------------------------------
      LOOP:  cpu time    9.7259: real time    9.7321

 eigenvalue-minimisations  :   402
 total energy-change (2. order) :-0.2392410E-03  (-0.1925613E-05)
 number of electron     153.0000006 magnetization       1.0000000
 augmentation part       92.4226944 magnetization       0.0812753

 Broyden mixing:
  rms(total) = 0.40822E-03    rms(broyden)= 0.40821E-03
  rms(prec ) = 0.58134E-03
  weight for this iteration     100.00

 eigenvalues of (default mixing * dielectric matrix)
  average eigenvalue GAMMA=   1.5515
  7.0580  3.9806  2.5022  2.2537  1.4978  1.3518  1.3518  0.8661  0.8661  0.7419
  0.7419  0.6412  0.5772  0.4481  0.4721  0.5127  0.5127

 Free energy of the ion-electron system (eV)
  ---------------------------------------------------
  alpha Z        PSCENC =        41.16232785
  Ewald energy   TEWEN  =     16195.15424788
  -Hartree energ DENC   =    -33180.07028545
  -exchange      EXHF   =         0.00000000
  -V(xc)+E(xc)   XCENC  =       615.39047699
  PAW double counting   =     17633.58560921   -19031.88299644
  entropy T*S    EENTRO =         0.00798420
  eigenvalues    EBANDS =      -984.29130937
  atomic energy  EATOM  =     18662.21924712
  Solvation  Ediel_sol  =         0.00000000
  ---------------------------------------------------
  free energy    TOTEN  =       -48.72469801 eV

  energy without entropy =      -48.73268222  energy(sigma->0) =      -48.72735942


--------------------------------------------------------------------------------------------------------




--------------------------------------- Iteration      1(  23)  ---------------------------------------


    POTLOK:  cpu time    1.1336: real time    1.1348
    SETDIJ:  cpu time    0.0174: real time    0.0174
    EDDIAG:  cpu time    1.0915: real time    1.0931
  RMM-DIIS:  cpu time    6.6075: real time    6.6111
    ORTHCH:  cpu time    0.0527: real time    0.0527
       DOS:  cpu time    0.0005: real time    0.0005
    CHARGE:  cpu time    0.6554: real time    0.6558
    MIXING:  cpu time    0.0409: real time    0.0409
    --------------------------------------------
      LOOP:  cpu time    9.5994: real time    9.6062

 eigenvalue-minimisations  :   399
 total energy-change (2. order) :-0.1401515E-03  (-0.9375081E-06)
 number of electron     153.0000006 magnetization       1.0000000
 augmentation part       92.4231545 magnetization       0.0813018

 Broyden mixing:
  rms(total) = 0.25540E-03    rms(broyden)= 0.25540E-03
  rms(prec ) = 0.37512E-03
  weight for this iteration     100.00

 eigenvalues of (default mixing * dielectric matrix)
  average eigenvalue GAMMA=   1.5858
  7.4360  4.3718  2.4860  2.3055  1.8529  1.3807  1.3807  1.0568  0.7513  0.7513
  0.8102  0.8102  0.6456  0.5663  0.4482  0.4711  0.5101  0.5101

 Free energy of the ion-electron system (eV)
  ---------------------------------------------------
  alpha Z        PSCENC =        41.16232785
  Ewald energy   TEWEN  =     16195.15424788
  -Hartree energ DENC   =    -33180.08219594
  -exchange      EXHF   =         0.00000000
  -V(xc)+E(xc)   XCENC  =       615.38948080
  PAW double counting   =     17633.52224207   -19031.81207556
  entropy T*S    EENTRO =         0.00798449
  eigenvalues    EBANDS =      -984.28609686
  atomic energy  EATOM  =     18662.21924712
  Solvation  Ediel_sol  =         0.00000000
  ---------------------------------------------------
  free energy    TOTEN  =       -48.72483817 eV

  energy without entropy =      -48.73282265  energy(sigma->0) =      -48.72749966


--------------------------------------------------------------------------------------------------------




--------------------------------------- Iteration      1(  24)  ---------------------------------------


    POTLOK:  cpu time    1.1353: real time    1.1374
    SETDIJ:  cpu time    0.0171: real time    0.0171
    EDDIAG:  cpu time    1.0889: real time    1.0893
  RMM-DIIS:  cpu time    6.9102: real time    6.9154
    ORTHCH:  cpu time    0.0524: real time    0.0524
       DOS:  cpu time    0.0005: real time    0.0005
    CHARGE:  cpu time    0.6556: real time    0.6561
    MIXING:  cpu time    0.0425: real time    0.0425
    --------------------------------------------
      LOOP:  cpu time    9.9025: real time    9.9107

 eigenvalue-minimisations  :   397
 total energy-change (2. order) :-0.9036846E-04  (-0.7167503E-06)
 number of electron     153.0000006 magnetization       1.0000000
 augmentation part       92.4238773 magnetization       0.0812906

 Broyden mixing:
  rms(total) = 0.18341E-03    rms(broyden)= 0.18339E-03
  rms(prec ) = 0.25794E-03
  weight for this iteration     100.00

 eigenvalues of (default mixing * dielectric matrix)
  average eigenvalue GAMMA=   1.5999
  7.6717  4.7045  2.4961  2.4961  1.8635  1.4748  1.3005  1.3005  0.8937  0.8937
  0.7502  0.7502  0.6782  0.6279  0.4482  0.4714  0.5370  0.5370  0.5038

 Free energy of the ion-electron system (eV)
  ---------------------------------------------------
  alpha Z        PSCENC =        41.16232785
  Ewald energy   TEWEN  =     16195.15424788
  -Hartree energ DENC   =    -33180.06846033
  -exchange      EXHF   =         0.00000000
  -V(xc)+E(xc)   XCENC  =       615.38867881
  PAW double counting   =     17633.39138938   -19031.67148635
  entropy T*S    EENTRO =         0.00798427
  eigenvalues    EBANDS =      -984.30885717
  atomic energy  EATOM  =     18662.21924712
  Solvation  Ediel_sol  =         0.00000000
  ---------------------------------------------------
  free energy    TOTEN  =       -48.72492853 eV

  energy without entropy =      -48.73291281  energy(sigma->0) =      -48.72758996


--------------------------------------------------------------------------------------------------------




--------------------------------------- Iteration      1(  25)  ---------------------------------------


    POTLOK:  cpu time    1.1353: real time    1.1358
    SETDIJ:  cpu time    0.0171: real time    0.0171
    EDDIAG:  cpu time    1.0889: real time    1.0894
  RMM-DIIS:  cpu time    6.6379: real time    6.6420
    ORTHCH:  cpu time    0.0522: real time    0.0522
       DOS:  cpu time    0.0005: real time    0.0005
    CHARGE:  cpu time    0.6565: real time    0.6566
    MIXING:  cpu time    0.0450: real time    0.0450
    --------------------------------------------
      LOOP:  cpu time    9.6334: real time    9.6385

 eigenvalue-minimisations  :   384
 total energy-change (2. order) :-0.6116745E-04  (-0.5569896E-06)
 number of electron     153.0000006 magnetization       1.0000000
 augmentation part       92.4237092 magnetization       0.0812836

 Broyden mixing:
  rms(total) = 0.85035E-04    rms(broyden)= 0.85031E-04
  rms(prec ) = 0.13347E-03
  weight for this iteration     100.00

 eigenvalues of (default mixing * dielectric matrix)
  average eigenvalue GAMMA=   1.6432
  7.9349  5.0808  2.7761  2.6312  2.0088  1.7126  1.3601  1.3601  1.0322  0.8523
  0.8523  0.7507  0.7507  0.6608  0.6020  0.4482  0.4714  0.5496  0.5211  0.5088

 Free energy of the ion-electron system (eV)
  ---------------------------------------------------
  alpha Z        PSCENC =        41.16232785
  Ewald energy   TEWEN  =     16195.15424788
  -Hartree energ DENC   =    -33180.08529363
  -exchange      EXHF   =         0.00000000
  -V(xc)+E(xc)   XCENC  =       615.38905317
  PAW double counting   =     17633.33193109   -19031.61250957
  entropy T*S    EENTRO =         0.00798404
  eigenvalues    EBANDS =      -984.29197764
  atomic energy  EATOM  =     18662.21924712
  Solvation  Ediel_sol  =         0.00000000
  ---------------------------------------------------
  free energy    TOTEN  =       -48.72498970 eV

  energy without entropy =      -48.73297374  energy(sigma->0) =      -48.72765105


--------------------------------------------------------------------------------------------------------




--------------------------------------- Iteration      1(  26)  ---------------------------------------


    POTLOK:  cpu time    1.1341: real time    1.1348
    SETDIJ:  cpu time    0.0168: real time    0.0168
    EDDIAG:  cpu time    1.0897: real time    1.0902
  RMM-DIIS:  cpu time    5.8021: real time    5.8062
    ORTHCH:  cpu time    0.0518: real time    0.0518
       DOS:  cpu time    0.0005: real time    0.0005
    CHARGE:  cpu time    0.6554: real time    0.6557
    MIXING:  cpu time    0.0474: real time    0.0474
    --------------------------------------------
      LOOP:  cpu time    8.7978: real time    8.8034

 eigenvalue-minimisations  :   356
 total energy-change (2. order) :-0.2829938E-04  (-0.2791045E-06)
 number of electron     153.0000006 magnetization       1.0000000
 augmentation part       92.4234265 magnetization       0.0812812

 Broyden mixing:
  rms(total) = 0.72184E-04    rms(broyden)= 0.72182E-04
  rms(prec ) = 0.10164E-03
  weight for this iteration     100.00

 eigenvalues of (default mixing * dielectric matrix)
  average eigenvalue GAMMA=   1.6605
  8.0876  5.4794  3.1857  2.5778  2.2048  1.5481  1.3477  1.3477  1.2666  0.9185
  0.9185  0.7506  0.7506  0.6810  0.6810  0.6111  0.4482  0.5703  0.4713  0.5117
  0.5117

 Free energy of the ion-electron system (eV)
  ---------------------------------------------------
  alpha Z        PSCENC =        41.16232785
  Ewald energy   TEWEN  =     16195.15424788
  -Hartree energ DENC   =    -33180.09528989
  -exchange      EXHF   =         0.00000000
  -V(xc)+E(xc)   XCENC  =       615.38939828
  PAW double counting   =     17633.31147164   -19031.59500202
  entropy T*S    EENTRO =         0.00798404
  eigenvalues    EBANDS =      -984.27940288
  atomic energy  EATOM  =     18662.21924712
  Solvation  Ediel_sol  =         0.00000000
  ---------------------------------------------------
  free energy    TOTEN  =       -48.72501800 eV

  energy without entropy =      -48.73300204  energy(sigma->0) =      -48.72767935


--------------------------------------------------------------------------------------------------------




--------------------------------------- Iteration      1(  27)  ---------------------------------------


    POTLOK:  cpu time    1.1346: real time    1.1360
    SETDIJ:  cpu time    0.0171: real time    0.0173
    EDDIAG:  cpu time    1.0906: real time    1.0910
  RMM-DIIS:  cpu time    4.9279: real time    4.9320
    ORTHCH:  cpu time    0.0520: real time    0.0520
       DOS:  cpu time    0.0005: real time    0.0005
    CHARGE:  cpu time    0.6567: real time    0.6569
    MIXING:  cpu time    0.0510: real time    0.0510
    --------------------------------------------
      LOOP:  cpu time    7.9304: real time    7.9366

 eigenvalue-minimisations  :   287
 total energy-change (2. order) :-0.9928604E-05  (-0.1045646E-06)
 number of electron     153.0000006 magnetization       1.0000000
 augmentation part       92.4235866 magnetization       0.0812996

 Broyden mixing:
  rms(total) = 0.42214E-04    rms(broyden)= 0.42209E-04
  rms(prec ) = 0.63723E-04
  weight for this iteration     100.00

 eigenvalues of (default mixing * dielectric matrix)
  average eigenvalue GAMMA=   1.6444
  8.1677  5.6884  3.3301  2.5700  2.2199  1.6886  1.3620  1.3620  1.0993  1.0993
  0.8699  0.8699  0.7490  0.7490  0.6565  0.4482  0.5810  0.5810  0.5894  0.4713
  0.5117  0.5117

 Free energy of the ion-electron system (eV)
  ---------------------------------------------------
  alpha Z        PSCENC =        41.16232785
  Ewald energy   TEWEN  =     16195.15424788
  -Hartree energ DENC   =    -33180.09076074
  -exchange      EXHF   =         0.00000000
  -V(xc)+E(xc)   XCENC  =       615.38917323
  PAW double counting   =     17633.30907575   -19031.59217736
  entropy T*S    EENTRO =         0.00798403
  eigenvalues    EBANDS =      -984.28414567
  atomic energy  EATOM  =     18662.21924712
  Solvation  Ediel_sol  =         0.00000000
  ---------------------------------------------------
  free energy    TOTEN  =       -48.72502793 eV

  energy without entropy =      -48.73301196  energy(sigma->0) =      -48.72768927


--------------------------------------------------------------------------------------------------------




--------------------------------------- Iteration      1(  28)  ---------------------------------------


    POTLOK:  cpu time    1.1340: real time    1.1364
    SETDIJ:  cpu time    0.0174: real time    0.0174
    EDDIAG:  cpu time    1.0887: real time    1.0897
  RMM-DIIS:  cpu time    4.2512: real time    4.2530
    ORTHCH:  cpu time    0.0520: real time    0.0520
       DOS:  cpu time    0.0005: real time    0.0005
    CHARGE:  cpu time    0.6528: real time    0.6533
    MIXING:  cpu time    0.0547: real time    0.0547
[...]
     66      -4.8667      1.00000
     67      -4.8563      1.00000
     68      -4.8442      1.00000
     69      -4.8293      1.00000
     70      -4.7925      1.00000
     71      -4.7523      1.00000
     72      -4.7281      1.00000
     73      -4.6992      1.00000
     74      -4.4850      1.00000
     75      -4.1482      1.00000
     76      -4.0245      1.00000
     77      -3.5700      1.00000
     78      -2.9757     -0.00000
     79      -2.9034     -0.00000
     80      -2.5025     -0.00000
     81      -2.4032     -0.00000
     82      -1.9053     -0.00000
     83      -1.8662     -0.00000
     84      -1.7148     -0.00000
     85      -1.5394     -0.00000
     86      -1.1171     -0.00000
     87      -0.8876     -0.00000
     88      -0.6555      0.00000
     89      -0.3693      0.00000
     90      -0.2261      0.00000
     91      -0.0895      0.00000
     92       0.0529      0.00000

 spin component 2

 k-point     1 :       0.0000    0.0000    0.0000
  band No.  band energies     occupation 
      1     -28.7803      1.00000
      2     -13.9488      1.00000
      3     -11.3885      1.00000
      4     -11.3765      1.00000
      5     -11.1243      1.00000
      6     -10.1043      1.00000
      7      -8.5138      1.00000
      8      -8.1342      1.00000
      9      -7.6264      1.00000
     10      -7.4373      1.00000
     11      -7.3349      1.00000
     12      -7.2693      1.00000
     13      -7.1455      1.00000
     14      -7.0689      1.00000
     15      -6.9372      1.00000
     16      -6.8500      1.00000
     17      -6.6638      1.00000
     18      -6.6544      1.00000
     19      -6.5919      1.00000
     20      -6.4942      1.00000
     21      -6.4788      1.00000
     22      -6.4547      1.00000
     23      -6.3986      1.00000
     24      -6.3748      1.00000
     25      -6.3183      1.00000
     26      -6.2908      1.00000
     27      -6.2458      1.00000
     28      -6.2126      1.00000
     29      -6.1608      1.00000
     30      -6.1308      1.00000
     31      -6.1051      1.00000
     32      -6.0899      1.00000
     33      -6.0311      1.00000
     34      -5.9914      1.00000
     35      -5.9245      1.00000
     36      -5.8007      1.00000
     37      -5.7075      1.00000
     38      -5.6575      1.00000
     39      -5.6069      1.00000
     40      -5.6034      1.00000
     41      -5.5163      1.00000
     42      -5.4885      1.00000
     43      -5.4586      1.00000
     44      -5.4092      1.00000
     45      -5.3944      1.00000
     46      -5.3569      1.00000
     47      -5.3204      1.00000
     48      -5.2919      1.00000
     49      -5.2751      1.00000
     50      -5.2627      1.00000
     51      -5.2227      1.00000
     52      -5.2063      1.00000
     53      -5.1873      1.00000
     54      -5.1538      1.00000
     55      -5.1282      1.00000
     56      -5.0840      1.00000
     57      -5.0656      1.00000
     58      -5.0591      1.00000
     59      -5.0535      1.00000
     60      -5.0070      1.00000
     61      -4.9974      1.00000
     62      -4.9615      1.00000
     63      -4.9284      1.00000
     64      -4.9091      1.00000
     65      -4.8669      1.00000
     66      -4.8372      1.00000
     67      -4.8263      1.00000
     68      -4.8140      1.00000
     69      -4.7988      1.00000
     70      -4.7604      1.00000
     71      -4.7171      1.00000
     72      -4.7025      1.00000
     73      -4.6682      1.00000
     74      -4.4451      1.00000
     75      -4.0842      1.01779
     76      -3.9895      0.98221
     77      -3.3583     -0.00000
     78      -2.9245     -0.00000
     79      -2.8520     -0.00000
     80      -2.4349     -0.00000
     81      -2.3242     -0.00000
     82      -1.8698     -0.00000
     83      -1.7777     -0.00000
     84      -1.6632     -0.00000
     85      -1.4410     -0.00000
     86      -0.9356      0.00000
     87      -0.8449      0.00000
     88      -0.5967      0.00000
     89      -0.2550      0.00000
     90      -0.1624      0.00000
     91      -0.0401      0.00000
     92       0.1228      0.00000


--------------------------------------------------------------------------------------------------------


 soft charge-density along one line, spin component           1
         0         1         2         3         4         5         6         7         8         9
 total charge-density along one line
 
 soft charge-density along one line, spin component           2
         0         1         2         3         4         5         6         7         8         9
 total charge-density along one line
 
 pseudopotential strength for first ion, spin component:           1
-10.547   0.002  -0.016   0.001  -0.010   1.044  -0.002   0.014
  0.002 -10.517  -0.007   0.007   0.003  -0.002   1.022   0.005
 -0.016  -0.007 -10.497   0.002  -0.011   0.014   0.005   1.005
  0.001   0.007   0.002 -10.499  -0.006  -0.000  -0.008  -0.002
 -0.010   0.003  -0.011  -0.006 -10.530   0.007  -0.002   0.009
  1.044  -0.002   0.014  -0.000   0.007   6.273   0.001  -0.012
 -0.002   1.022   0.005  -0.008  -0.002   0.001   6.286  -0.004
  0.014   0.005   1.005  -0.002   0.009  -0.012  -0.004   6.298
 -0.000  -0.008  -0.002   1.006   0.004   0.000   0.008   0.001
  0.007  -0.002   0.009   0.004   1.031  -0.005   0.001  -0.007
 -0.007   0.001  -0.006   0.000  -0.004   0.006  -0.000  -0.000
 -0.014   0.002  -0.011   0.000  -0.008   0.011  -0.000  -0.001
 -0.011   0.000   0.005  -0.000   0.009   0.008   0.000  -0.004
 -0.000  -0.007   0.001  -0.011   0.000   0.000   0.006  -0.000
 -0.006  -0.000   0.007   0.001  -0.012   0.004   0.000  -0.006
 -0.012   0.000   0.005  -0.001   0.010   0.009   0.000  -0.005
 -0.001  -0.007   0.001  -0.012   0.000   0.001   0.006  -0.000
 -0.005  -0.001   0.007   0.001  -0.012   0.003   0.001  -0.006
 pseudopotential strength for first ion, spin component:           2
-10.500  -0.001  -0.007  -0.005   0.005   1.007   0.000   0.006
 -0.001 -10.503  -0.007   0.007   0.001   0.000   1.009   0.005
 -0.007  -0.007 -10.483   0.001  -0.008   0.006   0.005   0.993
 -0.005   0.007   0.001 -10.485  -0.008   0.004  -0.006  -0.001
  0.005   0.001  -0.008  -0.008 -10.514  -0.004  -0.001   0.006
  1.007   0.000   0.006   0.004  -0.004   6.297  -0.000  -0.004
  0.000   1.009   0.005  -0.006  -0.001  -0.000   6.293  -0.004
  0.006   0.005   0.993  -0.001   0.006  -0.004  -0.004   6.304
  0.004  -0.006  -0.001   0.995   0.006  -0.002   0.005   0.001
 -0.004  -0.001   0.006   0.006   1.017   0.002   0.000  -0.004
 -0.003   0.001  -0.003   0.000  -0.003   0.001   0.000  -0.002
 -0.005   0.002  -0.005   0.000  -0.005   0.002   0.000  -0.003
 -0.013   0.000   0.005   0.000   0.008   0.012  -0.001  -0.006
  0.000  -0.008   0.001  -0.013   0.000  -0.000   0.008  -0.001
 -0.009   0.000   0.008   0.001  -0.013   0.008  -0.000  -0.007
 -0.015   0.001   0.006   0.000   0.009   0.014  -0.001  -0.007
  0.000  -0.009   0.001  -0.014   0.001  -0.000   0.009  -0.002
 -0.011   0.000   0.009   0.002  -0.015   0.010  -0.000  -0.009
 total augmentation occupancy for first ion, spin component:           1
  1.934   0.004  -0.006   0.001  -0.003  -0.010  -0.003   0.007  -0.000   0.003  -0.018   0.013   0.035  -0.003   0.038  -0.018
  0.004   1.928  -0.007   0.009  -0.001  -0.003  -0.018   0.005  -0.001   0.001  -0.005  -0.001  -0.003   0.043  -0.004   0.000
 -0.006  -0.007   1.945   0.003  -0.003   0.007   0.005  -0.026  -0.004   0.003  -0.016   0.009  -0.011   0.000  -0.019   0.006
  0.001   0.009   0.003   1.940  -0.005  -0.000  -0.001  -0.004  -0.023   0.005   0.008   0.001   0.004   0.053   0.003  -0.000
 -0.003  -0.001  -0.003  -0.005   1.936   0.003   0.001   0.003   0.005  -0.012  -0.009   0.006  -0.011   0.012   0.034   0.012
 -0.010  -0.003   0.007  -0.000   0.003   0.015  -0.000   0.002   0.000   0.001  -0.023  -0.000   0.021   0.001   0.012  -0.001
 -0.003  -0.018   0.005  -0.001   0.001  -0.000   0.009   0.000   0.001  -0.000   0.007  -0.001  -0.001   0.015   0.002  -0.000
  0.007   0.005  -0.026  -0.004   0.003   0.002   0.000   0.008  -0.001   0.001  -0.042   0.005  -0.007  -0.002  -0.008   0.001
 -0.000  -0.001  -0.004  -0.023   0.005   0.000   0.001  -0.001   0.009  -0.000  -0.003   0.001  -0.001   0.021  -0.000  -0.000
  0.003   0.001   0.003   0.005  -0.012   0.001  -0.000   0.001  -0.000   0.013  -0.015   0.001  -0.021  -0.002   0.023   0.002
 -0.018  -0.005  -0.016   0.008  -0.009  -0.023   0.007  -0.042  -0.003  -0.015   1.682  -0.122   0.139  -0.003   0.185  -0.018
  0.013  -0.001   0.009   0.001   0.006  -0.000  -0.001   0.005   0.001   0.001  -0.122   0.014  -0.020   0.001  -0.027   0.002
  0.035  -0.003  -0.011   0.004  -0.011   0.021  -0.001  -0.007  -0.001  -0.021   0.139  -0.020   0.193   0.003  -0.039  -0.012
 -0.003   0.043   0.000   0.053   0.012   0.001   0.015  -0.002   0.021  -0.002  -0.003   0.001   0.003   0.095  -0.005  -0.001
  0.038  -0.004  -0.019   0.003   0.034   0.012   0.002  -0.008  -0.000   0.023   0.185  -0.027  -0.039  -0.005   0.153   0.001
 -0.018   0.000   0.006  -0.000   0.012  -0.001  -0.000   0.001  -0.000   0.002  -0.018   0.002  -0.012  -0.001   0.001   0.001
 -0.000  -0.014   0.001  -0.020   0.000  -0.000  -0.001   0.000  -0.001   0.000   0.001  -0.000  -0.001  -0.006   0.001   0.000
 -0.013  -0.000   0.009   0.000  -0.018  -0.000  -0.000   0.001   0.000  -0.001  -0.025   0.003   0.001   0.000  -0.011   0.000
 total augmentation occupancy for first ion, spin component:           2
  0.019  -0.002   0.002  -0.004   0.008  -0.003   0.000  -0.002   0.001  -0.002   0.035   0.006  -0.013   0.005  -0.019  -0.001
 -0.002   0.001  -0.000   0.001  -0.001   0.000   0.001   0.000   0.001   0.000  -0.004  -0.001   0.002  -0.003   0.002   0.000
  0.002  -0.000   0.001  -0.001   0.001  -0.002   0.000   0.001   0.000  -0.001   0.005   0.000  -0.000   0.002  -0.001   0.000
 -0.004   0.001  -0.001   0.002  -0.001   0.001   0.001   0.000   0.002   0.000  -0.007  -0.001   0.002  -0.005   0.004   0.000
  0.008  -0.001   0.001  -0.001   0.002  -0.002   0.000  -0.001   0.000   0.002   0.014   0.002  -0.002   0.002  -0.010  -0.000
 -0.003   0.000  -0.002   0.001  -0.002   0.001  -0.000   0.000  -0.000   0.000  -0.008  -0.001   0.002  -0.001   0.005   0.000
  0.000   0.001   0.000   0.001   0.000  -0.000  -0.000   0.000  -0.000  -0.000   0.001   0.000  -0.000   0.000  -0.001  -0.000
 -0.002   0.000   0.001   0.000  -0.001   0.000   0.000  -0.000  -0.000   0.000  -0.002  -0.000   0.001  -0.000   0.001   0.000
  0.001   0.001   0.000   0.002   0.000  -0.000  -0.000  -0.000  -0.000  -0.000   0.001   0.000  -0.000   0.000  -0.001   0.000
 -0.002   0.000  -0.001   0.000   0.002   0.000  -0.000   0.000  -0.000  -0.000  -0.003  -0.000   0.002  -0.001   0.001  -0.000
  0.035  -0.004   0.005  -0.007   0.014  -0.008   0.001  -0.002   0.001  -0.003   0.080   0.004  -0.022   0.011  -0.039  -0.000
  0.006  -0.001   0.000  -0.001   0.002  -0.001   0.000  -0.000   0.000  -0.000   0.004   0.001  -0.001   0.001  -0.002  -0.000
 -0.013   0.002  -0.000   0.002  -0.002   0.002  -0.000   0.001  -0.000   0.002  -0.022  -0.001   0.005  -0.002   0.007   0.000
  0.005  -0.003   0.002  -0.005   0.002  -0.001   0.000  -0.000   0.000  -0.001   0.011   0.001  -0.002   0.002  -0.004  -0.000
 -0.019   0.002  -0.001   0.004  -0.010   0.005  -0.001   0.001  -0.001   0.001  -0.039  -0.002   0.007  -0.004   0.015   0.000
 -0.001   0.000   0.000   0.000  -0.000   0.000  -0.000   0.000   0.000  -0.000  -0.000  -0.000   0.000  -0.000   0.000   0.000
  0.000  -0.001   0.000  -0.001   0.000   0.000   0.000  -0.000   0.000  -0.000  -0.000   0.000   0.000   0.000   0.000  -0.000
 -0.001   0.000   0.000   0.000  -0.001   0.000   0.000   0.000  -0.000   0.000   0.000  -0.000   0.000  -0.000   0.000   0.000


------------------------ aborting loop because EDIFF is reached ----------------------------------------


    CHARGE:  cpu time    0.6557: real time    0.6561
    FORLOC:  cpu time    0.0650: real time    0.0650
    FORNL :  cpu time    1.5338: real time    1.5342
    STRESS:  cpu time    5.9387: real time    5.9427
    FORCOR:  cpu time    1.1436: real time    1.1438
    FORHAR:  cpu time    0.1831: real time    0.1831
    MIXING:  cpu time    0.1117: real time    0.1118
    OFIELD:  cpu time    0.0000: real time    0.0001

  FORCE on cell =-STRESS in cart. coord.  units (eV):
  Direction    XX          YY          ZZ          XY          YZ          ZX
  --------------------------------------------------------------------------------------
  Alpha Z    41.16233    41.16233    41.16233
  Ewald   10275.82888  7230.21140 -1310.90182  -696.88922   384.07321    16.47850
  Hartree 15440.06391 12708.06324  5031.96630  -659.49994   318.76597   -64.42679
  E(xc)    -876.42044  -877.67612  -879.15849     0.08704     0.13078     0.55215
  Local  -27116.96816-21366.57642 -5151.47753  1362.45604  -698.19001    60.97078
  n-local  -330.19321  -322.39134  -329.75579    -2.65283    -0.29422    -2.62130
  augment  1223.36435  1225.73450  1231.71133    -0.37779    -1.15327    -1.23949
  Kinetic  1340.66599  1362.81748  1364.78334    -3.80077    -2.75456    -9.87218
  Fock        0.00000     0.00000     0.00000     0.00000     0.00000     0.00000
  -------------------------------------------------------------------------------------
  Total      -2.49635     1.34507    -1.67034    -0.67747     0.57790    -0.15833
  in kB      -1.18507     0.63853    -0.79294    -0.32161     0.27434    -0.07516
  external pressure =       -0.45 kB  Pullay stress =        0.00 kB


 VOLUME and BASIS-vectors are now :
 -----------------------------------------------------------------------------
  energy-cutoff  :      600.00
  volume of cell :     3375.00
      direct lattice vectors                 reciprocal lattice vectors
    15.000000000  0.000000000  0.000000000     0.066666667  0.000000000  0.000000000
     0.000000000 15.000000000  0.000000000     0.000000000  0.066666667  0.000000000
     0.000000000  0.000000000 15.000000000     0.000000000  0.000000000  0.066666667

  length of vectors
    15.000000000 15.000000000 15.000000000     0.066666667  0.066666667  0.066666667


 FORCES acting on ions
    electron-ion (+dipol)            ewald-force                    non-local-force                 convergence-correction
 -----------------------------------------------------------------------------------------------
   0.108E+04 0.729E+03 -.754E+02   -.107E+04 -.726E+03 0.754E+02   -.453E+01 -.328E+01 -.584E-01   0.195E-05 0.140E-04 0.173E-05
   0.484E+03 -.323E+03 0.884E+03   -.482E+03 0.321E+03 -.884E+03   -.109E+01 0.211E+01 0.121E+00   -.657E-05 -.147E-04 0.201E-05
   0.279E+03 0.126E+04 -.173E+03   -.277E+03 -.125E+04 0.171E+03   -.211E+01 -.900E+01 0.165E+01   0.252E-04 0.553E-05 0.379E-05
   -.819E+03 -.146E+03 0.907E+03   0.818E+03 0.145E+03 -.903E+03   0.136E+01 0.112E+01 -.429E+01   -.634E-05 -.435E-05 0.387E-04
   -.828E+03 0.100E+04 0.115E+03   0.824E+03 -.996E+03 -.114E+03   0.447E+01 -.600E+01 -.799E+00   -.516E-05 0.679E-05 0.969E-05
   -.199E+03 0.490E+03 -.926E+03   0.197E+03 -.488E+03 0.925E+03   0.202E+01 -.260E+01 0.418E+00   0.130E-04 0.771E-05 -.590E-05
   0.193E+03 0.641E+03 0.123E+04   -.192E+03 -.636E+03 -.122E+04   -.135E+01 -.552E+01 -.618E+01   0.128E-04 0.200E-04 0.232E-04
   0.128E+04 -.321E+03 0.104E+03   -.127E+04 0.319E+03 -.102E+03   -.921E+01 0.251E+01 -.226E+01   0.771E-05 -.115E-04 -.117E-04
   0.513E+03 -.198E+03 -.126E+04   -.509E+03 0.198E+03 0.126E+04   -.333E+01 0.847E+00 0.755E+01   0.137E-04 -.741E-05 -.279E-04
   0.466E+03 -.126E+04 -.156E+03   -.463E+03 0.126E+04 0.155E+03   -.262E+01 0.692E+01 0.204E+01   -.786E-05 0.209E-06 -.367E-05
   -.442E+03 -.106E+04 0.728E+03   0.438E+03 0.105E+04 -.721E+03   0.398E+01 0.613E+01 -.703E+01   0.576E-06 -.485E-05 0.101E-04
   -.876E+03 -.799E+01 -.256E+03   0.874E+03 0.735E+01 0.253E+03   0.277E+01 0.494E+00 0.263E+01   -.743E-04 -.181E-04 -.183E-04
   -.600E+03 -.760E+03 -.825E+03   0.597E+03 0.756E+03 0.821E+03   0.282E+01 0.369E+01 0.360E+01   0.104E-04 -.383E-04 -.968E-05
   -.102E+03 0.190E+02 -.575E+02   0.832E+02 -.228E+02 0.492E+02   0.184E+02 0.379E+01 0.808E+01   -.235E-04 -.322E-05 -.150E-04
   -.375E+03 -.572E+02 -.211E+03   0.429E+03 0.678E+02 0.236E+03   -.540E+02 -.107E+02 -.251E+02   0.246E-04 0.309E-05 0.366E-05
 -----------------------------------------------------------------------------------------------
   0.424E+02 0.945E+01 0.196E+02   0.000E+00 -.995E-13 -.227E-12   -.424E+02 -.945E+01 -.196E+02   -.138E-04 -.450E-04 0.722E-06
 
 
 POSITION                                       TOTAL-FORCE (eV/Angst)
 -----------------------------------------------------------------------------------
      4.42097      6.28554      8.42118        -0.139717     -0.314022     -0.086287
      5.52956      8.18967      7.42737         0.340968     -0.158629     -0.310412
      5.93397      4.36007      8.41558         0.159173      0.185993     -0.045954
      7.93991      7.56033      7.16478         0.348111      0.418685      0.252642
      8.23607      5.23289      8.00836         0.154621      0.150647     -0.251657
      6.69468      6.59172      9.13416         0.278707     -0.226504      0.070168
      6.27198      6.04113      6.61457        -0.331003     -0.550549      0.457260
      3.33814      8.43594      8.33536        -0.229845      0.293088      0.009445
      5.00638      8.13636      9.99450         0.394748      0.162005     -0.415030
      5.20605     10.16500      8.51902        -0.066588      0.361800      0.346169
      7.22651      9.96747      7.09596        -0.119550     -0.056923      0.006058
      9.59469      7.33925      8.87808        -0.042066     -0.151420      0.212950
      7.31693      8.89619      9.18347        -0.056597     -0.094670      0.033105
     11.25690      7.51300      9.75086        -0.852567     -0.016483     -0.274917
     12.28640      7.71506     10.22580         0.161606     -0.003018     -0.003541
 -----------------------------------------------------------------------------------
    total drift:                               -0.002734     -0.001706      0.000924


--------------------------------------------------------------------------------------------------------



  FREE ENERGIE OF THE ION-ELECTRON SYSTEM (eV)
  ---------------------------------------------------
  free  energy   TOTEN  =       -48.72503863 eV

  energy  without entropy=      -48.73302257  energy(sigma->0) =      -48.72769994
 


--------------------------------------------------------------------------------------------------------


    POTLOK:  cpu time    1.1540: real time    1.1543


--------------------------------------------------------------------------------------------------------


     LOOP+:  cpu time  349.3447: real time  349.6498
    4ORBIT:  cpu time    0.0000: real time    0.0000

 total amount of memory used by VASP MPI-rank0   158680. kBytes
=======================================================================

   base      :      30000. kBytes
   nonl-proj :      12601. kBytes
   fftplans  :      27994. kBytes
   grid      :      74150. kBytes
   one-center:         93. kBytes
   wavefun   :      13842. kBytes
 
  
  
 General timing and accounting informations for this job:
 ========================================================
  
                  Total CPU time used (sec):      353.368
                            User time (sec):      342.170
                          System time (sec):       11.198
                         Elapsed time (sec):      353.711
  
                   Maximum memory used (kb):      281320.
                   Average memory used (kb):           0.
  
                          Minor page faults:       276140
                          Major page faults:            0
                 Voluntary context switches:          755
