<?xml version="1.0" encoding="ISO-8859-1"?>
<modeling>
 <generator>
  <i name="program" type="string">vasp </i>
  <i name="version" type="string">5.4.4.18Apr17-6-g9f103f2a35  </i>
  <i name="subversion" type="string">(build May 08 2019 13:49:07) complex            parallel </i>
  <i name="platform" type="string">LinuxIFC </i>
  <i name="date" type="string">2019 11 13 </i>
  <i name="time" type="string">11:15:36 </i>
 </generator>
 <incar>
  <i type="string" name="SYSTEM"> CuCO</i>
  <i type="int" name="ISTART">     0</i>
  <i type="string" name="PREC">accurate</i>
  <i type="string" name="ALGO"> Fast</i>
  <i type="int" name="ISPIN">     2</i>
  <i type="int" name="INIWAV">     1</i>
  <i type="int" name="NELM">   300</i>
  <i type="int" name="NELMIN">     3</i>
  <i type="int" name="IBRION">    -1</i>
  <i name="EDIFF">      0.00000010</i>
  <i name="EDIFFG">     -0.00100000</i>
  <i type="int" name="NSW">     0</i>
  <i type="int" name="ISYM">     0</i>
  <i name="ENCUT">    600.00000000</i>
  <i name="NUPDOWN">      1.00000000</i>
  <i type="logical" name="LREAL"> F  </i>
  <i type="int" name="ISMEAR">     1</i>
  <i name="SIGMA">      0.10000000</i>
  <i name="KSPACING">      0.50000000</i>
  <i type="logical" name="KGAMMA"> F  </i>
  <i type="logical" name="LWAVE"> F  </i>
  <i type="logical" name="LCHARG"> F  </i>
  <v type="int" name="KPOINT_BSE">    -1     0     0     0</v>
  <i type="int" name="NELM">   300</i>
  <i type="string" name="GGA"> PE</i>
 </incar>
 <structure name="primitive_cell" >
  <crystal>
   <varray name="basis" >
    <v>      15.00000000       0.00000000       0.00000000 </v>
    <v>       0.00000000      15.00000000       0.00000000 </v>
    <v>       0.00000000       0.00000000      15.00000000 </v>
   </varray>
   <i name="volume">   3375.00000000 </i>
   <varray name="rec_basis" >
    <v>       0.06666667       0.00000000       0.00000000 </v>
    <v>       0.00000000       0.06666667       0.00000000 </v>
    <v>       0.00000000       0.00000000       0.06666667 </v>
   </varray>
  </crystal>
  <varray name="positions" >
   <v>       0.29453267       0.40960400      -0.44425400 </v>
   <v>       0.44885267       0.43980667      -0.39659733 </v>
   <v>       0.36362267      -0.45524400       0.49107867 </v>
   <v>       0.41123933       0.29201467      -0.44297267 </v>
   <v>       0.22266333      -0.43538733      -0.43835600 </v>
   <v>       0.41908533       0.40127200       0.43787467 </v>
   <v>       0.33920333      -0.46233467      -0.33792600 </v>
   <v>      -0.47906667      -0.47899667       0.47464600 </v>
   <v>       0.48487533      -0.41413867      -0.38146200 </v>
   <v>      -0.43771533       0.35966667      -0.48231733 </v>
   <v>       0.36244400      -0.31358667      -0.40446200 </v>
   <v>       0.47109467      -0.33728867       0.47809067 </v>
   <v>      -0.38183000       0.47643333      -0.38934733 </v>
   <v>      -0.26424667      -0.49884733      -0.36550000 </v>
   <v>      -0.18818000      -0.49271600      -0.37742867 </v>
  </varray>
 </structure>
 <varray name="primitive_index" >
  <v type="int" >        1 </v>
  <v type="int" >        6 </v>
  <v type="int" >        2 </v>
  <v type="int" >        3 </v>
  <v type="int" >        8 </v>
  <v type="int" >        7 </v>
  <v type="int" >        9 </v>
  <v type="int" >        4 </v>
  <v type="int" >       13 </v>
  <v type="int" >        5 </v>
  <v type="int" >       10 </v>
  <v type="int" >       11 </v>
  <v type="int" >       12 </v>
  <v type="int" >       14 </v>
  <v type="int" >       15 </v>
 </varray>
 <kpoints>
  <generation param="Monkhorst-Pack">
   <v type="int" name="divisions">       1        1        1 </v>
   <v name="usershift">      0.00000000       0.00000000       0.00000000 </v>
   <v name="genvec1">      1.00000000       0.00000000       0.00000000 </v>
   <v name="genvec2">      0.00000000       1.00000000       0.00000000 </v>
   <v name="genvec3">      0.00000000       0.00000000       1.00000000 </v>
   <v name="shift">      0.00000000       0.00000000       0.00000000 </v>
  </generation>
  <varray name="kpointlist" >
   <v>       0.00000000       0.00000000       0.00000000 </v>
  </varray>
  <varray name="weights" >
   <v>       1.00000000 </v>
  </varray>
 </kpoints>
 <parameters>
  <separator name="general" >
   <i type="string" name="SYSTEM">CuCO</i>
   <i type="logical" name="LCOMPAT"> F  </i>
  </separator>
  <separator name="electronic" >
   <i type="string" name="PREC">accura</i>
   <i name="ENMAX">    600.00000000</i>
   <i name="ENAUG">    644.87300000</i>
   <i name="EDIFF">      0.00000010</i>
   <i type="int" name="IALGO">    68</i>
   <i type="int" name="IWAVPR">    10</i>
   <i type="int" name="NBANDS">    92</i>
   <i name="NELECT">    153.00000000</i>
   <i type="int" name="TURBO">     0</i>
   <i type="int" name="IRESTART">     0</i>
   <i type="int" name="NREBOOT">     0</i>
   <i type="int" name="NMIN">     0</i>
   <i name="EREF">      0.00000000</i>
   <separator name="electronic smearing" >
    <i type="int" name="ISMEAR">     1</i>
    <i name="SIGMA">      0.10000000</i>
    <i name="KSPACING">      0.50000000</i>
    <i type="logical" name="KGAMMA"> F  </i>
   </separator>
   <separator name="electronic projectors" >
    <i type="logical" name="LREAL"> F  </i>
    <v name="ROPT">      0.00000000      0.00000000      0.00000000</v>
    <i type="int" name="LMAXPAW">  -100</i>
    <i type="int" name="LMAXMIX">     2</i>
    <i type="logical" name="NLSPLINE"> F  </i>
   </separator>
   <separator name="electronic startup" >
    <i type="int" name="ISTART">     0</i>
    <i type="int" name="ICHARG">     2</i>
    <i type="int" name="INIWAV">     1</i>
   </separator>
   <separator name="electronic spin" >
    <i type="int" name="ISPIN">     2</i>
    <i type="logical" name="LNONCOLLINEAR"> F  </i>
    <v name="MAGMOM">      0.06666667      0.06666667      0.06666667      0.06666667      0.06666667      0.06666667      0.06666667      0.06666667      0.06666667      0.06666667      0.06666667      0.06666667      0.06666667      0.06666667      0.06666667</v>
    <i name="NUPDOWN">      1.00000000</i>
    <i type="logical" name="LSORBIT"> F  </i>
    <v name="SAXIS">      0.00000000      0.00000000      1.00000000</v>
    <i type="logical" name="LSPIRAL"> F  </i>
    <v name="QSPIRAL">      0.00000000      0.00000000      0.00000000</v>
    <i type="logical" name="LZEROZ"> F  </i>
   </separator>
   <separator name="electronic exchange-correlation" >
    <i type="logical" name="LASPH"> F  </i>
    <i type="logical" name="LMETAGGA"> F  </i>
   </separator>
   <separator name="electronic convergence" >
    <i type="int" name="NELM">   300</i>
    <i type="int" name="NELMDL">    -5</i>
    <i type="int" name="NELMIN">     3</i>
    <i name="ENINI">    600.00000000</i>
    <separator name="electronic convergence detail" >
     <i type="logical" name="LDIAG"> T  </i>
     <i type="logical" name="LSUBROT"> F  </i>
     <i name="WEIMIN">      0.00000000</i>
     <i name="EBREAK">      0.00000000</i>
     <i name="DEPER">      0.30000000</i>
     <i type="int" name="NRMM">     4</i>
     <i name="TIME">      0.40000000</i>
    </separator>
   </separator>
   <separator name="electronic mixer" >
    <i name="AMIX">      0.40000000</i>
    <i name="BMIX">      1.00000000</i>
    <i name="AMIN">      0.10000000</i>
    <i name="AMIX_MAG">      1.60000000</i>
    <i name="BMIX_MAG">      1.00000000</i>
    <separator name="electronic mixer details" >
     <i type="int" name="IMIX">     4</i>
     <i type="logical" name="MIXFIRST"> F  </i>
     <i type="int" name="MAXMIX">   -45</i>
     <i name="WC">    100.00000000</i>
     <i type="int" name="INIMIX">     1</i>
     <i type="int" name="MIXPRE">     1</i>
     <i type="int" name="MREMOVE">     5</i>
    </separator>
   </separator>
   <separator name="electronic dipolcorrection" >
    <i type="logical" name="LDIPOL"> F  </i>
    <i type="logical" name="LMONO"> F  </i>
    <i type="int" name="IDIPOL">     0</i>
    <i name="EPSILON">      1.00000000</i>
    <v name="DIPOL">   -100.00000000   -100.00000000   -100.00000000</v>
    <i name="EFIELD">      0.00000000</i>
   </separator>
  </separator>
  <separator name="grids" >
   <i type="int" name="NGX">   120</i>
   <i type="int" name="NGY">   120</i>
   <i type="int" name="NGZ">   120</i>
   <i type="int" name="NGXF">   240</i>
   <i type="int" name="NGYF">   240</i>
   <i type="int" name="NGZF">   240</i>
   <i type="logical" name="ADDGRID"> F  </i>
  </separator>
  <separator name="ionic" >
   <i type="int" name="NSW">     0</i>
   <i type="int" name="IBRION">    -1</i>
   <i type="int" name="MDALGO">     0</i>
   <i type="int" name="ISIF">     2</i>
   <i name="PSTRESS">      0.00000000</i>
   <i name="EDIFFG">     -0.00100000</i>
   <i type="int" name="NFREE">     0</i>
   <i name="POTIM">      0.50000000</i>
   <i name="SMASS">     -3.00000000</i>
   <i name="SCALEE">      1.00000000</i>
  </separator>
  <separator name="ionic md" >
   <i name="TEBEG">      0.00010000</i>
   <i name="TEEND">      0.00010000</i>
   <i type="int" name="NBLOCK">     1</i>
   <i type="int" name="KBLOCK">     1</i>
   <i type="int" name="NPACO">   256</i>
   <i name="APACO">     16.00000000</i>
  </separator>
  <separator name="symmetry" >
   <i type="int" name="ISYM">     0</i>
   <i name="SYMPREC">      0.00001000</i>
  </separator>
  <separator name="dos" >
   <i type="int" name="LORBIT">     0</i>
   <v name="RWIGS">     -1.00000000     -1.00000000     -1.00000000</v>
   <i type="int" name="NEDOS">   301</i>
   <i name="EMIN">     10.00000000</i>
   <i name="EMAX">    -10.00000000</i>
   <i name="EFERMI">      0.00000000</i>
  </separator>
  <separator name="writing" >
   <i type="int" name="NWRITE">     2</i>
   <i type="logical" name="LWAVE"> F  </i>
   <i type="logical" name="LDOWNSAMPLE"> F  </i>
   <i type="logical" name="LCHARG"> F  </i>
   <i type="logical" name="LPARD"> F  </i>
   <i type="logical" name="LVTOT"> F  </i>
   <i type="logical" name="LVHAR"> F  </i>
   <i type="logical" name="LELF"> F  </i>
   <i type="logical" name="LOPTICS"> F  </i>
   <v name="STM">      0.00000000      0.00000000      0.00000000      0.00000000      0.00000000      0.00000000      0.00000000</v>
  </separator>
  <separator name="performance" >
   <i type="int" name="NPAR">     4</i>
   <i type="int" name="NSIM">     4</i>
   <i type="int" name="NBLK">    -1</i>
   <i type="logical" name="LPLANE"> T  </i>
   <i type="logical" name="LSCALAPACK"> T  </i>
   <i type="logical" name="LSCAAWARE"> F  </i>
   <i type="logical" name="LSCALU"> F  </i>
   <i type="logical" name="LASYNC"> F  </i>
   <i type="logical" name="LORBITALREAL"> F  </i>
  </separator>
  <separator name="miscellaneous" >
   <i type="int" name="IDIOT">     3</i>
   <i type="int" name="ISPECIAL">     0</i>
   <i type="logical" name="LMUSIC"> F  </i>
   <v name="POMASS">     63.54600000     12.01100000     16.00000000</v>
   <v name="DARWINR">      0.00000000      0.00000000      0.00000000</v>
   <v name="DARWINV">      1.00000000      1.00000000      1.00000000</v>
   <i type="logical" name="LCORR"> T  </i>
  </separator>
  <i type="logical" name="GGA_COMPAT"> T  </i>
  <i type="logical" name="LBERRY"> F  </i>
  <i type="int" name="ICORELEVEL">     0</i>
  <i type="logical" name="LDAU"> F  </i>
  <i type="int" name="I_CONSTRAINED_M">     0</i>
  <separator name="electronic exchange-correlation" >
   <i type="string" name="GGA">PE</i>
   <i type="int" name="VOSKOWN">     0</i>
   <i type="logical" name="LHFCALC"> F  </i>
   <i type="string" name="PRECFOCK"></i>
   <i type="logical" name="LSYMGRAD"> F  </i>
   <i type="logical" name="LHFONE"> F  </i>
   <i type="logical" name="LRHFCALC"> F  </i>
   <i type="logical" name="LTHOMAS"> F  </i>
   <i type="logical" name="LMODELHF"> F  </i>
   <i name="ENCUT4O">     -1.00000000</i>
   <i type="int" name="EXXOEP">     0</i>
   <i type="int" name="FOURORBIT">     0</i>
   <i name="AEXX">      0.00000000</i>
   <i name="HFALPHA">      0.00000000</i>
   <i name="MCALPHA">      0.00000000</i>
   <i name="ALDAX">      1.00000000</i>
   <i name="AGGAX">      1.00000000</i>
   <i name="ALDAC">      1.00000000</i>
   <i name="AGGAC">      1.00000000</i>
   <i type="int" name="NKREDX">     1</i>
   <i type="int" name="NKREDY">     1</i>
   <i type="int" name="NKREDZ">     1</i>
   <i type="logical" name="SHIFTRED"> F  </i>
   <i type="logical" name="ODDONLY"> F  </i>
   <i type="logical" name="EVENONLY"> F  </i>
   <i type="int" name="LMAXFOCK">     0</i>
   <i type="int" name="NMAXFOCKAE">     0</i>
   <i type="logical" name="LFOCKAEDFT"> F  </i>
   <i name="HFSCREEN">      0.00000000</i>
   <i name="HFSCREENC">      0.00000000</i>
   <i type="int" name="NBANDSGWLOW">     0</i>
  </separator>
  <separator name="vdW DFT" >
   <i type="logical" name="LUSE_VDW"> F  </i>
   <i name="Zab_VDW">     -0.84910000</i>
   <i name="PARAM1">      0.12340000</i>
   <i name="PARAM2">      1.00000000</i>
   <i name="PARAM3">      0.00000000</i>
  </separator>
  <separator name="model GW" >
   <i type="int" name="MODEL_GW">     0</i>
   <i name="MODEL_EPS0">    135.00000000</i>
   <i name="MODEL_ALPHA">      1.00000000</i>
  </separator>
  <separator name="linear response parameters" >
   <i type="logical" name="LEPSILON"> F  </i>
   <i type="logical" name="LRPA"> F  </i>
   <i type="logical" name="LNABLA"> F  </i>
   <i type="logical" name="LVEL"> F  </i>
   <i type="int" name="KINTER">     0</i>
   <i name="CSHIFT">      0.10000000</i>
   <i name="OMEGAMAX">     -1.00000000</i>
   <i name="DEG_THRESHOLD">      0.00200000</i>
   <i name="RTIME">     -0.10000000</i>
   <i name="WPLASMAI">      0.00000000</i>
   <v name="DFIELD">      0.00000000      0.00000000      0.00000000</v>
   <v name="WPLASMA">      0.00000000      0.00000000      0.00000000      0.00000000      0.00000000      0.00000000      0.00000000      0.00000000      0.00000000</v>
  </separator>
  <separator name="orbital magnetization" >
   <i type="logical" name="NUCIND"> F  </i>
   <v name="MAGPOS">      0.00000000      0.00000000      0.00000000</v>
   <i type="logical" name="LNICSALL"> T  </i>
   <i type="logical" name="ORBITALMAG"> F  </i>
   <i type="logical" name="LMAGBLOCH"> F  </i>
   <i type="logical" name="LCHIMAG"> F  </i>
   <i type="logical" name="LGAUGE"> T  </i>
   <i type="int" name="MAGATOM">     0</i>
   <v name="MAGDIPOL">      0.00000000      0.00000000      0.00000000</v>
   <v name="AVECCONST">      0.00000000      0.00000000      0.00000000</v>
  </separator>
  <separator name="response functions" >
   <i type="logical" name="LADDER"> F  </i>
   <i type="logical" name="LRPAFORCE"> F  </i>
   <i type="logical" name="LFXC"> F  </i>
   <i type="logical" name="LHARTREE"> T  </i>
   <i type="int" name="IBSE">     0</i>
   <v type="int" name="KPOINT">    -1     0     0     0</v>
   <i type="logical" name="LTCTE"> F  </i>
   <i type="logical" name="LTETE"> F  </i>
   <i type="logical" name="LTRIPLET"> F  </i>
   <i type="logical" name="LFXCEPS"> F  </i>
   <i type="logical" name="LFXHEG"> F  </i>
   <i type="int" name="NATURALO">     2</i>
   <i type="logical" name="L2ORDER"> F  </i>
   <i type="logical" name="LMP2LT"> F  </i>
   <i type="logical" name="LUSEW"> F  </i>
   <i name="ENCUTGW">     -2.00000000</i>
   <i name="ENCUTGWSOFT">     -2.00000000</i>
   <i name="ENCUTLF">     -1.00000000</i>
   <i type="int" name="LMAXMP2">    -1</i>
   <i name="SCISSOR">      0.00000000</i>
   <i type="int" name="NOMEGA">     0</i>
   <i type="int" name="NOMEGAR">     0</i>
   <i type="int" name="NBANDSGW">    -1</i>
   <i type="int" name="NBANDSO">    -1</i>
   <i type="int" name="NBANDSV">    -1</i>
   <i type="int" name="NELM">   300</i>
   <i type="int" name="NELMHF">     1</i>
   <i type="int" name="DIM">     3</i>
   <i type="int" name="ANTIRES">     0</i>
   <i name="OMEGAMAX">    -30.00000000</i>
   <i name="OMEGAMIN">    -30.00000000</i>
   <i name="OMEGATL">   -200.00000000</i>
   <i type="int" name="OMEGAGRID">   140</i>
   <i name="CSHIFT">     -0.10000000</i>
   <i type="logical" name="SELFENERGY"> F  </i>
   <i type="logical" name="LSPECTRAL"> F  </i>
   <i type="logical" name="LSPECTRALGW"> F  </i>
   <i type="logical" name="LSINGLES"> F  </i>
   <i type="logical" name="LFERMIGW"> F  </i>
   <i type="logical" name="ODDONLYGW"> F  </i>
   <i type="logical" name="EVENONLYGW"> F  </i>
   <i type="int" name="NKREDLFX">     1</i>
   <i type="int" name="NKREDLFY">     1</i>
   <i type="int" name="NKREDLFZ">     1</i>
   <i type="int" name="MAXMEM">  2800</i>
   <i type="int" name="TELESCOPE">     0</i>
   <i type="int" name="TAUPAR">     1</i>
   <i type="int" name="OMEGAPAR">    -1</i>
   <i name="LAMBDA">      1.00000000</i>
  </separator>
  <separator name="External order field" >
   <i name="OFIELD_KAPPA">      0.00000000</i>
   <v name="OFIELD_K">      0.00000000      0.00000000      0.00000000</v>
   <i name="OFIELD_Q6_NEAR">      0.00000000</i>
   <i name="OFIELD_Q6_FAR">      0.00000000</i>
   <i name="OFIELD_A">      0.00000000</i>
  </separator>
 </parameters>
 <atominfo>
  <atoms>      15 </atoms>
  <types>       3 </types>
  <array name="atoms" >
   <dimension dim="1">ion</dimension>
   <field type="string">element</field>
   <field type="int">atomtype</field>
   <set>
    <rc><c>Cu</c><c>   1</c></rc>
    <rc><c>Cu</c><c>   1</c></rc>
    <rc><c>Cu</c><c>   1</c></rc>
    <rc><c>Cu</c><c>   1</c></rc>
    <rc><c>Cu</c><c>   1</c></rc>
    <rc><c>Cu</c><c>   1</c></rc>
    <rc><c>Cu</c><c>   1</c></rc>
    <rc><c>Cu</c><c>   1</c></rc>
    <rc><c>Cu</c><c>   1</c></rc>
    <rc><c>Cu</c><c>   1</c></rc>
    <rc><c>Cu</c><c>   1</c></rc>
    <rc><c>Cu</c><c>   1</c></rc>
    <rc><c>Cu</c><c>   1</c></rc>
    <rc><c>C </c><c>   2</c></rc>
    <rc><c>O </c><c>   3</c></rc>
   </set>
  </array>
  <array name="atomtypes" >
   <dimension dim="1">type</dimension>
   <field type="int">atomspertype</field>
   <field type="string">element</field>
   <field>mass</field>
   <field>valence</field>
   <field type="string">pseudopotential</field>
   <set>
    <rc><c>  13</c><c>Cu</c><c>     63.54600000</c><c>     11.00000000</c><c>  PAW_PBE Cu 22Jun2005                  </c></rc>
    <rc><c>   1</c><c>C </c><c>     12.01100000</c><c>      4.00000000</c><c>  PAW_PBE C 08Apr2002                   </c></rc>
    <rc><c>   1</c><c>O </c><c>     16.00000000</c><c>      6.00000000</c><c>  PAW_PBE O 08Apr2002                   </c></rc>
   </set>
  </array>
 </atominfo>
 <structure name="initialpos" >
  <crystal>
   <varray name="basis" >
    <v>      15.00000000       0.00000000       0.00000000 </v>
    <v>       0.00000000      15.00000000       0.00000000 </v>
    <v>       0.00000000       0.00000000      15.00000000 </v>
   </varray>
   <i name="volume">   3375.00000000 </i>
   <varray name="rec_basis" >
    <v>       0.06666667       0.00000000       0.00000000 </v>
    <v>       0.00000000       0.06666667       0.00000000 </v>
    <v>       0.00000000       0.00000000       0.06666667 </v>
   </varray>
  </crystal>
  <varray name="positions" >
   <v>       0.29453267       0.40960400       0.55574600 </v>
   <v>       0.36362267       0.54475600       0.49107867 </v>
   <v>       0.41123933       0.29201467       0.55702733 </v>
   <v>       0.52093333       0.52100333       0.47464600 </v>
   <v>       0.56228467       0.35966667       0.51768267 </v>
   <v>       0.44885267       0.43980667       0.60340267 </v>
   <v>       0.41908533       0.40127200       0.43787467 </v>
   <v>       0.22266333       0.56461267       0.56164400 </v>
   <v>       0.33920333       0.53766533       0.66207400 </v>
   <v>       0.36244400       0.68641333       0.59553800 </v>
   <v>       0.47109467       0.66271133       0.47809067 </v>
   <v>       0.61817000       0.47643333       0.61065267 </v>
   <v>       0.48487533       0.58586133       0.61853800 </v>
   <v>       0.73575333       0.50115267       0.63450000 </v>
   <v>       0.81182000       0.50728400       0.62257133 </v>
  </varray>
 </structure>
 <calculation>
  <scstep>
   <time name="dav">    7.44    7.47</time>
   <time name="total">    8.63    8.66</time>
   <energy>
    <i name="alphaZ">     41.16232785 </i>
    <i name="ewald">  16589.83189478 </i>
    <i name="hartreedc"> -33609.60556005 </i>
    <i name="XCdc">    623.62134471 </i>
    <i name="pawpsdc">  16421.75059358 </i>
    <i name="pawaedc"> -17800.06104309 </i>
    <i name="eentropy">      0.00229092 </i>
    <i name="bandstr">    189.77277870 </i>
    <i name="atom">  18662.21924712 </i>
    <i name="e_fr_energy">   1118.69387452 </i>
    <i name="e_wo_entrp">   1118.69158359 </i>
    <i name="e_0_energy">   1118.69311088 </i>
   </energy>
  </scstep>
  <scstep>
   <time name="dav">    7.36    7.38</time>
   <time name="total">    7.36    7.38</time>
   <energy>
    <i name="e_fr_energy">     89.49496141 </i>
    <i name="e_wo_entrp">     89.48012789 </i>
    <i name="e_0_energy">     89.49001690 </i>
   </energy>
  </scstep>
  <scstep>
   <time name="dav">   11.71   11.72</time>
   <time name="total">   11.71   11.72</time>
   <energy>
    <i name="e_fr_energy">    -32.41136825 </i>
    <i name="e_wo_entrp">    -32.42867472 </i>
    <i name="e_0_energy">    -32.41713707 </i>
   </energy>
  </scstep>
  <scstep>
   <time name="dav">   10.30   10.31</time>
   <time name="total">   10.30   10.31</time>
   <energy>
    <i name="e_fr_energy">    -55.52587617 </i>
    <i name="e_wo_entrp">    -55.53663166 </i>
    <i name="e_0_energy">    -55.52946133 </i>
   </energy>
  </scstep>
  <scstep>
   <time name="dav">   12.10   12.11</time>
   <time name="total">   12.78   12.79</time>
   <energy>
    <i name="e_fr_energy">    -57.12906536 </i>
    <i name="e_wo_entrp">    -57.14496022 </i>
    <i name="e_0_energy">    -57.13436364 </i>
   </energy>
  </scstep>
  <scstep>
   <time name="diag">    1.09    1.09</time>
   <time name="diis">    6.80    6.81</time>
   <time name="orth">    0.06    0.06</time>
   <time name="total">    9.79    9.81</time>
   <energy>
    <i name="e_fr_energy">    -56.22832119 </i>
    <i name="e_wo_entrp">    -56.23701810 </i>
    <i name="e_0_energy">    -56.23122016 </i>
   </energy>
  </scstep>
  <scstep>
   <time name="diag">    1.09    1.09</time>
   <time name="diis">    6.48    6.49</time>
   <time name="orth">    0.06    0.06</time>
   <time name="total">    9.47    9.48</time>
   <energy>
    <i name="e_fr_energy">    -49.03596953 </i>
    <i name="e_wo_entrp">    -49.04481294 </i>
    <i name="e_0_energy">    -49.03891733 </i>
   </energy>
  </scstep>
  <scstep>
   <time name="diag">    1.09    1.09</time>
   <time name="diis">    6.95    6.95</time>
   <time name="orth">    0.06    0.06</time>
   <time name="total">    9.94    9.95</time>
   <energy>
    <i name="e_fr_energy">    -48.76612843 </i>
    <i name="e_wo_entrp">    -48.77485872 </i>
    <i name="e_0_energy">    -48.76903853 </i>
   </energy>
  </scstep>
  <scstep>
   <time name="diag">    1.09    1.09</time>
   <time name="diis">    6.68    6.68</time>
   <time name="orth">    0.06    0.06</time>
   <time name="total">    9.67    9.68</time>
   <energy>
    <i name="e_fr_energy">    -48.73455414 </i>
    <i name="e_wo_entrp">    -48.74332060 </i>
    <i name="e_0_energy">    -48.73747629 </i>
   </energy>
  </scstep>
  <scstep>
   <time name="diag">    1.09    1.09</time>
   <time name="diis">    6.99    7.00</time>
   <time name="orth">    0.06    0.06</time>
   <time name="total">    9.99    9.99</time>
   <energy>
    <i name="e_fr_energy">    -48.67241033 </i>
    <i name="e_wo_entrp">    -48.68118246 </i>
    <i name="e_0_energy">    -48.67533438 </i>
   </energy>
  </scstep>
  <scstep>
   <time name="diag">    1.09    1.09</time>
   <time name="diis">    7.17    7.17</time>
   <time name="orth">    0.06    0.06</time>
   <time name="total">   10.16   10.17</time>
   <energy>
    <i name="e_fr_energy">    -48.66495104 </i>
    <i name="e_wo_entrp">    -48.67375508 </i>
    <i name="e_0_energy">    -48.66788572 </i>
   </energy>
  </scstep>
  <scstep>
   <time name="diag">    1.09    1.09</time>
   <time name="diis">    7.04    7.04</time>
   <time name="orth">    0.06    0.06</time>
   <time name="total">   10.03   10.04</time>
   <energy>
    <i name="e_fr_energy">    -48.66161270 </i>
    <i name="e_wo_entrp">    -48.67039973 </i>
    <i name="e_0_energy">    -48.66454171 </i>
   </energy>
  </scstep>
  <scstep>
   <time name="diag">    1.09    1.09</time>
   <time name="diis">    7.06    7.06</time>
   <time name="orth">    0.06    0.06</time>
   <time name="total">   10.06   10.07</time>
   <energy>
    <i name="e_fr_energy">    -48.66080005 </i>
    <i name="e_wo_entrp">    -48.66959619 </i>
    <i name="e_0_energy">    -48.66373209 </i>
   </energy>
  </scstep>
  <scstep>
   <time name="diag">    1.09    1.09</time>
   <time name="diis">    6.97    6.98</time>
   <time name="orth">    0.06    0.06</time>
   <time name="total">    9.98    9.99</time>
   <energy>
    <i name="e_fr_energy">    -48.66190808 </i>
    <i name="e_wo_entrp">    -48.67071962 </i>
    <i name="e_0_energy">    -48.66484526 </i>
   </energy>
  </scstep>
  <scstep>
   <time name="diag">    1.09    1.09</time>
   <time name="diis">    6.52    6.53</time>
   <time name="orth">    0.06    0.06</time>
   <time name="total">    9.53    9.53</time>
   <energy>
    <i name="e_fr_energy">    -48.66293314 </i>
    <i name="e_wo_entrp">    -48.67174508 </i>
    <i name="e_0_energy">    -48.66587045 </i>
   </energy>
  </scstep>
  <scstep>
   <time name="diag">    1.09    1.09</time>
   <time name="diis">    6.36    6.38</time>
   <time name="orth">    0.06    0.06</time>
   <time name="total">    9.36    9.38</time>
   <energy>
    <i name="e_fr_energy">    -48.66433367 </i>
    <i name="e_wo_entrp">    -48.67315011 </i>
    <i name="e_0_energy">    -48.66727248 </i>
   </energy>
  </scstep>
  <scstep>
   <time name="diag">    1.09    1.09</time>
   <time name="diis">    7.06    7.06</time>
   <time name="orth">    0.06    0.06</time>
   <time name="total">   10.07   10.07</time>
   <energy>
    <i name="e_fr_energy">    -48.66605236 </i>
    <i name="e_wo_entrp">    -48.67486700 </i>
    <i name="e_0_energy">    -48.66899057 </i>
   </energy>
  </scstep>
  <scstep>
   <time name="diag">    1.09    1.09</time>
   <time name="diis">    6.84    6.85</time>
   <time name="orth">    0.06    0.06</time>
   <time name="total">    9.85    9.86</time>
   <energy>
    <i name="e_fr_energy">    -48.66697999 </i>
    <i name="e_wo_entrp">    -48.67579626 </i>
    <i name="e_0_energy">    -48.66991875 </i>
   </energy>
  </scstep>
  <scstep>
   <time name="diag">    1.09    1.09</time>
   <time name="diis">    7.45    7.45</time>
   <time name="orth">    0.06    0.06</time>
   <time name="total">   10.46   10.46</time>
   <energy>
    <i name="e_fr_energy">    -48.66777031 </i>
    <i name="e_wo_entrp">    -48.67658876 </i>
    <i name="e_0_energy">    -48.67070979 </i>
   </energy>
  </scstep>
  <scstep>
   <time name="diag">    1.09    1.09</time>
   <time name="diis">    6.95    6.96</time>
   <time name="orth">    0.06    0.06</time>
   <time name="total">    9.96    9.97</time>
   <energy>
    <i name="e_fr_energy">    -48.66832230 </i>
    <i name="e_wo_entrp">    -48.67713919 </i>
    <i name="e_0_energy">    -48.67126126 </i>
   </energy>
  </scstep>
  <scstep>
   <time name="diag">    1.09    1.09</time>
   <time name="diis">    6.85    6.86</time>
   <time name="orth">    0.06    0.06</time>
   <time name="total">    9.87    9.87</time>
   <energy>
    <i name="e_fr_energy">    -48.66871864 </i>
    <i name="e_wo_entrp">    -48.67753449 </i>
    <i name="e_0_energy">    -48.67165726 </i>
   </energy>
  </scstep>
  <scstep>
   <time name="diag">    1.09    1.09</time>
   <time name="diis">    6.71    6.71</time>
   <time name="orth">    0.06    0.06</time>
   <time name="total">    9.72    9.73</time>
   <energy>
    <i name="e_fr_energy">    -48.66897232 </i>
    <i name="e_wo_entrp">    -48.67778809 </i>
    <i name="e_0_energy">    -48.67191091 </i>
   </energy>
  </scstep>
  <scstep>
   <time name="diag">    1.09    1.09</time>
   <time name="diis">    6.55    6.56</time>
   <time name="orth">    0.06    0.06</time>
   <time name="total">    9.57    9.57</time>
   <energy>
    <i name="e_fr_energy">    -48.66909360 </i>
    <i name="e_wo_entrp">    -48.67790961 </i>
    <i name="e_0_energy">    -48.67203227 </i>
   </energy>
  </scstep>
  <scstep>
   <time name="diag">    1.09    1.09</time>
   <time name="diis">    6.59    6.59</time>
   <time name="orth">    0.06    0.06</time>
   <time name="total">    9.60    9.61</time>
   <energy>
    <i name="e_fr_energy">    -48.66919985 </i>
    <i name="e_wo_entrp">    -48.67801568 </i>
    <i name="e_0_energy">    -48.67213846 </i>
   </energy>
  </scstep>
  <scstep>
   <time name="diag">    1.09    1.09</time>
   <time name="diis">    6.64    6.64</time>
   <time name="orth">    0.06    0.06</time>
   <time name="total">    9.66    9.67</time>
   <energy>
    <i name="e_fr_energy">    -48.66926027 </i>
    <i name="e_wo_entrp">    -48.67807608 </i>
    <i name="e_0_energy">    -48.67219887 </i>
   </energy>
  </scstep>
  <scstep>
   <time name="diag">    1.09    1.09</time>
   <time name="diis">    5.33    5.33</time>
   <time name="orth">    0.06    0.06</time>
   <time name="total">    8.34    8.35</time>
   <energy>
    <i name="e_fr_energy">    -48.66928666 </i>
    <i name="e_wo_entrp">    -48.67810255 </i>
    <i name="e_0_energy">    -48.67222529 </i>
   </energy>
  </scstep>
  <scstep>
   <time name="diag">    1.09    1.09</time>
   <time name="diis">    4.64    4.64</time>
   <time name="orth">    0.06    0.06</time>
   <time name="total">    7.67    7.67</time>
   <energy>
    <i name="e_fr_energy">    -48.66930066 </i>
    <i name="e_wo_entrp">    -48.67811659 </i>
    <i name="e_0_energy">    -48.67223930 </i>
   </energy>
  </scstep>
  <scstep>
   <time name="diag">    1.09    1.09</time>
   <time name="diis">    4.82    4.82</time>
   <time name="orth">    0.06    0.06</time>
   <time name="total">    7.84    7.85</time>
   <energy>
    <i name="e_fr_energy">    -48.66930748 </i>
    <i name="e_wo_entrp">    -48.67812340 </i>
    <i name="e_0_energy">    -48.67224612 </i>
   </energy>
  </scstep>
  <scstep>
   <time name="diag">    1.09    1.09</time>
   <time name="diis">    4.57    4.57</time>
   <time name="orth">    0.06    0.06</time>
   <time name="total">    7.61    7.61</time>
   <energy>
    <i name="e_fr_energy">    -48.66931089 </i>
    <i name="e_wo_entrp">    -48.67812678 </i>
    <i name="e_0_energy">    -48.67224952 </i>
   </energy>
  </scstep>
  <scstep>
   <time name="diag">    1.09    1.09</time>
   <time name="diis">    4.56    4.57</time>
   <time name="orth">    0.06    0.06</time>
   <time name="total">    7.61    7.61</time>
   <energy>
    <i name="e_fr_energy">    -48.66931240 </i>
    <i name="e_wo_entrp">    -48.67812828 </i>
    <i name="e_0_energy">    -48.67225103 </i>
   </energy>
  </scstep>
  <scstep>
   <time name="diag">    1.09    1.09</time>
   <time name="diis">    4.66    4.67</time>
   <time name="orth">    0.06    0.06</time>
   <time name="total">    7.71    7.72</time>
   <energy>
    <i name="e_fr_energy">    -48.66931332 </i>
    <i name="e_wo_entrp">    -48.67812919 </i>
    <i name="e_0_energy">    -48.67225194 </i>
   </energy>
  </scstep>
  <scstep>
   <time name="diag">    1.09    1.09</time>
   <time name="diis">    4.36    4.36</time>
   <time name="orth">    0.06    0.06</time>
   <time name="total">    7.47    7.48</time>
   <energy>
    <i name="e_fr_energy">    -48.66931388 </i>
    <i name="e_wo_entrp">    -48.67812976 </i>
    <i name="e_0_energy">    -48.67225251 </i>
   </energy>
  </scstep>
  <scstep>
   <time name="diag">    1.09    1.09</time>
   <time name="diis">    4.03    4.03</time>
   <time name="orth">    0.06    0.06</time>
   <time name="total">    7.09    7.10</time>
   <energy>
    <i name="e_fr_energy">    -48.66931443 </i>
    <i name="e_wo_entrp">    -48.67813031 </i>
    <i name="e_0_energy">    -48.67225305 </i>
   </energy>
  </scstep>
  <scstep>
   <time name="diag">    1.09    1.09</time>
   <time name="diis">    4.31    4.31</time>
   <time name="orth">    0.06    0.06</time>
   <time name="total">    7.38    7.38</time>
   <energy>
    <i name="e_fr_energy">    -48.66931482 </i>
    <i name="e_wo_entrp">    -48.67813071 </i>
    <i name="e_0_energy">    -48.67225345 </i>
   </energy>
  </scstep>
  <scstep>
   <time name="diag">    1.09    1.09</time>
   <time name="diis">    3.77    3.78</time>
   <time name="orth">    0.06    0.06</time>
   <time name="total">    6.85    6.85</time>
   <energy>
    <i name="e_fr_energy">    -48.66931505 </i>
    <i name="e_wo_entrp">    -48.67813094 </i>
    <i name="e_0_energy">    -48.67225368 </i>
   </energy>
  </scstep>
  <scstep>
   <time name="diag">    1.09    1.09</time>
   <time name="diis">    3.61    3.61</time>
   <time name="orth">    0.06    0.06</time>
   <time name="total">    6.69    6.69</time>
   <energy>
    <i name="e_fr_energy">    -48.66931520 </i>
    <i name="e_wo_entrp">    -48.67813109 </i>
    <i name="e_0_energy">    -48.67225383 </i>
   </energy>
  </scstep>
  <scstep>
   <time name="diag">    1.09    1.09</time>
   <time name="diis">    3.34    3.34</time>
   <time name="orth">    0.06    0.06</time>
   <time name="total">    5.67    5.67</time>
   <energy>
    <i name="alphaZ">     41.16232785 </i>
    <i name="ewald">  16589.83189478 </i>
    <i name="hartreedc"> -33567.67061143 </i>
    <i name="XCdc">    615.64269794 </i>
    <i name="pawpsdc">  17674.96227039 </i>
    <i name="pawaedc"> -19074.09707152 </i>
    <i name="eentropy">      0.00881589 </i>
    <i name="bandstr">   -990.72888628 </i>
    <i name="atom">  18662.21924712 </i>
    <i name="e_fr_energy">    -48.66931528 </i>
    <i name="e_wo_entrp">    -48.67813116 </i>
    <i name="e_0_energy">    -48.67225391 </i>
   </energy>
  </scstep>
  <structure>
   <crystal>
    <varray name="basis" >
     <v>      15.00000000       0.00000000       0.00000000 </v>
     <v>       0.00000000      15.00000000       0.00000000 </v>
     <v>       0.00000000       0.00000000      15.00000000 </v>
    </varray>
    <i name="volume">   3375.00000000 </i>
    <varray name="rec_basis" >
     <v>       0.06666667       0.00000000       0.00000000 </v>
     <v>       0.00000000       0.06666667       0.00000000 </v>
     <v>       0.00000000       0.00000000       0.06666667 </v>
    </varray>
   </crystal>
   <varray name="positions" >
    <v>       0.29453267       0.40960400       0.55574600 </v>
    <v>       0.36362267       0.54475600       0.49107867 </v>
    <v>       0.41123933       0.29201467       0.55702733 </v>
    <v>       0.52093333       0.52100333       0.47464600 </v>
    <v>       0.56228467       0.35966667       0.51768267 </v>
    <v>       0.44885267       0.43980667       0.60340267 </v>
    <v>       0.41908533       0.40127200       0.43787467 </v>
    <v>       0.22266333       0.56461267       0.56164400 </v>
    <v>       0.33920333       0.53766533       0.66207400 </v>
    <v>       0.36244400       0.68641333       0.59553800 </v>
    <v>       0.47109467       0.66271133       0.47809067 </v>
    <v>       0.61817000       0.47643333       0.61065267 </v>
    <v>       0.48487533       0.58586133       0.61853800 </v>
    <v>       0.73575333       0.50115267       0.63450000 </v>
    <v>       0.81182000       0.50728400       0.62257133 </v>
   </varray>
  </structure>
  <varray name="forces" >
   <v>       0.11034407       0.23410357       0.04820190 </v>
   <v>      -0.23258261       0.30715277       0.36836810 </v>
   <v>      -0.01590171       0.00331510      -0.11363589 </v>
   <v>       0.89056305      -1.21203961       0.04085000 </v>
   <v>      -0.45566553       0.01627944      -0.20711674 </v>
   <v>       0.44719541      -1.12017524      -0.23234477 </v>
   <v>       0.01568011      -0.15262970       0.41879007 </v>
   <v>       0.00724810       0.02134544       0.00254946 </v>
   <v>      -0.19717516       0.09431595      -0.12268307 </v>
   <v>      -0.45014521      -0.35445927      -0.21625132 </v>
   <v>      -0.13865215       1.12060957       0.01148599 </v>
   <v>      -0.32553704       0.39182805      -0.14000062 </v>
   <v>       0.40969961       0.76395405       0.13616600 </v>
   <v>       0.12618146      -0.20763500      -0.11080135 </v>
   <v>      -0.19125241       0.09403490       0.11642223 </v>
  </varray>
  <varray name="stress" >
   <v>      -0.07745160      -0.24526095      -0.30854278 </v>
   <v>      -0.24526097       1.53232186       0.07676249 </v>
   <v>      -0.30854279       0.07676249      -0.78079034 </v>
  </varray>
  <energy>
   <i name="e_fr_energy">    -48.66931528 </i>
   <i name="e_wo_entrp">    -48.67225391 </i>
   <i name="e_0_energy">      0.00881589 </i>
  </energy>
  <time name="totalsc">  346.95  347.29</time>
  <eigenvalues>
   <array>
    <dimension dim="1">band</dimension>
    <dimension dim="2">kpoint</dimension>
    <dimension dim="3">spin</dimension>
    <field>eigene</field>
    <field>occ</field>
    <set>
     <set comment="spin 1">
      <set comment="kpoint 1">
       <r>  -28.4174    1.0000 </r>
       <r>  -13.8165    1.0000 </r>
       <r>  -11.3226    1.0000 </r>
       <r>  -11.1072    1.0000 </r>
       <r>  -10.8830    1.0000 </r>
       <r>  -10.2187    1.0000 </r>
       <r>   -8.5540    1.0000 </r>
       <r>   -8.2553    1.0000 </r>
       <r>   -7.8420    1.0000 </r>
       <r>   -7.5352    1.0000 </r>
       <r>   -7.4734    1.0000 </r>
       <r>   -7.4265    1.0000 </r>
       <r>   -7.3027    1.0000 </r>
       <r>   -7.1795    1.0000 </r>
       <r>   -7.0293    1.0000 </r>
       <r>   -6.9854    1.0000 </r>
       <r>   -6.8785    1.0000 </r>
       <r>   -6.7991    1.0000 </r>
       <r>   -6.7670    1.0000 </r>
       <r>   -6.6659    1.0000 </r>
       <r>   -6.6533    1.0000 </r>
       <r>   -6.5938    1.0000 </r>
       <r>   -6.5651    1.0000 </r>
       <r>   -6.5099    1.0000 </r>
       <r>   -6.4694    1.0000 </r>
       <r>   -6.4346    1.0000 </r>
       <r>   -6.3778    1.0000 </r>
       <r>   -6.2851    1.0000 </r>
       <r>   -6.2729    1.0000 </r>
       <r>   -6.1625    1.0000 </r>
       <r>   -6.1484    1.0000 </r>
       <r>   -6.1321    1.0000 </r>
       <r>   -6.0983    1.0000 </r>
       <r>   -5.9960    1.0000 </r>
       <r>   -5.9233    1.0000 </r>
       <r>   -5.8596    1.0000 </r>
       <r>   -5.7927    1.0000 </r>
       <r>   -5.7423    1.0000 </r>
       <r>   -5.7055    1.0000 </r>
       <r>   -5.6826    1.0000 </r>
       <r>   -5.5921    1.0000 </r>
       <r>   -5.5489    1.0000 </r>
       <r>   -5.5210    1.0000 </r>
       <r>   -5.4939    1.0000 </r>
       <r>   -5.4567    1.0000 </r>
       <r>   -5.4331    1.0000 </r>
       <r>   -5.3855    1.0000 </r>
       <r>   -5.3676    1.0000 </r>
       <r>   -5.3289    1.0000 </r>
       <r>   -5.3019    1.0000 </r>
       <r>   -5.2732    1.0000 </r>
       <r>   -5.2679    1.0000 </r>
       <r>   -5.2520    1.0000 </r>
       <r>   -5.2417    1.0000 </r>
       <r>   -5.2159    1.0000 </r>
       <r>   -5.1713    1.0000 </r>
       <r>   -5.1504    1.0000 </r>
       <r>   -5.1279    1.0000 </r>
       <r>   -5.1134    1.0000 </r>
       <r>   -5.0897    1.0000 </r>
       <r>   -5.0606    1.0000 </r>
       <r>   -5.0367    1.0000 </r>
       <r>   -5.0066    1.0000 </r>
       <r>   -4.9660    1.0000 </r>
       <r>   -4.9317    1.0000 </r>
       <r>   -4.9127    1.0000 </r>
       <r>   -4.9037    1.0000 </r>
       <r>   -4.8856    1.0000 </r>
       <r>   -4.8600    1.0000 </r>
       <r>   -4.8199    1.0000 </r>
       <r>   -4.8039    1.0000 </r>
       <r>   -4.7709    1.0000 </r>
       <r>   -4.7113    1.0000 </r>
       <r>   -4.5888    1.0000 </r>
       <r>   -4.1434    1.0000 </r>
       <r>   -4.1167    1.0000 </r>
       <r>   -3.4718    1.0000 </r>
       <r>   -3.0592   -0.0000 </r>
       <r>   -2.8640   -0.0000 </r>
       <r>   -2.6172   -0.0000 </r>
       <r>   -2.3260   -0.0000 </r>
       <r>   -1.9570   -0.0000 </r>
       <r>   -1.9125   -0.0000 </r>
       <r>   -1.7736   -0.0000 </r>
       <r>   -1.3103   -0.0000 </r>
       <r>   -1.0258   -0.0000 </r>
       <r>   -0.9321   -0.0000 </r>
       <r>   -0.7324   -0.0000 </r>
       <r>   -0.4434    0.0000 </r>
       <r>   -0.2519    0.0000 </r>
       <r>   -0.1046    0.0000 </r>
       <r>    0.2235    0.0000 </r>
      </set>
     </set>
     <set comment="spin 2">
      <set comment="kpoint 1">
       <r>  -28.4033    1.0000 </r>
       <r>  -13.7908    1.0000 </r>
       <r>  -11.3025    1.0000 </r>
       <r>  -11.0931    1.0000 </r>
       <r>  -10.8406    1.0000 </r>
       <r>  -10.1800    1.0000 </r>
       <r>   -8.5257    1.0000 </r>
       <r>   -8.2133    1.0000 </r>
       <r>   -7.8008    1.0000 </r>
       <r>   -7.5161    1.0000 </r>
       <r>   -7.4408    1.0000 </r>
       <r>   -7.3961    1.0000 </r>
       <r>   -7.2590    1.0000 </r>
       <r>   -7.1523    1.0000 </r>
       <r>   -6.9943    1.0000 </r>
       <r>   -6.9582    1.0000 </r>
       <r>   -6.8513    1.0000 </r>
       <r>   -6.7758    1.0000 </r>
       <r>   -6.7364    1.0000 </r>
       <r>   -6.6435    1.0000 </r>
       <r>   -6.6310    1.0000 </r>
       <r>   -6.5553    1.0000 </r>
       <r>   -6.5393    1.0000 </r>
       <r>   -6.4900    1.0000 </r>
       <r>   -6.4452    1.0000 </r>
       <r>   -6.4078    1.0000 </r>
       <r>   -6.3446    1.0000 </r>
       <r>   -6.2587    1.0000 </r>
       <r>   -6.2459    1.0000 </r>
       <r>   -6.1317    1.0000 </r>
       <r>   -6.1211    1.0000 </r>
       <r>   -6.1032    1.0000 </r>
       <r>   -6.0694    1.0000 </r>
       <r>   -5.9709    1.0000 </r>
       <r>   -5.8976    1.0000 </r>
       <r>   -5.8353    1.0000 </r>
       <r>   -5.7706    1.0000 </r>
       <r>   -5.7130    1.0000 </r>
       <r>   -5.6786    1.0000 </r>
       <r>   -5.6611    1.0000 </r>
       <r>   -5.5633    1.0000 </r>
       <r>   -5.5157    1.0000 </r>
       <r>   -5.4967    1.0000 </r>
       <r>   -5.4590    1.0000 </r>
       <r>   -5.4347    1.0000 </r>
       <r>   -5.4030    1.0000 </r>
       <r>   -5.3621    1.0000 </r>
       <r>   -5.3403    1.0000 </r>
       <r>   -5.2968    1.0000 </r>
       <r>   -5.2787    1.0000 </r>
       <r>   -5.2453    1.0000 </r>
       <r>   -5.2443    1.0000 </r>
       <r>   -5.2320    1.0000 </r>
       <r>   -5.2180    1.0000 </r>
       <r>   -5.1912    1.0000 </r>
       <r>   -5.1496    1.0000 </r>
       <r>   -5.1260    1.0000 </r>
       <r>   -5.1048    1.0000 </r>
       <r>   -5.0865    1.0000 </r>
       <r>   -5.0669    1.0000 </r>
       <r>   -5.0280    1.0000 </r>
       <r>   -5.0145    1.0000 </r>
       <r>   -4.9719    1.0000 </r>
       <r>   -4.9442    1.0000 </r>
       <r>   -4.9025    1.0000 </r>
       <r>   -4.8842    1.0000 </r>
       <r>   -4.8767    1.0000 </r>
       <r>   -4.8509    1.0000 </r>
       <r>   -4.8253    1.0000 </r>
       <r>   -4.7846    1.0000 </r>
       <r>   -4.7720    1.0000 </r>
       <r>   -4.7463    1.0000 </r>
       <r>   -4.6844    1.0000 </r>
       <r>   -4.5333    1.0000 </r>
       <r>   -4.0891    1.0155 </r>
       <r>   -4.0745    0.9845 </r>
       <r>   -3.2735   -0.0000 </r>
       <r>   -2.9965   -0.0000 </r>
       <r>   -2.8122   -0.0000 </r>
       <r>   -2.5613   -0.0000 </r>
       <r>   -2.2449   -0.0000 </r>
       <r>   -1.9241   -0.0000 </r>
       <r>   -1.8279   -0.0000 </r>
       <r>   -1.7086   -0.0000 </r>
       <r>   -1.1918    0.0000 </r>
       <r>   -0.9640    0.0000 </r>
       <r>   -0.7996    0.0000 </r>
       <r>   -0.6393    0.0000 </r>
       <r>   -0.3532    0.0000 </r>
       <r>   -0.2062    0.0000 </r>
       <r>   -0.0039    0.0000 </r>
       <r>    0.1729    0.0000 </r>
      </set>
     </set>
    </set>
   </array>
  </eigenvalues>
  <separator name="orbital magnetization" >
   <v name="MAGDIPOLOUT">      0.00000000      0.00000000      0.00000000</v>
  </separator>
  <dos>
   <i name="efermi">     -3.99656250 </i>
   <total>
    <array>
     <dimension dim="1">gridpoints</dimension>
     <dimension dim="2">spin</dimension>
     <field>energy</field>
     <field>total</field>
     <field>integrated</field>
     <set>
      <set comment="spin 1">
       <r>   -29.8494     0.0000     0.0000 </r>
       <r>   -29.7444     0.0000     0.0000 </r>
       <r>   -29.6394     0.0000     0.0000 </r>
       <r>   -29.5344     0.0000     0.0000 </r>
       <r>   -29.4294     0.0000     0.0000 </r>
       <r>   -29.3243     0.0000     0.0000 </r>
       <r>   -29.2193    -0.0000    -0.0000 </r>
       <r>   -29.1143    -0.0000    -0.0000 </r>
       <r>   -29.0093    -0.0000    -0.0000 </r>
       <r>   -28.9043    -0.0000    -0.0000 </r>
       <r>   -28.7993    -0.0000    -0.0000 </r>
       <r>   -28.6942    -0.0061    -0.0006 </r>
       <r>   -28.5892    -0.3319    -0.0355 </r>
       <r>   -28.4842     1.3225     0.1034 </r>
       <r>   -28.3792    14.2233     1.5971 </r>
       <r>   -28.2742     4.4186     2.0611 </r>
       <r>   -28.1692    -0.5578     2.0025 </r>
       <r>   -28.0641    -0.0238     2.0000 </r>
       <r>   -27.9591    -0.0001     2.0000 </r>
       <r>   -27.8541    -0.0000     2.0000 </r>
       <r>   -27.7491    -0.0000     2.0000 </r>
       <r>   -27.6441     0.0000     2.0000 </r>
       <r>   -27.5391     0.0000     2.0000 </r>
       <r>   -27.4340     0.0000     2.0000 </r>
       <r>   -27.3290     0.0000     2.0000 </r>
       <r>   -27.2240     0.0000     2.0000 </r>
       <r>   -27.1190     0.0000     2.0000 </r>
       <r>   -27.0140     0.0000     2.0000 </r>
       <r>   -26.9090     0.0000     2.0000 </r>
       <r>   -26.8039     0.0000     2.0000 </r>
       <r>   -26.6989     0.0000     2.0000 </r>
       <r>   -26.5939     0.0000     2.0000 </r>
       <r>   -26.4889     0.0000     2.0000 </r>
       <r>   -26.3839     0.0000     2.0000 </r>
       <r>   -26.2789     0.0000     2.0000 </r>
       <r>   -26.1738     0.0000     2.0000 </r>
       <r>   -26.0688     0.0000     2.0000 </r>
       <r>   -25.9638     0.0000     2.0000 </r>
       <r>   -25.8588     0.0000     2.0000 </r>
       <r>   -25.7538     0.0000     2.0000 </r>
       <r>   -25.6488     0.0000     2.0000 </r>
       <r>   -25.5437     0.0000     2.0000 </r>
       <r>   -25.4387     0.0000     2.0000 </r>
       <r>   -25.3337     0.0000     2.0000 </r>
       <r>   -25.2287     0.0000     2.0000 </r>
       <r>   -25.1237     0.0000     2.0000 </r>
       <r>   -25.0187     0.0000     2.0000 </r>
       <r>   -24.9136     0.0000     2.0000 </r>
       <r>   -24.8086     0.0000     2.0000 </r>
       <r>   -24.7036     0.0000     2.0000 </r>
       <r>   -24.5986     0.0000     2.0000 </r>
       <r>   -24.4936     0.0000     2.0000 </r>
       <r>   -24.3886     0.0000     2.0000 </r>
       <r>   -24.2835     0.0000     2.0000 </r>
       <r>   -24.1785     0.0000     2.0000 </r>
       <r>   -24.0735     0.0000     2.0000 </r>
       <r>   -23.9685     0.0000     2.0000 </r>
       <r>   -23.8635     0.0000     2.0000 </r>
       <r>   -23.7585     0.0000     2.0000 </r>
       <r>   -23.6534     0.0000     2.0000 </r>
       <r>   -23.5484     0.0000     2.0000 </r>
       <r>   -23.4434     0.0000     2.0000 </r>
       <r>   -23.3384     0.0000     2.0000 </r>
       <r>   -23.2334     0.0000     2.0000 </r>
       <r>   -23.1284     0.0000     2.0000 </r>
       <r>   -23.0234     0.0000     2.0000 </r>
       <r>   -22.9183     0.0000     2.0000 </r>
       <r>   -22.8133     0.0000     2.0000 </r>
       <r>   -22.7083     0.0000     2.0000 </r>
       <r>   -22.6033     0.0000     2.0000 </r>
       <r>   -22.4983     0.0000     2.0000 </r>
       <r>   -22.3933     0.0000     2.0000 </r>
       <r>   -22.2882     0.0000     2.0000 </r>
       <r>   -22.1832     0.0000     2.0000 </r>
       <r>   -22.0782     0.0000     2.0000 </r>
       <r>   -21.9732     0.0000     2.0000 </r>
       <r>   -21.8682     0.0000     2.0000 </r>
       <r>   -21.7632     0.0000     2.0000 </r>
       <r>   -21.6581     0.0000     2.0000 </r>
       <r>   -21.5531     0.0000     2.0000 </r>
       <r>   -21.4481     0.0000     2.0000 </r>
       <r>   -21.3431     0.0000     2.0000 </r>
       <r>   -21.2381     0.0000     2.0000 </r>
       <r>   -21.1331     0.0000     2.0000 </r>
       <r>   -21.0280     0.0000     2.0000 </r>
       <r>   -20.9230     0.0000     2.0000 </r>
       <r>   -20.8180     0.0000     2.0000 </r>
       <r>   -20.7130     0.0000     2.0000 </r>
       <r>   -20.6080     0.0000     2.0000 </r>
       <r>   -20.5030     0.0000     2.0000 </r>
       <r>   -20.3979     0.0000     2.0000 </r>
       <r>   -20.2929     0.0000     2.0000 </r>
       <r>   -20.1879     0.0000     2.0000 </r>
       <r>   -20.0829     0.0000     2.0000 </r>
       <r>   -19.9779     0.0000     2.0000 </r>
       <r>   -19.8729     0.0000     2.0000 </r>
       <r>   -19.7678     0.0000     2.0000 </r>
       <r>   -19.6628     0.0000     2.0000 </r>
       <r>   -19.5578     0.0000     2.0000 </r>
       <r>   -19.4528     0.0000     2.0000 </r>
       <r>   -19.3478     0.0000     2.0000 </r>
       <r>   -19.2428     0.0000     2.0000 </r>
       <r>   -19.1377     0.0000     2.0000 </r>
       <r>   -19.0327     0.0000     2.0000 </r>
       <r>   -18.9277     0.0000     2.0000 </r>
       <r>   -18.8227     0.0000     2.0000 </r>
       <r>   -18.7177     0.0000     2.0000 </r>
       <r>   -18.6127     0.0000     2.0000 </r>
       <r>   -18.5076     0.0000     2.0000 </r>
       <r>   -18.4026     0.0000     2.0000 </r>
       <r>   -18.2976     0.0000     2.0000 </r>
       <r>   -18.1926     0.0000     2.0000 </r>
       <r>   -18.0876     0.0000     2.0000 </r>
       <r>   -17.9826     0.0000     2.0000 </r>
       <r>   -17.8775     0.0000     2.0000 </r>
       <r>   -17.7725     0.0000     2.0000 </r>
       <r>   -17.6675     0.0000     2.0000 </r>
       <r>   -17.5625     0.0000     2.0000 </r>
       <r>   -17.4575     0.0000     2.0000 </r>
       <r>   -17.3525     0.0000     2.0000 </r>
       <r>   -17.2475     0.0000     2.0000 </r>
       <r>   -17.1424     0.0000     2.0000 </r>
       <r>   -17.0374     0.0000     2.0000 </r>
       <r>   -16.9324     0.0000     2.0000 </r>
       <r>   -16.8274     0.0000     2.0000 </r>
       <r>   -16.7224     0.0000     2.0000 </r>
       <r>   -16.6174     0.0000     2.0000 </r>
       <r>   -16.5123     0.0000     2.0000 </r>
       <r>   -16.4073     0.0000     2.0000 </r>
       <r>   -16.3023     0.0000     2.0000 </r>
       <r>   -16.1973     0.0000     2.0000 </r>
       <r>   -16.0923     0.0000     2.0000 </r>
       <r>   -15.9873     0.0000     2.0000 </r>
       <r>   -15.8822     0.0000     2.0000 </r>
       <r>   -15.7772     0.0000     2.0000 </r>
       <r>   -15.6722     0.0000     2.0000 </r>
       <r>   -15.5672     0.0000     2.0000 </r>
       <r>   -15.4622     0.0000     2.0000 </r>
       <r>   -15.3572     0.0000     2.0000 </r>
       <r>   -15.2521     0.0000     2.0000 </r>
       <r>   -15.1471     0.0000     2.0000 </r>
       <r>   -15.0421     0.0000     2.0000 </r>
       <r>   -14.9371     0.0000     2.0000 </r>
       <r>   -14.8321     0.0000     2.0000 </r>
       <r>   -14.7271     0.0000     2.0000 </r>
       <r>   -14.6220    -0.0000     2.0000 </r>
       <r>   -14.5170    -0.0000     2.0000 </r>
       <r>   -14.4120    -0.0000     2.0000 </r>
       <r>   -14.3070    -0.0000     2.0000 </r>
       <r>   -14.2020    -0.0000     2.0000 </r>
       <r>   -14.0970    -0.0051     1.9995 </r>
       <r>   -13.9919    -0.3043     1.9675 </r>
       <r>   -13.8869     1.0461     2.0774 </r>
       <r>   -13.7819    14.0093     3.5486 </r>
       <r>   -13.6769     4.9063     4.0638 </r>
       <r>   -13.5719    -0.5798     4.0029 </r>
       <r>   -13.4669    -0.0278     4.0000 </r>
       <r>   -13.3618    -0.0001     4.0000 </r>
       <r>   -13.2568    -0.0000     4.0000 </r>
       <r>   -13.1518    -0.0000     4.0000 </r>
       <r>   -13.0468     0.0000     4.0000 </r>
       <r>   -12.9418     0.0000     4.0000 </r>
       <r>   -12.8368     0.0000     4.0000 </r>
       <r>   -12.7317     0.0000     4.0000 </r>
       <r>   -12.6267     0.0000     4.0000 </r>
       <r>   -12.5217     0.0000     4.0000 </r>
       <r>   -12.4167     0.0000     4.0000 </r>
       <r>   -12.3117     0.0000     4.0000 </r>
       <r>   -12.2067    -0.0000     4.0000 </r>
       <r>   -12.1016    -0.0000     4.0000 </r>
       <r>   -11.9966    -0.0000     4.0000 </r>
       <r>   -11.8916    -0.0000     4.0000 </r>
       <r>   -11.7866    -0.0000     4.0000 </r>
       <r>   -11.6816    -0.0000     4.0000 </r>
       <r>   -11.5766    -0.0184     3.9981 </r>
       <r>   -11.4715    -0.5174     3.9437 </r>
       <r>   -11.3665     3.6698     4.3291 </r>
       <r>   -11.2615    13.9938     5.7987 </r>
       <r>   -11.1565     4.8403     6.3070 </r>
       <r>   -11.0515    13.8539     7.7619 </r>
       <r>   -10.9465     3.9401     8.1757 </r>
       <r>   -10.8415    13.9604     9.6417 </r>
       <r>   -10.7364     3.9666    10.0583 </r>
       <r>   -10.6314    -0.5346    10.0022 </r>
       <r>   -10.5264    -0.0216     9.9999 </r>
       <r>   -10.4214    -0.1385     9.9853 </r>
       <r>   -10.3164    -0.2888     9.9550 </r>
       <r>   -10.2114    11.1367    11.1245 </r>
       <r>   -10.1063     8.9776    12.0673 </r>
       <r>   -10.0013    -0.5579    12.0088 </r>
       <r>    -9.8963    -0.0829    12.0001 </r>
       <r>    -9.7913    -0.0005    12.0000 </r>
       <r>    -9.6863    -0.0000    12.0000 </r>
       <r>    -9.5813    -0.0000    12.0000 </r>
       <r>    -9.4762     0.0000    12.0000 </r>
       <r>    -9.3712    -0.0000    12.0000 </r>
       <r>    -9.2662    -0.0000    12.0000 </r>
       <r>    -9.1612    -0.0000    12.0000 </r>
       <r>    -9.0562    -0.0000    12.0000 </r>
       <r>    -8.9512    -0.0000    12.0000 </r>
       <r>    -8.8461    -0.0027    11.9997 </r>
       <r>    -8.7411    -0.2230    11.9763 </r>
       <r>    -8.6361     0.3174    12.0096 </r>
       <r>    -8.5311    13.0148    13.3764 </r>
       <r>    -8.4261     6.2582    14.0336 </r>
       <r>    -8.3211     0.7913    14.1167 </r>
       <r>    -8.2160    14.2347    15.6116 </r>
       <r>    -8.1110     4.2627    16.0592 </r>
       <r>    -8.0060    -0.9459    15.9599 </r>
       <r>    -7.9010     1.9955    16.1695 </r>
       <r>    -7.7960    14.5166    17.6940 </r>
       <r>    -7.6910     2.8610    17.9944 </r>
       <r>    -7.5859     1.3737    18.1387 </r>
       <r>    -7.4809    25.7320    20.8409 </r>
       <r>    -7.3759    28.9334    23.8794 </r>
       <r>    -7.2709    15.8567    25.5446 </r>
       <r>    -7.1659    15.7625    27.2000 </r>
       <r>    -7.0609    13.1860    28.5847 </r>
       <r>    -6.9558    26.6984    31.3885 </r>
       <r>    -6.8508    22.4307    33.7441 </r>
       <r>    -6.7458    31.9570    37.1001 </r>
       <r>    -6.6408    36.7540    40.9599 </r>
       <r>    -6.5358    48.1884    46.0204 </r>
       <r>    -6.4308    46.3203    50.8848 </r>
       <r>    -6.3257    33.6429    54.4179 </r>
       <r>    -6.2207    32.6479    57.8464 </r>
       <r>    -6.1157    51.0164    63.2040 </r>
       <r>    -6.0107    35.0240    66.8821 </r>
       <r>    -5.9057    25.1157    69.5197 </r>
       <r>    -5.8007    31.5871    72.8368 </r>
       <r>    -5.6956    45.0883    77.5718 </r>
       <r>    -5.5906    36.9445    81.4516 </r>
       <r>    -5.4856    54.7264    87.1988 </r>
       <r>    -5.3806    62.0391    93.7139 </r>
       <r>    -5.2756    80.6637   102.1849 </r>
       <r>    -5.1706    92.2988   111.8778 </r>
       <r>    -5.0656    82.4769   120.5392 </r>
       <r>    -4.9605    69.7412   127.8632 </r>
       <r>    -4.8555    85.4708   136.8390 </r>
       <r>    -4.7505    64.7763   143.6416 </r>
       <r>    -4.6455    24.8102   146.2471 </r>
       <r>    -4.5405    14.4509   147.7647 </r>
       <r>    -4.4355     2.7426   148.0527 </r>
       <r>    -4.3304    -0.8079   147.9678 </r>
       <r>    -4.2254    -0.2076   147.9460 </r>
       <r>    -4.1204    22.5625   150.3155 </r>
       <r>    -4.0154    17.2111   152.1229 </r>
       <r>    -3.9104    -1.0014   152.0177 </r>
       <r>    -3.8054    -0.1681   152.0001 </r>
       <r>    -3.7003    -0.0554   151.9943 </r>
       <r>    -3.5953    -0.6205   151.9291 </r>
       <r>    -3.4903     7.2733   152.6929 </r>
       <r>    -3.3853    12.5396   154.0098 </r>
       <r>    -3.2803     0.0322   154.0132 </r>
       <r>    -3.1753    -0.7862   153.9306 </r>
       <r>    -3.0702     8.2951   154.8017 </r>
       <r>    -2.9652    11.2469   155.9828 </r>
       <r>    -2.8602    10.4317   157.0783 </r>
       <r>    -2.7552     8.7697   157.9993 </r>
       <r>    -2.6502     4.6135   158.4838 </r>
       <r>    -2.5452    13.7271   159.9254 </r>
       <r>    -2.4401     0.3552   159.9627 </r>
       <r>    -2.3351     8.4155   160.8464 </r>
       <r>    -2.2301    11.3632   162.0397 </r>
       <r>    -2.1251    -0.6993   161.9663 </r>
       <r>    -2.0201     0.9717   162.0684 </r>
       <r>    -1.9151    23.5345   164.5399 </r>
       <r>    -1.8100    19.0391   166.5393 </r>
       <r>    -1.7050    13.1879   167.9242 </r>
       <r>    -1.6000     1.0432   168.0338 </r>
       <r>    -1.4950    -0.5576   167.9752 </r>
       <r>    -1.3900     0.4397   168.0214 </r>
       <r>    -1.2850    13.2416   169.4120 </r>
       <r>    -1.1799     5.7436   170.0152 </r>
       <r>    -1.0749     1.8732   170.2119 </r>
       <r>    -0.9699    18.9776   172.2048 </r>
       <r>    -0.8649    15.9186   173.8766 </r>
       <r>    -0.7599     6.7868   174.5893 </r>
       <r>    -0.6549    13.0188   175.9565 </r>
       <r>    -0.5498     0.0863   175.9655 </r>
       <r>    -0.4448     9.4268   176.9555 </r>
       <r>    -0.3398    10.3019   178.0374 </r>
       <r>    -0.2348    11.3384   179.2281 </r>
       <r>    -0.1298    13.6357   180.6601 </r>
       <r>    -0.0248    12.5975   181.9830 </r>
       <r>     0.0803    -0.1792   181.9642 </r>
       <r>     0.1853     4.1811   182.4033 </r>
       <r>     0.2903    14.2202   183.8966 </r>
       <r>     0.3953     1.3225   184.0355 </r>
       <r>     0.5003    -0.3319   184.0006 </r>
       <r>     0.6053    -0.0061   184.0000 </r>
       <r>     0.7104    -0.0000   184.0000 </r>
       <r>     0.8154    -0.0000   184.0000 </r>
       <r>     0.9204    -0.0000   184.0000 </r>
       <r>     1.0254     0.0000   184.0000 </r>
       <r>     1.1304     0.0000   184.0000 </r>
       <r>     1.2354     0.0000   184.0000 </r>
       <r>     1.3404     0.0000   184.0000 </r>
       <r>     1.4455     0.0000   184.0000 </r>
       <r>     1.5505     0.0000   184.0000 </r>
       <r>     1.6555     0.0000   184.0000 </r>
      </set>
      <set comment="spin 2">
       <r>   -29.8494     0.0000     0.0000 </r>
       <r>   -29.7444     0.0000     0.0000 </r>
       <r>   -29.6394     0.0000     0.0000 </r>
       <r>   -29.5344     0.0000     0.0000 </r>
       <r>   -29.4294     0.0000     0.0000 </r>
       <r>   -29.3243     0.0000     0.0000 </r>
       <r>   -29.2193    -0.0000    -0.0000 </r>
       <r>   -29.1143    -0.0000    -0.0000 </r>
       <r>   -29.0093    -0.0000    -0.0000 </r>
       <r>   -28.9043    -0.0000    -0.0000 </r>
       <r>   -28.7993    -0.0000    -0.0000 </r>
       <r>   -28.6942    -0.0029    -0.0003 </r>
       <r>   -28.5892    -0.2306    -0.0245 </r>
       <r>   -28.4842     0.3800     0.0154 </r>
       <r>   -28.3792    13.1404     1.3953 </r>
       <r>   -28.2742     6.4213     2.0697 </r>
       <r>   -28.1692    -0.6199     2.0046 </r>
       <r>   -28.0641    -0.0433     2.0000 </r>
       <r>   -27.9591    -0.0002     2.0000 </r>
       <r>   -27.8541    -0.0000     2.0000 </r>
       <r>   -27.7491    -0.0000     2.0000 </r>
       <r>   -27.6441     0.0000     2.0000 </r>
       <r>   -27.5391     0.0000     2.0000 </r>
       <r>   -27.4340     0.0000     2.0000 </r>
       <r>   -27.3290     0.0000     2.0000 </r>
       <r>   -27.2240     0.0000     2.0000 </r>
       <r>   -27.1190     0.0000     2.0000 </r>
       <r>   -27.0140     0.0000     2.0000 </r>
       <r>   -26.9090     0.0000     2.0000 </r>
       <r>   -26.8039     0.0000     2.0000 </r>
       <r>   -26.6989     0.0000     2.0000 </r>
       <r>   -26.5939     0.0000     2.0000 </r>
       <r>   -26.4889     0.0000     2.0000 </r>
       <r>   -26.3839     0.0000     2.0000 </r>
       <r>   -26.2789     0.0000     2.0000 </r>
       <r>   -26.1738     0.0000     2.0000 </r>
       <r>   -26.0688     0.0000     2.0000 </r>
       <r>   -25.9638     0.0000     2.0000 </r>
       <r>   -25.8588     0.0000     2.0000 </r>
       <r>   -25.7538     0.0000     2.0000 </r>
       <r>   -25.6488     0.0000     2.0000 </r>
       <r>   -25.5437     0.0000     2.0000 </r>
       <r>   -25.4387     0.0000     2.0000 </r>
       <r>   -25.3337     0.0000     2.0000 </r>
       <r>   -25.2287     0.0000     2.0000 </r>
       <r>   -25.1237     0.0000     2.0000 </r>
       <r>   -25.0187     0.0000     2.0000 </r>
       <r>   -24.9136     0.0000     2.0000 </r>
       <r>   -24.8086     0.0000     2.0000 </r>
       <r>   -24.7036     0.0000     2.0000 </r>
       <r>   -24.5986     0.0000     2.0000 </r>
       <r>   -24.4936     0.0000     2.0000 </r>
       <r>   -24.3886     0.0000     2.0000 </r>
       <r>   -24.2835     0.0000     2.0000 </r>
       <r>   -24.1785     0.0000     2.0000 </r>
       <r>   -24.0735     0.0000     2.0000 </r>
       <r>   -23.9685     0.0000     2.0000 </r>
       <r>   -23.8635     0.0000     2.0000 </r>
       <r>   -23.7585     0.0000     2.0000 </r>
       <r>   -23.6534     0.0000     2.0000 </r>
       <r>   -23.5484     0.0000     2.0000 </r>
       <r>   -23.4434     0.0000     2.0000 </r>
       <r>   -23.3384     0.0000     2.0000 </r>
       <r>   -23.2334     0.0000     2.0000 </r>
       <r>   -23.1284     0.0000     2.0000 </r>
       <r>   -23.0234     0.0000     2.0000 </r>
       <r>   -22.9183     0.0000     2.0000 </r>
       <r>   -22.8133     0.0000     2.0000 </r>
       <r>   -22.7083     0.0000     2.0000 </r>
       <r>   -22.6033     0.0000     2.0000 </r>
       <r>   -22.4983     0.0000     2.0000 </r>
       <r>   -22.3933     0.0000     2.0000 </r>
       <r>   -22.2882     0.0000     2.0000 </r>
       <r>   -22.1832     0.0000     2.0000 </r>
       <r>   -22.0782     0.0000     2.0000 </r>
       <r>   -21.9732     0.0000     2.0000 </r>
       <r>   -21.8682     0.0000     2.0000 </r>
       <r>   -21.7632     0.0000     2.0000 </r>
       <r>   -21.6581     0.0000     2.0000 </r>
       <r>   -21.5531     0.0000     2.0000 </r>
       <r>   -21.4481     0.0000     2.0000 </r>
       <r>   -21.3431     0.0000     2.0000 </r>
       <r>   -21.2381     0.0000     2.0000 </r>
       <r>   -21.1331     0.0000     2.0000 </r>
       <r>   -21.0280     0.0000     2.0000 </r>
       <r>   -20.9230     0.0000     2.0000 </r>
       <r>   -20.8180     0.0000     2.0000 </r>
       <r>   -20.7130     0.0000     2.0000 </r>
       <r>   -20.6080     0.0000     2.0000 </r>
       <r>   -20.5030     0.0000     2.0000 </r>
       <r>   -20.3979     0.0000     2.0000 </r>
       <r>   -20.2929     0.0000     2.0000 </r>
       <r>   -20.1879     0.0000     2.0000 </r>
       <r>   -20.0829     0.0000     2.0000 </r>
       <r>   -19.9779     0.0000     2.0000 </r>
       <r>   -19.8729     0.0000     2.0000 </r>
       <r>   -19.7678     0.0000     2.0000 </r>
       <r>   -19.6628     0.0000     2.0000 </r>
       <r>   -19.5578     0.0000     2.0000 </r>
       <r>   -19.4528     0.0000     2.0000 </r>
       <r>   -19.3478     0.0000     2.0000 </r>
       <r>   -19.2428     0.0000     2.0000 </r>
       <r>   -19.1377     0.0000     2.0000 </r>
       <r>   -19.0327     0.0000     2.0000 </r>
       <r>   -18.9277     0.0000     2.0000 </r>
       <r>   -18.8227     0.0000     2.0000 </r>
       <r>   -18.7177     0.0000     2.0000 </r>
       <r>   -18.6127     0.0000     2.0000 </r>
       <r>   -18.5076     0.0000     2.0000 </r>
       <r>   -18.4026     0.0000     2.0000 </r>
       <r>   -18.2976     0.0000     2.0000 </r>
       <r>   -18.1926     0.0000     2.0000 </r>
       <r>   -18.0876     0.0000     2.0000 </r>
       <r>   -17.9826     0.0000     2.0000 </r>
       <r>   -17.8775     0.0000     2.0000 </r>
       <r>   -17.7725     0.0000     2.0000 </r>
       <r>   -17.6675     0.0000     2.0000 </r>
       <r>   -17.5625     0.0000     2.0000 </r>
       <r>   -17.4575     0.0000     2.0000 </r>
       <r>   -17.3525     0.0000     2.0000 </r>
       <r>   -17.2475     0.0000     2.0000 </r>
       <r>   -17.1424     0.0000     2.0000 </r>
       <r>   -17.0374     0.0000     2.0000 </r>
       <r>   -16.9324     0.0000     2.0000 </r>
       <r>   -16.8274     0.0000     2.0000 </r>
       <r>   -16.7224     0.0000     2.0000 </r>
       <r>   -16.6174     0.0000     2.0000 </r>
       <r>   -16.5123     0.0000     2.0000 </r>
       <r>   -16.4073     0.0000     2.0000 </r>
       <r>   -16.3023     0.0000     2.0000 </r>
       <r>   -16.1973     0.0000     2.0000 </r>
       <r>   -16.0923     0.0000     2.0000 </r>
       <r>   -15.9873     0.0000     2.0000 </r>
       <r>   -15.8822     0.0000     2.0000 </r>
       <r>   -15.7772     0.0000     2.0000 </r>
       <r>   -15.6722     0.0000     2.0000 </r>
       <r>   -15.5672     0.0000     2.0000 </r>
       <r>   -15.4622     0.0000     2.0000 </r>
       <r>   -15.3572     0.0000     2.0000 </r>
       <r>   -15.2521     0.0000     2.0000 </r>
       <r>   -15.1471     0.0000     2.0000 </r>
       <r>   -15.0421     0.0000     2.0000 </r>
       <r>   -14.9371     0.0000     2.0000 </r>
       <r>   -14.8321     0.0000     2.0000 </r>
       <r>   -14.7271     0.0000     2.0000 </r>
       <r>   -14.6220    -0.0000     2.0000 </r>
       <r>   -14.5170    -0.0000     2.0000 </r>
       <r>   -14.4120    -0.0000     2.0000 </r>
       <r>   -14.3070    -0.0000     2.0000 </r>
       <r>   -14.2020    -0.0000     2.0000 </r>
       <r>   -14.0970    -0.0013     1.9999 </r>
       <r>   -13.9919    -0.1454     1.9846 </r>
       <r>   -13.8869    -0.2464     1.9587 </r>
       <r>   -13.7819    11.3404     3.1497 </r>
       <r>   -13.6769     8.7483     4.0684 </r>
       <r>   -13.5719    -0.5722     4.0083 </r>
       <r>   -13.4669    -0.0784     4.0000 </r>
       <r>   -13.3618    -0.0004     4.0000 </r>
       <r>   -13.2568    -0.0000     4.0000 </r>
       <r>   -13.1518    -0.0000     4.0000 </r>
       <r>   -13.0468     0.0000     4.0000 </r>
       <r>   -12.9418     0.0000     4.0000 </r>
       <r>   -12.8368     0.0000     4.0000 </r>
       <r>   -12.7317     0.0000     4.0000 </r>
       <r>   -12.6267     0.0000     4.0000 </r>
       <r>   -12.5217     0.0000     4.0000 </r>
       <r>   -12.4167     0.0000     4.0000 </r>
       <r>   -12.3117     0.0000     4.0000 </r>
       <r>   -12.2067    -0.0000     4.0000 </r>
       <r>   -12.1016    -0.0000     4.0000 </r>
       <r>   -11.9966    -0.0000     4.0000 </r>
       <r>   -11.8916    -0.0000     4.0000 </r>
       <r>   -11.7866    -0.0000     4.0000 </r>
       <r>   -11.6816    -0.0000     4.0000 </r>
       <r>   -11.5766    -0.0070     3.9993 </r>
       <r>   -11.4715    -0.3538     3.9621 </r>
       <r>   -11.3665     1.5446     4.1243 </r>
       <r>   -11.2615    13.9976     5.5943 </r>
       <r>   -11.1565     5.6650     6.1892 </r>
       <r>   -11.0515    13.7405     7.6322 </r>
       <r>   -10.9465     3.4822     7.9979 </r>
       <r>   -10.8415     9.4260     8.9878 </r>
       <r>   -10.7364    10.1898    10.0579 </r>
       <r>   -10.6314    -0.4391    10.0118 </r>
       <r>   -10.5264    -0.1112    10.0001 </r>
       <r>   -10.4214    -0.0328     9.9966 </r>
       <r>   -10.3164    -0.5965     9.9340 </r>
       <r>   -10.2114     5.3590    10.4968 </r>
       <r>   -10.1063    13.7797    11.9439 </r>
       <r>   -10.0013     0.8193    12.0299 </r>
       <r>    -9.8963    -0.2805    12.0005 </r>
       <r>    -9.7913    -0.0043    12.0000 </r>
       <r>    -9.6863    -0.0000    12.0000 </r>
       <r>    -9.5813    -0.0000    12.0000 </r>
       <r>    -9.4762    -0.0000    12.0000 </r>
       <r>    -9.3712    -0.0000    12.0000 </r>
       <r>    -9.2662    -0.0000    12.0000 </r>
       <r>    -9.1612    -0.0000    12.0000 </r>
       <r>    -9.0562    -0.0000    12.0000 </r>
       <r>    -8.9512    -0.0000    12.0000 </r>
       <r>    -8.8461    -0.0005    11.9999 </r>
       <r>    -8.7411    -0.0890    11.9906 </r>
       <r>    -8.6361    -0.5361    11.9343 </r>
       <r>    -8.5311     9.2729    12.9081 </r>
       <r>    -8.4261    10.7689    14.0390 </r>
       <r>    -8.3211    -0.8388    13.9509 </r>
       <r>    -8.2160     9.5511    14.9539 </r>
       <r>    -8.1110    10.4806    16.0546 </r>
       <r>    -8.0060    -0.5284    15.9991 </r>
       <r>    -7.9010    -0.4736    15.9494 </r>
       <r>    -7.7960    10.7693    17.0803 </r>
       <r>    -7.6910     9.0390    18.0296 </r>
       <r>    -7.5859    -0.1908    18.0095 </r>
       <r>    -7.4809    18.2335    19.9243 </r>
       <r>    -7.3759    31.2150    23.2024 </r>
       <r>    -7.2709    15.5936    24.8400 </r>
       <r>    -7.1659    18.3167    26.7636 </r>
       <r>    -7.0609    12.5584    28.0824 </r>
       <r>    -6.9558    23.6093    30.5618 </r>
       <r>    -6.8508    24.0619    33.0887 </r>
       <r>    -6.7458    29.9883    36.2379 </r>
       <r>    -6.6408    34.5231    39.8634 </r>
       <r>    -6.5358    46.0130    44.6955 </r>
       <r>    -6.4308    48.4901    49.7878 </r>
       <r>    -6.3257    35.4658    53.5123 </r>
       <r>    -6.2207    32.3738    56.9120 </r>
       <r>    -6.1157    43.8551    61.5175 </r>
       <r>    -6.0107    45.3561    66.2807 </r>
       <r>    -5.9057    24.0394    68.8052 </r>
       <r>    -5.8007    30.3435    71.9918 </r>
       <r>    -5.6956    41.6646    76.3672 </r>
       <r>    -5.5906    38.9601    80.4587 </r>
       <r>    -5.4856    46.5244    85.3445 </r>
       <r>    -5.3806    63.7504    92.0393 </r>
       <r>    -5.2756    73.6345    99.7722 </r>
       <r>    -5.1706    96.3716   109.8928 </r>
       <r>    -5.0656    82.0395   118.5082 </r>
       <r>    -4.9605    70.2823   125.8890 </r>
       <r>    -4.8555    78.3881   134.1211 </r>
       <r>    -4.7505    76.4298   142.1475 </r>
       <r>    -4.6455    34.5796   145.7789 </r>
       <r>    -4.5405    11.2622   146.9616 </r>
       <r>    -4.4355    10.3457   148.0481 </r>
       <r>    -4.3304    -0.3681   148.0094 </r>
       <r>    -4.2254    -1.2359   147.8796 </r>
       <r>    -4.1204     8.7987   148.8036 </r>
       <r>    -4.0154    28.3027   151.7759 </r>
       <r>    -3.9104     2.8219   152.0722 </r>
       <r>    -3.8054    -0.6745   152.0014 </r>
       <r>    -3.7003    -0.0133   152.0000 </r>
       <r>    -3.5953    -0.0005   151.9999 </r>
       <r>    -3.4903    -0.0847   151.9911 </r>
       <r>    -3.3853    -0.5517   151.9331 </r>
       <r>    -3.2803     9.0627   152.8849 </r>
       <r>    -3.1753    10.7761   154.0165 </r>
       <r>    -3.0702     0.4936   154.0684 </r>
       <r>    -2.9652    13.1514   155.4495 </r>
       <r>    -2.8602     8.5610   156.3485 </r>
       <r>    -2.7552    13.7905   157.7967 </r>
       <r>    -2.6502     2.1789   158.0256 </r>
       <r>    -2.5452    11.8568   159.2707 </r>
       <r>    -2.4401     7.4421   160.0523 </r>
       <r>    -2.3351    -0.6613   159.9828 </r>
       <r>    -2.2301    12.0454   161.2478 </r>
       <r>    -2.1251     7.6868   162.0550 </r>
       <r>    -2.0201    -1.0462   161.9451 </r>
       <r>    -1.9151    11.2497   163.1265 </r>
       <r>    -1.8100    20.8147   165.3124 </r>
       <r>    -1.7050    17.4046   167.1402 </r>
       <r>    -1.6000     8.8515   168.0698 </r>
       <r>    -1.4950    -0.5698   168.0099 </r>
       <r>    -1.3900    -0.2550   167.9831 </r>
       <r>    -1.2850    -0.1552   167.9668 </r>
       <r>    -1.1799    11.6398   169.1892 </r>
       <r>    -1.0749     7.7497   170.0031 </r>
       <r>    -0.9699     8.2657   170.8711 </r>
       <r>    -0.8649    12.2507   172.1576 </r>
       <r>    -0.7599    13.3613   173.5608 </r>
       <r>    -0.6549    11.7973   174.7997 </r>
       <r>    -0.5498    11.4810   176.0054 </r>
       <r>    -0.4448    -0.1736   175.9871 </r>
       <r>    -0.3398    11.1437   177.1574 </r>
       <r>    -0.2348    13.7599   178.6024 </r>
       <r>    -0.1298    12.3262   179.8969 </r>
       <r>    -0.0248     7.3270   180.6663 </r>
       <r>     0.0803    12.4028   181.9688 </r>
       <r>     0.1853    12.0027   183.2293 </r>
       <r>     0.2903     8.0083   184.0703 </r>
       <r>     0.3953    -0.6002   184.0073 </r>
       <r>     0.5003    -0.0689   184.0000 </r>
       <r>     0.6053    -0.0004   184.0000 </r>
       <r>     0.7104    -0.0000   184.0000 </r>
       <r>     0.8154    -0.0000   184.0000 </r>
       <r>     0.9204     0.0000   184.0000 </r>
       <r>     1.0254     0.0000   184.0000 </r>
       <r>     1.1304     0.0000   184.0000 </r>
       <r>     1.2354     0.0000   184.0000 </r>
       <r>     1.3404     0.0000   184.0000 </r>
       <r>     1.4455     0.0000   184.0000 </r>
       <r>     1.5505     0.0000   184.0000 </r>
       <r>     1.6555     0.0000   184.0000 </r>
      </set>
     </set>
    </array>
   </total>
  </dos>
 </calculation>
 <structure name="finalpos" >
  <crystal>
   <varray name="basis" >
    <v>      15.00000000       0.00000000       0.00000000 </v>
    <v>       0.00000000      15.00000000       0.00000000 </v>
    <v>       0.00000000       0.00000000      15.00000000 </v>
   </varray>
   <i name="volume">   3375.00000000 </i>
   <varray name="rec_basis" >
    <v>       0.06666667       0.00000000       0.00000000 </v>
    <v>       0.00000000       0.06666667       0.00000000 </v>
    <v>       0.00000000       0.00000000       0.06666667 </v>
   </varray>
  </crystal>
  <varray name="positions" >
   <v>       0.29453267       0.40960400       0.55574600 </v>
   <v>       0.36362267       0.54475600       0.49107867 </v>
   <v>       0.41123933       0.29201467       0.55702733 </v>
   <v>       0.52093333       0.52100333       0.47464600 </v>
   <v>       0.56228467       0.35966667       0.51768267 </v>
   <v>       0.44885267       0.43980667       0.60340267 </v>
   <v>       0.41908533       0.40127200       0.43787467 </v>
   <v>       0.22266333       0.56461267       0.56164400 </v>
   <v>       0.33920333       0.53766533       0.66207400 </v>
   <v>       0.36244400       0.68641333       0.59553800 </v>
   <v>       0.47109467       0.66271133       0.47809067 </v>
   <v>       0.61817000       0.47643333       0.61065267 </v>
   <v>       0.48487533       0.58586133       0.61853800 </v>
   <v>       0.73575333       0.50115267       0.63450000 </v>
   <v>       0.81182000       0.50728400       0.62257133 </v>
  </varray>
 </structure>
</modeling>
