<?xml version="1.0" encoding="ISO-8859-1"?>
<modeling>
 <generator>
  <i name="program" type="string">vasp </i>
  <i name="version" type="string">5.4.4.18Apr17-6-g9f103f2a35  </i>
  <i name="subversion" type="string">(build May 08 2019 13:49:07) complex            parallel </i>
  <i name="platform" type="string">LinuxIFC </i>
  <i name="date" type="string">2019 11 13 </i>
  <i name="time" type="string">11:34:17 </i>
 </generator>
 <incar>
  <i type="string" name="SYSTEM"> CuCO</i>
  <i type="int" name="ISTART">     0</i>
  <i type="string" name="PREC">accurate</i>
  <i type="string" name="ALGO"> Fast</i>
  <i type="int" name="ISPIN">     2</i>
  <i type="int" name="INIWAV">     1</i>
  <i type="int" name="NELM">   300</i>
  <i type="int" name="NELMIN">     3</i>
  <i type="int" name="IBRION">    -1</i>
  <i name="EDIFF">      0.00000010</i>
  <i name="EDIFFG">     -0.00100000</i>
  <i type="int" name="NSW">     0</i>
  <i type="int" name="ISYM">     0</i>
  <i name="ENCUT">    600.00000000</i>
  <i name="NUPDOWN">      1.00000000</i>
  <i type="logical" name="LREAL"> F  </i>
  <i type="int" name="ISMEAR">     1</i>
  <i name="SIGMA">      0.10000000</i>
  <i name="KSPACING">      0.50000000</i>
  <i type="logical" name="KGAMMA"> F  </i>
  <i type="logical" name="LWAVE"> F  </i>
  <i type="logical" name="LCHARG"> F  </i>
  <v type="int" name="KPOINT_BSE">    -1     0     0     0</v>
  <i type="int" name="NELM">   300</i>
  <i type="string" name="GGA"> PE</i>
 </incar>
 <structure name="primitive_cell" >
  <crystal>
   <varray name="basis" >
    <v>      15.00000000       0.00000000       0.00000000 </v>
    <v>       0.00000000      15.00000000       0.00000000 </v>
    <v>       0.00000000       0.00000000      15.00000000 </v>
   </varray>
   <i name="volume">   3375.00000000 </i>
   <varray name="rec_basis" >
    <v>       0.06666667       0.00000000       0.00000000 </v>
    <v>       0.00000000       0.06666667       0.00000000 </v>
    <v>       0.00000000       0.00000000       0.06666667 </v>
   </varray>
  </crystal>
  <varray name="positions" >
   <v>       0.29016467       0.41547067      -0.44366133 </v>
   <v>       0.39350067       0.29070400      -0.44142267 </v>
   <v>       0.44533933       0.43437533      -0.38792733 </v>
   <v>       0.22362133      -0.43066533      -0.45246600 </v>
   <v>       0.37616733      -0.45390333       0.49039867 </v>
   <v>       0.42075467       0.39817000       0.44563333 </v>
   <v>       0.33360267      -0.45275867      -0.33822000 </v>
   <v>      -0.45366400       0.34828800      -0.46551733 </v>
   <v>       0.48173600      -0.41004933      -0.38046933 </v>
   <v>      -0.46450733      -0.49382133       0.47927933 </v>
   <v>       0.35122267      -0.31553333      -0.43014867 </v>
   <v>       0.48699667      -0.33412533       0.47259000 </v>
   <v>      -0.36924267       0.48738200      -0.39794667 </v>
   <v>      -0.25702000      -0.49825800      -0.34678133 </v>
   <v>      -0.18046000      -0.49994067      -0.33638867 </v>
  </varray>
 </structure>
 <varray name="primitive_index" >
  <v type="int" >        1 </v>
  <v type="int" >        3 </v>
  <v type="int" >        6 </v>
  <v type="int" >        8 </v>
  <v type="int" >        2 </v>
  <v type="int" >        7 </v>
  <v type="int" >        9 </v>
  <v type="int" >        5 </v>
  <v type="int" >       13 </v>
  <v type="int" >        4 </v>
  <v type="int" >       10 </v>
  <v type="int" >       11 </v>
  <v type="int" >       12 </v>
  <v type="int" >       14 </v>
  <v type="int" >       15 </v>
 </varray>
 <kpoints>
  <generation param="Monkhorst-Pack">
   <v type="int" name="divisions">       1        1        1 </v>
   <v name="usershift">      0.00000000       0.00000000       0.00000000 </v>
   <v name="genvec1">      1.00000000       0.00000000       0.00000000 </v>
   <v name="genvec2">      0.00000000       1.00000000       0.00000000 </v>
   <v name="genvec3">      0.00000000       0.00000000       1.00000000 </v>
   <v name="shift">      0.00000000       0.00000000       0.00000000 </v>
  </generation>
  <varray name="kpointlist" >
   <v>       0.00000000       0.00000000       0.00000000 </v>
  </varray>
  <varray name="weights" >
   <v>       1.00000000 </v>
  </varray>
 </kpoints>
 <parameters>
  <separator name="general" >
   <i type="string" name="SYSTEM">CuCO</i>
   <i type="logical" name="LCOMPAT"> F  </i>
  </separator>
  <separator name="electronic" >
   <i type="string" name="PREC">accura</i>
   <i name="ENMAX">    600.00000000</i>
   <i name="ENAUG">    644.87300000</i>
   <i name="EDIFF">      0.00000010</i>
   <i type="int" name="IALGO">    68</i>
   <i type="int" name="IWAVPR">    10</i>
   <i type="int" name="NBANDS">    92</i>
   <i name="NELECT">    153.00000000</i>
   <i type="int" name="TURBO">     0</i>
   <i type="int" name="IRESTART">     0</i>
   <i type="int" name="NREBOOT">     0</i>
   <i type="int" name="NMIN">     0</i>
   <i name="EREF">      0.00000000</i>
   <separator name="electronic smearing" >
    <i type="int" name="ISMEAR">     1</i>
    <i name="SIGMA">      0.10000000</i>
    <i name="KSPACING">      0.50000000</i>
    <i type="logical" name="KGAMMA"> F  </i>
   </separator>
   <separator name="electronic projectors" >
    <i type="logical" name="LREAL"> F  </i>
    <v name="ROPT">      0.00000000      0.00000000      0.00000000</v>
    <i type="int" name="LMAXPAW">  -100</i>
    <i type="int" name="LMAXMIX">     2</i>
    <i type="logical" name="NLSPLINE"> F  </i>
   </separator>
   <separator name="electronic startup" >
    <i type="int" name="ISTART">     0</i>
    <i type="int" name="ICHARG">     2</i>
    <i type="int" name="INIWAV">     1</i>
   </separator>
   <separator name="electronic spin" >
    <i type="int" name="ISPIN">     2</i>
    <i type="logical" name="LNONCOLLINEAR"> F  </i>
    <v name="MAGMOM">      0.06666667      0.06666667      0.06666667      0.06666667      0.06666667      0.06666667      0.06666667      0.06666667      0.06666667      0.06666667      0.06666667      0.06666667      0.06666667      0.06666667      0.06666667</v>
    <i name="NUPDOWN">      1.00000000</i>
    <i type="logical" name="LSORBIT"> F  </i>
    <v name="SAXIS">      0.00000000      0.00000000      1.00000000</v>
    <i type="logical" name="LSPIRAL"> F  </i>
    <v name="QSPIRAL">      0.00000000      0.00000000      0.00000000</v>
    <i type="logical" name="LZEROZ"> F  </i>
   </separator>
   <separator name="electronic exchange-correlation" >
    <i type="logical" name="LASPH"> F  </i>
    <i type="logical" name="LMETAGGA"> F  </i>
   </separator>
   <separator name="electronic convergence" >
    <i type="int" name="NELM">   300</i>
    <i type="int" name="NELMDL">    -5</i>
    <i type="int" name="NELMIN">     3</i>
    <i name="ENINI">    600.00000000</i>
    <separator name="electronic convergence detail" >
     <i type="logical" name="LDIAG"> T  </i>
     <i type="logical" name="LSUBROT"> F  </i>
     <i name="WEIMIN">      0.00000000</i>
     <i name="EBREAK">      0.00000000</i>
     <i name="DEPER">      0.30000000</i>
     <i type="int" name="NRMM">     4</i>
     <i name="TIME">      0.40000000</i>
    </separator>
   </separator>
   <separator name="electronic mixer" >
    <i name="AMIX">      0.40000000</i>
    <i name="BMIX">      1.00000000</i>
    <i name="AMIN">      0.10000000</i>
    <i name="AMIX_MAG">      1.60000000</i>
    <i name="BMIX_MAG">      1.00000000</i>
    <separator name="electronic mixer details" >
     <i type="int" name="IMIX">     4</i>
     <i type="logical" name="MIXFIRST"> F  </i>
     <i type="int" name="MAXMIX">   -45</i>
     <i name="WC">    100.00000000</i>
     <i type="int" name="INIMIX">     1</i>
     <i type="int" name="MIXPRE">     1</i>
     <i type="int" name="MREMOVE">     5</i>
    </separator>
   </separator>
   <separator name="electronic dipolcorrection" >
    <i type="logical" name="LDIPOL"> F  </i>
    <i type="logical" name="LMONO"> F  </i>
    <i type="int" name="IDIPOL">     0</i>
    <i name="EPSILON">      1.00000000</i>
    <v name="DIPOL">   -100.00000000   -100.00000000   -100.00000000</v>
    <i name="EFIELD">      0.00000000</i>
   </separator>
  </separator>
  <separator name="grids" >
   <i type="int" name="NGX">   120</i>
   <i type="int" name="NGY">   120</i>
   <i type="int" name="NGZ">   120</i>
   <i type="int" name="NGXF">   240</i>
   <i type="int" name="NGYF">   240</i>
   <i type="int" name="NGZF">   240</i>
   <i type="logical" name="ADDGRID"> F  </i>
  </separator>
  <separator name="ionic" >
   <i type="int" name="NSW">     0</i>
   <i type="int" name="IBRION">    -1</i>
   <i type="int" name="MDALGO">     0</i>
   <i type="int" name="ISIF">     2</i>
   <i name="PSTRESS">      0.00000000</i>
   <i name="EDIFFG">     -0.00100000</i>
   <i type="int" name="NFREE">     0</i>
   <i name="POTIM">      0.50000000</i>
   <i name="SMASS">     -3.00000000</i>
   <i name="SCALEE">      1.00000000</i>
  </separator>
  <separator name="ionic md" >
   <i name="TEBEG">      0.00010000</i>
   <i name="TEEND">      0.00010000</i>
   <i type="int" name="NBLOCK">     1</i>
   <i type="int" name="KBLOCK">     1</i>
   <i type="int" name="NPACO">   256</i>
   <i name="APACO">     16.00000000</i>
  </separator>
  <separator name="symmetry" >
   <i type="int" name="ISYM">     0</i>
   <i name="SYMPREC">      0.00001000</i>
  </separator>
  <separator name="dos" >
   <i type="int" name="LORBIT">     0</i>
   <v name="RWIGS">     -1.00000000     -1.00000000     -1.00000000</v>
   <i type="int" name="NEDOS">   301</i>
   <i name="EMIN">     10.00000000</i>
   <i name="EMAX">    -10.00000000</i>
   <i name="EFERMI">      0.00000000</i>
  </separator>
  <separator name="writing" >
   <i type="int" name="NWRITE">     2</i>
   <i type="logical" name="LWAVE"> F  </i>
   <i type="logical" name="LDOWNSAMPLE"> F  </i>
   <i type="logical" name="LCHARG"> F  </i>
   <i type="logical" name="LPARD"> F  </i>
   <i type="logical" name="LVTOT"> F  </i>
   <i type="logical" name="LVHAR"> F  </i>
   <i type="logical" name="LELF"> F  </i>
   <i type="logical" name="LOPTICS"> F  </i>
   <v name="STM">      0.00000000      0.00000000      0.00000000      0.00000000      0.00000000      0.00000000      0.00000000</v>
  </separator>
  <separator name="performance" >
   <i type="int" name="NPAR">     4</i>
   <i type="int" name="NSIM">     4</i>
   <i type="int" name="NBLK">    -1</i>
   <i type="logical" name="LPLANE"> T  </i>
   <i type="logical" name="LSCALAPACK"> T  </i>
   <i type="logical" name="LSCAAWARE"> F  </i>
   <i type="logical" name="LSCALU"> F  </i>
   <i type="logical" name="LASYNC"> F  </i>
   <i type="logical" name="LORBITALREAL"> F  </i>
  </separator>
  <separator name="miscellaneous" >
   <i type="int" name="IDIOT">     3</i>
   <i type="int" name="ISPECIAL">     0</i>
   <i type="logical" name="LMUSIC"> F  </i>
   <v name="POMASS">     63.54600000     12.01100000     16.00000000</v>
   <v name="DARWINR">      0.00000000      0.00000000      0.00000000</v>
   <v name="DARWINV">      1.00000000      1.00000000      1.00000000</v>
   <i type="logical" name="LCORR"> T  </i>
  </separator>
  <i type="logical" name="GGA_COMPAT"> T  </i>
  <i type="logical" name="LBERRY"> F  </i>
  <i type="int" name="ICORELEVEL">     0</i>
  <i type="logical" name="LDAU"> F  </i>
  <i type="int" name="I_CONSTRAINED_M">     0</i>
  <separator name="electronic exchange-correlation" >
   <i type="string" name="GGA">PE</i>
   <i type="int" name="VOSKOWN">     0</i>
   <i type="logical" name="LHFCALC"> F  </i>
   <i type="string" name="PRECFOCK"></i>
   <i type="logical" name="LSYMGRAD"> F  </i>
   <i type="logical" name="LHFONE"> F  </i>
   <i type="logical" name="LRHFCALC"> F  </i>
   <i type="logical" name="LTHOMAS"> F  </i>
   <i type="logical" name="LMODELHF"> F  </i>
   <i name="ENCUT4O">     -1.00000000</i>
   <i type="int" name="EXXOEP">     0</i>
   <i type="int" name="FOURORBIT">     0</i>
   <i name="AEXX">      0.00000000</i>
   <i name="HFALPHA">      0.00000000</i>
   <i name="MCALPHA">      0.00000000</i>
   <i name="ALDAX">      1.00000000</i>
   <i name="AGGAX">      1.00000000</i>
   <i name="ALDAC">      1.00000000</i>
   <i name="AGGAC">      1.00000000</i>
   <i type="int" name="NKREDX">     1</i>
   <i type="int" name="NKREDY">     1</i>
   <i type="int" name="NKREDZ">     1</i>
   <i type="logical" name="SHIFTRED"> F  </i>
   <i type="logical" name="ODDONLY"> F  </i>
   <i type="logical" name="EVENONLY"> F  </i>
   <i type="int" name="LMAXFOCK">     0</i>
   <i type="int" name="NMAXFOCKAE">     0</i>
   <i type="logical" name="LFOCKAEDFT"> F  </i>
   <i name="HFSCREEN">      0.00000000</i>
   <i name="HFSCREENC">      0.00000000</i>
   <i type="int" name="NBANDSGWLOW">     0</i>
  </separator>
  <separator name="vdW DFT" >
   <i type="logical" name="LUSE_VDW"> F  </i>
   <i name="Zab_VDW">     -0.84910000</i>
   <i name="PARAM1">      0.12340000</i>
   <i name="PARAM2">      1.00000000</i>
   <i name="PARAM3">      0.00000000</i>
  </separator>
  <separator name="model GW" >
   <i type="int" name="MODEL_GW">     0</i>
   <i name="MODEL_EPS0">    135.00000000</i>
   <i name="MODEL_ALPHA">      1.00000000</i>
  </separator>
  <separator name="linear response parameters" >
   <i type="logical" name="LEPSILON"> F  </i>
   <i type="logical" name="LRPA"> F  </i>
   <i type="logical" name="LNABLA"> F  </i>
   <i type="logical" name="LVEL"> F  </i>
   <i type="int" name="KINTER">     0</i>
   <i name="CSHIFT">      0.10000000</i>
   <i name="OMEGAMAX">     -1.00000000</i>
   <i name="DEG_THRESHOLD">      0.00200000</i>
   <i name="RTIME">     -0.10000000</i>
   <i name="WPLASMAI">      0.00000000</i>
   <v name="DFIELD">      0.00000000      0.00000000      0.00000000</v>
   <v name="WPLASMA">      0.00000000      0.00000000      0.00000000      0.00000000      0.00000000      0.00000000      0.00000000      0.00000000      0.00000000</v>
  </separator>
  <separator name="orbital magnetization" >
   <i type="logical" name="NUCIND"> F  </i>
   <v name="MAGPOS">      0.00000000      0.00000000      0.00000000</v>
   <i type="logical" name="LNICSALL"> T  </i>
   <i type="logical" name="ORBITALMAG"> F  </i>
   <i type="logical" name="LMAGBLOCH"> F  </i>
   <i type="logical" name="LCHIMAG"> F  </i>
   <i type="logical" name="LGAUGE"> T  </i>
   <i type="int" name="MAGATOM">     0</i>
   <v name="MAGDIPOL">      0.00000000      0.00000000      0.00000000</v>
   <v name="AVECCONST">      0.00000000      0.00000000      0.00000000</v>
  </separator>
  <separator name="response functions" >
   <i type="logical" name="LADDER"> F  </i>
   <i type="logical" name="LRPAFORCE"> F  </i>
   <i type="logical" name="LFXC"> F  </i>
   <i type="logical" name="LHARTREE"> T  </i>
   <i type="int" name="IBSE">     0</i>
   <v type="int" name="KPOINT">    -1     0     0     0</v>
   <i type="logical" name="LTCTE"> F  </i>
   <i type="logical" name="LTETE"> F  </i>
   <i type="logical" name="LTRIPLET"> F  </i>
   <i type="logical" name="LFXCEPS"> F  </i>
   <i type="logical" name="LFXHEG"> F  </i>
   <i type="int" name="NATURALO">     2</i>
   <i type="logical" name="L2ORDER"> F  </i>
   <i type="logical" name="LMP2LT"> F  </i>
   <i type="logical" name="LUSEW"> F  </i>
   <i name="ENCUTGW">     -2.00000000</i>
   <i name="ENCUTGWSOFT">     -2.00000000</i>
   <i name="ENCUTLF">     -1.00000000</i>
   <i type="int" name="LMAXMP2">    -1</i>
   <i name="SCISSOR">      0.00000000</i>
   <i type="int" name="NOMEGA">     0</i>
   <i type="int" name="NOMEGAR">     0</i>
   <i type="int" name="NBANDSGW">    -1</i>
   <i type="int" name="NBANDSO">    -1</i>
   <i type="int" name="NBANDSV">    -1</i>
   <i type="int" name="NELM">   300</i>
   <i type="int" name="NELMHF">     1</i>
   <i type="int" name="DIM">     3</i>
   <i type="int" name="ANTIRES">     0</i>
   <i name="OMEGAMAX">    -30.00000000</i>
   <i name="OMEGAMIN">    -30.00000000</i>
   <i name="OMEGATL">   -200.00000000</i>
   <i type="int" name="OMEGAGRID">   140</i>
   <i name="CSHIFT">     -0.10000000</i>
   <i type="logical" name="SELFENERGY"> F  </i>
   <i type="logical" name="LSPECTRAL"> F  </i>
   <i type="logical" name="LSPECTRALGW"> F  </i>
   <i type="logical" name="LSINGLES"> F  </i>
   <i type="logical" name="LFERMIGW"> F  </i>
   <i type="logical" name="ODDONLYGW"> F  </i>
   <i type="logical" name="EVENONLYGW"> F  </i>
   <i type="int" name="NKREDLFX">     1</i>
   <i type="int" name="NKREDLFY">     1</i>
   <i type="int" name="NKREDLFZ">     1</i>
   <i type="int" name="MAXMEM">  2800</i>
   <i type="int" name="TELESCOPE">     0</i>
   <i type="int" name="TAUPAR">     1</i>
   <i type="int" name="OMEGAPAR">    -1</i>
   <i name="LAMBDA">      1.00000000</i>
  </separator>
  <separator name="External order field" >
   <i name="OFIELD_KAPPA">      0.00000000</i>
   <v name="OFIELD_K">      0.00000000      0.00000000      0.00000000</v>
   <i name="OFIELD_Q6_NEAR">      0.00000000</i>
   <i name="OFIELD_Q6_FAR">      0.00000000</i>
   <i name="OFIELD_A">      0.00000000</i>
  </separator>
 </parameters>
 <atominfo>
  <atoms>      15 </atoms>
  <types>       3 </types>
  <array name="atoms" >
   <dimension dim="1">ion</dimension>
   <field type="string">element</field>
   <field type="int">atomtype</field>
   <set>
    <rc><c>Cu</c><c>   1</c></rc>
    <rc><c>Cu</c><c>   1</c></rc>
    <rc><c>Cu</c><c>   1</c></rc>
    <rc><c>Cu</c><c>   1</c></rc>
    <rc><c>Cu</c><c>   1</c></rc>
    <rc><c>Cu</c><c>   1</c></rc>
    <rc><c>Cu</c><c>   1</c></rc>
    <rc><c>Cu</c><c>   1</c></rc>
    <rc><c>Cu</c><c>   1</c></rc>
    <rc><c>Cu</c><c>   1</c></rc>
    <rc><c>Cu</c><c>   1</c></rc>
    <rc><c>Cu</c><c>   1</c></rc>
    <rc><c>Cu</c><c>   1</c></rc>
    <rc><c>C </c><c>   2</c></rc>
    <rc><c>O </c><c>   3</c></rc>
   </set>
  </array>
  <array name="atomtypes" >
   <dimension dim="1">type</dimension>
   <field type="int">atomspertype</field>
   <field type="string">element</field>
   <field>mass</field>
   <field>valence</field>
   <field type="string">pseudopotential</field>
   <set>
    <rc><c>  13</c><c>Cu</c><c>     63.54600000</c><c>     11.00000000</c><c>  PAW_PBE Cu 22Jun2005                  </c></rc>
    <rc><c>   1</c><c>C </c><c>     12.01100000</c><c>      4.00000000</c><c>  PAW_PBE C 08Apr2002                   </c></rc>
    <rc><c>   1</c><c>O </c><c>     16.00000000</c><c>      6.00000000</c><c>  PAW_PBE O 08Apr2002                   </c></rc>
   </set>
  </array>
 </atominfo>
 <structure name="initialpos" >
  <crystal>
   <varray name="basis" >
    <v>      15.00000000       0.00000000       0.00000000 </v>
    <v>       0.00000000      15.00000000       0.00000000 </v>
    <v>       0.00000000       0.00000000      15.00000000 </v>
   </varray>
   <i name="volume">   3375.00000000 </i>
   <varray name="rec_basis" >
    <v>       0.06666667       0.00000000       0.00000000 </v>
    <v>       0.00000000       0.06666667       0.00000000 </v>
    <v>       0.00000000       0.00000000       0.06666667 </v>
   </varray>
  </crystal>
  <varray name="positions" >
   <v>       0.29016467       0.41547067       0.55633867 </v>
   <v>       0.37616733       0.54609667       0.49039867 </v>
   <v>       0.39350067       0.29070400       0.55857733 </v>
   <v>       0.53549267       0.50617867       0.47927933 </v>
   <v>       0.54633600       0.34828800       0.53448267 </v>
   <v>       0.44533933       0.43437533       0.61207267 </v>
   <v>       0.42075467       0.39817000       0.44563333 </v>
   <v>       0.22362133       0.56933467       0.54753400 </v>
   <v>       0.33360267       0.54724133       0.66178000 </v>
   <v>       0.35122267       0.68446667       0.56985133 </v>
   <v>       0.48699667       0.66587467       0.47259000 </v>
   <v>       0.63075733       0.48738200       0.60205333 </v>
   <v>       0.48173600       0.58995067       0.61953067 </v>
   <v>       0.74298000       0.50174200       0.65321867 </v>
   <v>       0.81954000       0.50005933       0.66361133 </v>
  </varray>
 </structure>
 <calculation>
  <scstep>
   <time name="dav">    7.52    7.53</time>
   <time name="total">    8.72    8.73</time>
   <energy>
    <i name="alphaZ">     41.16232785 </i>
    <i name="ewald">  16014.53771337 </i>
    <i name="hartreedc"> -33043.83759673 </i>
    <i name="XCdc">    622.96261960 </i>
    <i name="pawpsdc">  16421.75059358 </i>
    <i name="pawaedc"> -17800.06104309 </i>
    <i name="eentropy">     -0.00450840 </i>
    <i name="bandstr">    197.10302861 </i>
    <i name="atom">  18662.21924712 </i>
    <i name="e_fr_energy">   1115.83238190 </i>
    <i name="e_wo_entrp">   1115.83689030 </i>
    <i name="e_0_energy">   1115.83388470 </i>
   </energy>
  </scstep>
  <scstep>
   <time name="dav">    7.39    7.39</time>
   <time name="total">    7.39    7.40</time>
   <energy>
    <i name="e_fr_energy">     88.84113763 </i>
    <i name="e_wo_entrp">     88.83012883 </i>
    <i name="e_0_energy">     88.83746803 </i>
   </energy>
  </scstep>
  <scstep>
   <time name="dav">   11.57   11.58</time>
   <time name="total">   11.57   11.58</time>
   <energy>
    <i name="e_fr_energy">    -33.81873883 </i>
    <i name="e_wo_entrp">    -33.82669783 </i>
    <i name="e_0_energy">    -33.82139183 </i>
   </energy>
  </scstep>
  <scstep>
   <time name="dav">   10.15   10.15</time>
   <time name="total">   10.15   10.15</time>
   <energy>
    <i name="e_fr_energy">    -55.45990688 </i>
    <i name="e_wo_entrp">    -55.46927930 </i>
    <i name="e_0_energy">    -55.46303102 </i>
   </energy>
  </scstep>
  <scstep>
   <time name="dav">   12.42   12.43</time>
   <time name="total">   13.13   13.14</time>
   <energy>
    <i name="e_fr_energy">    -57.05627417 </i>
    <i name="e_wo_entrp">    -57.06576105 </i>
    <i name="e_0_energy">    -57.05943646 </i>
   </energy>
  </scstep>
  <scstep>
   <time name="diag">    1.09    1.09</time>
   <time name="diis">    6.99    6.99</time>
   <time name="orth">    0.06    0.06</time>
   <time name="total">   10.02   10.02</time>
   <energy>
    <i name="e_fr_energy">    -56.27114950 </i>
    <i name="e_wo_entrp">    -56.27908347 </i>
    <i name="e_0_energy">    -56.27379416 </i>
   </energy>
  </scstep>
  <scstep>
   <time name="diag">    1.09    1.09</time>
   <time name="diis">    6.86    6.87</time>
   <time name="orth">    0.06    0.06</time>
   <time name="total">    9.89    9.90</time>
   <energy>
    <i name="e_fr_energy">    -49.21219247 </i>
    <i name="e_wo_entrp">    -49.22090743 </i>
    <i name="e_0_energy">    -49.21509746 </i>
   </energy>
  </scstep>
  <scstep>
   <time name="diag">    1.09    1.09</time>
   <time name="diis">    7.24    7.25</time>
   <time name="orth">    0.06    0.06</time>
   <time name="total">   10.29   10.31</time>
   <energy>
    <i name="e_fr_energy">    -48.96416646 </i>
    <i name="e_wo_entrp">    -48.97322414 </i>
    <i name="e_0_energy">    -48.96718569 </i>
   </energy>
  </scstep>
  <scstep>
   <time name="diag">    1.09    1.09</time>
   <time name="diis">    6.83    6.84</time>
   <time name="orth">    0.06    0.06</time>
   <time name="total">    9.87    9.89</time>
   <energy>
    <i name="e_fr_energy">    -48.91273991 </i>
    <i name="e_wo_entrp">    -48.92197702 </i>
    <i name="e_0_energy">    -48.91581894 </i>
   </energy>
  </scstep>
  <scstep>
   <time name="diag">    1.09    1.09</time>
   <time name="diis">    7.14    7.14</time>
   <time name="orth">    0.06    0.06</time>
   <time name="total">   10.18   10.18</time>
   <energy>
    <i name="e_fr_energy">    -48.85063593 </i>
    <i name="e_wo_entrp">    -48.85971020 </i>
    <i name="e_0_energy">    -48.85366068 </i>
   </energy>
  </scstep>
  <scstep>
   <time name="diag">    1.09    1.09</time>
   <time name="diis">    7.11    7.12</time>
   <time name="orth">    0.06    0.06</time>
   <time name="total">   10.13   10.14</time>
   <energy>
    <i name="e_fr_energy">    -48.84003651 </i>
    <i name="e_wo_entrp">    -48.84926902 </i>
    <i name="e_0_energy">    -48.84311402 </i>
   </energy>
  </scstep>
  <scstep>
   <time name="diag">    1.09    1.09</time>
   <time name="diis">    6.82    6.82</time>
   <time name="orth">    0.06    0.06</time>
   <time name="total">    9.84    9.84</time>
   <energy>
    <i name="e_fr_energy">    -48.83773593 </i>
    <i name="e_wo_entrp">    -48.84687350 </i>
    <i name="e_0_energy">    -48.84078179 </i>
   </energy>
  </scstep>
  <scstep>
   <time name="diag">    1.09    1.09</time>
   <time name="diis">    7.02    7.03</time>
   <time name="orth">    0.06    0.06</time>
   <time name="total">   10.04   10.05</time>
   <energy>
    <i name="e_fr_energy">    -48.83672471 </i>
    <i name="e_wo_entrp">    -48.84589092 </i>
    <i name="e_0_energy">    -48.83978011 </i>
   </energy>
  </scstep>
  <scstep>
   <time name="diag">    1.09    1.09</time>
   <time name="diis">    6.70    6.71</time>
   <time name="orth">    0.06    0.06</time>
   <time name="total">    9.73    9.73</time>
   <energy>
    <i name="e_fr_energy">    -48.83793538 </i>
    <i name="e_wo_entrp">    -48.84710039 </i>
    <i name="e_0_energy">    -48.84099038 </i>
   </energy>
  </scstep>
  <scstep>
   <time name="diag">    1.09    1.09</time>
   <time name="diis">    6.95    6.95</time>
   <time name="orth">    0.06    0.06</time>
   <time name="total">    9.97    9.98</time>
   <energy>
    <i name="e_fr_energy">    -48.83906634 </i>
    <i name="e_wo_entrp">    -48.84822340 </i>
    <i name="e_0_energy">    -48.84211869 </i>
   </energy>
  </scstep>
  <scstep>
   <time name="diag">    1.09    1.09</time>
   <time name="diis">    6.39    6.39</time>
   <time name="orth">    0.06    0.06</time>
   <time name="total">    9.41    9.42</time>
   <energy>
    <i name="e_fr_energy">    -48.84053598 </i>
    <i name="e_wo_entrp">    -48.84970943 </i>
    <i name="e_0_energy">    -48.84359380 </i>
   </energy>
  </scstep>
  <scstep>
   <time name="diag">    1.09    1.09</time>
   <time name="diis">    6.69    6.70</time>
   <time name="orth">    0.06    0.06</time>
   <time name="total">    9.72    9.73</time>
   <energy>
    <i name="e_fr_energy">    -48.84232522 </i>
    <i name="e_wo_entrp">    -48.85149858 </i>
    <i name="e_0_energy">    -48.84538301 </i>
   </energy>
  </scstep>
  <scstep>
   <time name="diag">    1.09    1.09</time>
   <time name="diis">    6.80    6.80</time>
   <time name="orth">    0.06    0.06</time>
   <time name="total">    9.83    9.83</time>
   <energy>
    <i name="e_fr_energy">    -48.84318206 </i>
    <i name="e_wo_entrp">    -48.85235807 </i>
    <i name="e_0_energy">    -48.84624073 </i>
   </energy>
  </scstep>
  <scstep>
   <time name="diag">    1.09    1.09</time>
   <time name="diis">    7.38    7.39</time>
   <time name="orth">    0.06    0.06</time>
   <time name="total">   10.41   10.42</time>
   <energy>
    <i name="e_fr_energy">    -48.84394615 </i>
    <i name="e_wo_entrp">    -48.85311940 </i>
    <i name="e_0_energy">    -48.84700390 </i>
   </energy>
  </scstep>
  <scstep>
   <time name="diag">    1.09    1.09</time>
   <time name="diis">    6.69    6.69</time>
   <time name="orth">    0.06    0.06</time>
   <time name="total">    9.72    9.73</time>
   <energy>
    <i name="e_fr_energy">    -48.84450827 </i>
    <i name="e_wo_entrp">    -48.85368055 </i>
    <i name="e_0_energy">    -48.84756570 </i>
   </energy>
  </scstep>
  <scstep>
   <time name="diag">    1.09    1.09</time>
   <time name="diis">    6.75    6.75</time>
   <time name="orth">    0.06    0.06</time>
   <time name="total">    9.78    9.79</time>
   <energy>
    <i name="e_fr_energy">    -48.84489751 </i>
    <i name="e_wo_entrp">    -48.85406844 </i>
    <i name="e_0_energy">    -48.84795449 </i>
   </energy>
  </scstep>
  <scstep>
   <time name="diag">    1.09    1.09</time>
   <time name="diis">    6.74    6.74</time>
   <time name="orth">    0.06    0.06</time>
   <time name="total">    9.77    9.77</time>
   <energy>
    <i name="e_fr_energy">    -48.84514616 </i>
    <i name="e_wo_entrp">    -48.85431860 </i>
    <i name="e_0_energy">    -48.84820364 </i>
   </energy>
  </scstep>
  <scstep>
   <time name="diag">    1.09    1.09</time>
   <time name="diis">    6.84    6.84</time>
   <time name="orth">    0.06    0.06</time>
   <time name="total">    9.87    9.88</time>
   <energy>
    <i name="e_fr_energy">    -48.84527839 </i>
    <i name="e_wo_entrp">    -48.85445090 </i>
    <i name="e_0_energy">    -48.84833589 </i>
   </energy>
  </scstep>
  <scstep>
   <time name="diag">    1.09    1.09</time>
   <time name="diis">    6.65    6.66</time>
   <time name="orth">    0.06    0.06</time>
   <time name="total">    9.69    9.70</time>
   <energy>
    <i name="e_fr_energy">    -48.84537678 </i>
    <i name="e_wo_entrp">    -48.85454921 </i>
    <i name="e_0_energy">    -48.84843426 </i>
   </energy>
  </scstep>
  <scstep>
   <time name="diag">    1.09    1.09</time>
   <time name="diis">    6.56    6.56</time>
   <time name="orth">    0.06    0.06</time>
   <time name="total">    9.59    9.60</time>
   <energy>
    <i name="e_fr_energy">    -48.84544032 </i>
    <i name="e_wo_entrp">    -48.85461284 </i>
    <i name="e_0_energy">    -48.84849782 </i>
   </energy>
  </scstep>
  <scstep>
   <time name="diag">    1.09    1.09</time>
   <time name="diis">    6.19    6.20</time>
   <time name="orth">    0.06    0.06</time>
   <time name="total">    9.23    9.24</time>
   <energy>
    <i name="e_fr_energy">    -48.84547157 </i>
    <i name="e_wo_entrp">    -48.85464403 </i>
    <i name="e_0_energy">    -48.84852906 </i>
   </energy>
  </scstep>
  <scstep>
   <time name="diag">    1.09    1.09</time>
   <time name="diis">    4.76    4.77</time>
   <time name="orth">    0.06    0.06</time>
   <time name="total">    7.80    7.81</time>
   <energy>
    <i name="e_fr_energy">    -48.84548309 </i>
    <i name="e_wo_entrp">    -48.85465553 </i>
    <i name="e_0_energy">    -48.84854057 </i>
   </energy>
  </scstep>
  <scstep>
   <time name="diag">    1.09    1.09</time>
   <time name="diis">    4.48    4.49</time>
   <time name="orth">    0.06    0.06</time>
   <time name="total">    7.53    7.53</time>
   <energy>
    <i name="e_fr_energy">    -48.84548852 </i>
    <i name="e_wo_entrp">    -48.85466088 </i>
    <i name="e_0_energy">    -48.84854597 </i>
   </energy>
  </scstep>
  <scstep>
   <time name="diag">    1.09    1.09</time>
   <time name="diis">    4.26    4.26</time>
   <time name="orth">    0.06    0.06</time>
   <time name="total">    7.31    7.32</time>
   <energy>
    <i name="e_fr_energy">    -48.84549173 </i>
    <i name="e_wo_entrp">    -48.85466414 </i>
    <i name="e_0_energy">    -48.84854920 </i>
   </energy>
  </scstep>
  <scstep>
   <time name="diag">    1.09    1.09</time>
   <time name="diis">    4.53    4.53</time>
   <time name="orth">    0.06    0.06</time>
   <time name="total">    7.58    7.59</time>
   <energy>
    <i name="e_fr_energy">    -48.84549332 </i>
    <i name="e_wo_entrp">    -48.85466567 </i>
    <i name="e_0_energy">    -48.84855077 </i>
   </energy>
  </scstep>
  <scstep>
   <time name="diag">    1.09    1.09</time>
   <time name="diis">    4.42    4.42</time>
   <time name="orth">    0.06    0.06</time>
   <time name="total">    7.49    7.49</time>
   <energy>
    <i name="e_fr_energy">    -48.84549410 </i>
    <i name="e_wo_entrp">    -48.85466647 </i>
    <i name="e_0_energy">    -48.84855155 </i>
   </energy>
  </scstep>
  <scstep>
   <time name="diag">    1.09    1.09</time>
   <time name="diis">    4.29    4.29</time>
   <time name="orth">    0.06    0.06</time>
   <time name="total">    7.36    7.37</time>
   <energy>
    <i name="e_fr_energy">    -48.84549481 </i>
    <i name="e_wo_entrp">    -48.85466718 </i>
    <i name="e_0_energy">    -48.84855227 </i>
   </energy>
  </scstep>
  <scstep>
   <time name="diag">    1.09    1.09</time>
   <time name="diis">    4.23    4.23</time>
   <time name="orth">    0.06    0.06</time>
   <time name="total">    7.31    7.32</time>
   <energy>
    <i name="e_fr_energy">    -48.84549533 </i>
    <i name="e_wo_entrp">    -48.85466770 </i>
    <i name="e_0_energy">    -48.84855279 </i>
   </energy>
  </scstep>
  <scstep>
   <time name="diag">    1.09    1.09</time>
   <time name="diis">    3.86    3.86</time>
   <time name="orth">    0.06    0.06</time>
   <time name="total">    6.94    6.95</time>
   <energy>
    <i name="e_fr_energy">    -48.84549574 </i>
    <i name="e_wo_entrp">    -48.85466811 </i>
    <i name="e_0_energy">    -48.84855319 </i>
   </energy>
  </scstep>
  <scstep>
   <time name="diag">    1.09    1.09</time>
   <time name="diis">    3.76    3.76</time>
   <time name="orth">    0.06    0.06</time>
   <time name="total">    6.85    6.85</time>
   <energy>
    <i name="e_fr_energy">    -48.84549598 </i>
    <i name="e_wo_entrp">    -48.85466835 </i>
    <i name="e_0_energy">    -48.84855343 </i>
   </energy>
  </scstep>
  <scstep>
   <time name="diag">    1.09    1.09</time>
   <time name="diis">    3.48    3.48</time>
   <time name="orth">    0.06    0.06</time>
   <time name="total">    6.57    6.57</time>
   <energy>
    <i name="e_fr_energy">    -48.84549616 </i>
    <i name="e_wo_entrp">    -48.85466853 </i>
    <i name="e_0_energy">    -48.84855362 </i>
   </energy>
  </scstep>
  <scstep>
   <time name="diag">    1.09    1.09</time>
   <time name="diis">    3.49    3.49</time>
   <time name="orth">    0.06    0.06</time>
   <time name="total">    6.59    6.59</time>
   <energy>
    <i name="e_fr_energy">    -48.84549630 </i>
    <i name="e_wo_entrp">    -48.85466867 </i>
    <i name="e_0_energy">    -48.84855376 </i>
   </energy>
  </scstep>
  <scstep>
   <time name="diag">    1.09    1.09</time>
   <time name="diis">    3.33    3.33</time>
   <time name="orth">    0.06    0.06</time>
   <time name="total">    5.66    5.67</time>
   <energy>
    <i name="alphaZ">     41.16232785 </i>
    <i name="ewald">  16014.53771337 </i>
    <i name="hartreedc"> -33002.07223162 </i>
    <i name="XCdc">    615.13237723 </i>
    <i name="pawpsdc">  17577.98282724 </i>
    <i name="pawaedc"> -18975.33166323 </i>
    <i name="eentropy">      0.00917236 </i>
    <i name="bandstr">   -982.48526665 </i>
    <i name="atom">  18662.21924712 </i>
    <i name="e_fr_energy">    -48.84549634 </i>
    <i name="e_wo_entrp">    -48.85466870 </i>
    <i name="e_0_energy">    -48.84855379 </i>
   </energy>
  </scstep>
  <structure>
   <crystal>
    <varray name="basis" >
     <v>      15.00000000       0.00000000       0.00000000 </v>
     <v>       0.00000000      15.00000000       0.00000000 </v>
     <v>       0.00000000       0.00000000      15.00000000 </v>
    </varray>
    <i name="volume">   3375.00000000 </i>
    <varray name="rec_basis" >
     <v>       0.06666667       0.00000000       0.00000000 </v>
     <v>       0.00000000       0.06666667       0.00000000 </v>
     <v>       0.00000000       0.00000000       0.06666667 </v>
    </varray>
   </crystal>
   <varray name="positions" >
    <v>       0.29016467       0.41547067       0.55633867 </v>
    <v>       0.37616733       0.54609667       0.49039867 </v>
    <v>       0.39350067       0.29070400       0.55857733 </v>
    <v>       0.53549267       0.50617867       0.47927933 </v>
    <v>       0.54633600       0.34828800       0.53448267 </v>
    <v>       0.44533933       0.43437533       0.61207267 </v>
    <v>       0.42075467       0.39817000       0.44563333 </v>
    <v>       0.22362133       0.56933467       0.54753400 </v>
    <v>       0.33360267       0.54724133       0.66178000 </v>
    <v>       0.35122267       0.68446667       0.56985133 </v>
    <v>       0.48699667       0.66587467       0.47259000 </v>
    <v>       0.63075733       0.48738200       0.60205333 </v>
    <v>       0.48173600       0.58995067       0.61953067 </v>
    <v>       0.74298000       0.50174200       0.65321867 </v>
    <v>       0.81954000       0.50005933       0.66361133 </v>
   </varray>
  </structure>
  <varray name="forces" >
   <v>       0.18204232       0.47109720      -0.01867021 </v>
   <v>      -0.20641787       0.12671442       0.30282045 </v>
   <v>       0.02366145      -0.21754848       0.16133994 </v>
   <v>      -0.18624506       0.12955957       0.18027113 </v>
   <v>       0.54831375       0.02379989      -0.21301116 </v>
   <v>      -0.08019321       0.27371940       0.02601399 </v>
   <v>      -0.21386179       0.01093772       0.14424907 </v>
   <v>       0.33030808      -0.01104113       0.05337062 </v>
   <v>       0.01537249      -0.19578801      -0.55772434 </v>
   <v>       0.02159743      -0.27750546      -0.06894534 </v>
   <v>      -0.15317454      -0.25325768       0.43869474 </v>
   <v>      -0.16795567      -0.06852425       0.26872865 </v>
   <v>       0.27209578       0.13085627      -0.53274062 </v>
   <v>       0.00894109      -0.26610993      -0.17570281 </v>
   <v>      -0.39448426       0.12309047      -0.00869409 </v>
  </varray>
  <varray name="stress" >
   <v>      -1.62490411      -0.41586128       0.10724192 </v>
   <v>      -0.41586128      -0.78470077      -0.11016431 </v>
   <v>       0.10724193      -0.11016431      -1.33009484 </v>
  </varray>
  <energy>
   <i name="e_fr_energy">    -48.84549634 </i>
   <i name="e_wo_entrp">    -48.84855379 </i>
   <i name="e_0_energy">      0.00917236 </i>
  </energy>
  <time name="totalsc">  353.83  354.08</time>
  <eigenvalues>
   <array>
    <dimension dim="1">band</dimension>
    <dimension dim="2">kpoint</dimension>
    <dimension dim="3">spin</dimension>
    <field>eigene</field>
    <field>occ</field>
    <set>
     <set comment="spin 1">
      <set comment="kpoint 1">
       <r>  -28.5014    1.0000 </r>
       <r>  -13.8667    1.0000 </r>
       <r>  -11.3234    1.0000 </r>
       <r>  -11.1806    1.0000 </r>
       <r>  -10.9327    1.0000 </r>
       <r>  -10.0439    1.0000 </r>
       <r>   -8.5467    1.0000 </r>
       <r>   -8.0616    1.0000 </r>
       <r>   -7.6279    1.0000 </r>
       <r>   -7.3871    1.0000 </r>
       <r>   -7.3379    1.0000 </r>
       <r>   -7.2072    1.0000 </r>
       <r>   -7.1726    1.0000 </r>
       <r>   -7.0828    1.0000 </r>
       <r>   -6.9239    1.0000 </r>
       <r>   -6.8904    1.0000 </r>
       <r>   -6.7408    1.0000 </r>
       <r>   -6.6835    1.0000 </r>
       <r>   -6.6278    1.0000 </r>
       <r>   -6.5092    1.0000 </r>
       <r>   -6.5016    1.0000 </r>
       <r>   -6.4594    1.0000 </r>
       <r>   -6.4346    1.0000 </r>
       <r>   -6.4059    1.0000 </r>
       <r>   -6.3388    1.0000 </r>
       <r>   -6.3240    1.0000 </r>
       <r>   -6.2892    1.0000 </r>
       <r>   -6.2134    1.0000 </r>
       <r>   -6.2082    1.0000 </r>
       <r>   -6.1524    1.0000 </r>
       <r>   -6.1020    1.0000 </r>
       <r>   -6.0741    1.0000 </r>
       <r>   -6.0241    1.0000 </r>
       <r>   -5.9871    1.0000 </r>
       <r>   -5.8738    1.0000 </r>
       <r>   -5.8086    1.0000 </r>
       <r>   -5.7370    1.0000 </r>
       <r>   -5.6976    1.0000 </r>
       <r>   -5.6476    1.0000 </r>
       <r>   -5.6366    1.0000 </r>
       <r>   -5.5577    1.0000 </r>
       <r>   -5.5231    1.0000 </r>
       <r>   -5.4918    1.0000 </r>
       <r>   -5.4259    1.0000 </r>
       <r>   -5.4140    1.0000 </r>
       <r>   -5.3781    1.0000 </r>
       <r>   -5.3332    1.0000 </r>
       <r>   -5.3279    1.0000 </r>
       <r>   -5.3181    1.0000 </r>
       <r>   -5.3153    1.0000 </r>
       <r>   -5.2658    1.0000 </r>
       <r>   -5.2372    1.0000 </r>
       <r>   -5.2198    1.0000 </r>
       <r>   -5.2148    1.0000 </r>
       <r>   -5.1778    1.0000 </r>
       <r>   -5.1417    1.0000 </r>
       <r>   -5.1185    1.0000 </r>
       <r>   -5.1061    1.0000 </r>
       <r>   -5.0913    1.0000 </r>
       <r>   -5.0629    1.0000 </r>
       <r>   -5.0432    1.0000 </r>
       <r>   -5.0012    1.0000 </r>
       <r>   -4.9836    1.0000 </r>
       <r>   -4.9566    1.0000 </r>
       <r>   -4.9197    1.0000 </r>
       <r>   -4.9053    1.0000 </r>
       <r>   -4.8716    1.0000 </r>
       <r>   -4.8583    1.0000 </r>
       <r>   -4.8512    1.0000 </r>
       <r>   -4.8086    1.0000 </r>
       <r>   -4.7923    1.0000 </r>
       <r>   -4.7620    1.0000 </r>
       <r>   -4.7171    1.0000 </r>
       <r>   -4.5118    1.0000 </r>
       <r>   -4.1881    1.0000 </r>
       <r>   -4.0932    1.0000 </r>
       <r>   -3.5666    1.0000 </r>
       <r>   -3.0281   -0.0000 </r>
       <r>   -2.8356   -0.0000 </r>
       <r>   -2.5872   -0.0000 </r>
       <r>   -2.3917   -0.0000 </r>
       <r>   -1.9433   -0.0000 </r>
       <r>   -1.9062   -0.0000 </r>
       <r>   -1.7644   -0.0000 </r>
       <r>   -1.4546   -0.0000 </r>
       <r>   -1.1033   -0.0000 </r>
       <r>   -0.9541   -0.0000 </r>
       <r>   -0.6945    0.0000 </r>
       <r>   -0.4368    0.0000 </r>
       <r>   -0.2774    0.0000 </r>
       <r>   -0.1000    0.0000 </r>
       <r>    0.1347    0.0000 </r>
      </set>
     </set>
     <set comment="spin 2">
      <set comment="kpoint 1">
       <r>  -28.4815    1.0000 </r>
       <r>  -13.8295    1.0000 </r>
       <r>  -11.2971    1.0000 </r>
       <r>  -11.1479    1.0000 </r>
       <r>  -10.8819    1.0000 </r>
       <r>  -10.0023    1.0000 </r>
       <r>   -8.5247    1.0000 </r>
       <r>   -8.0109    1.0000 </r>
       <r>   -7.5857    1.0000 </r>
       <r>   -7.3687    1.0000 </r>
       <r>   -7.3105    1.0000 </r>
       <r>   -7.1577    1.0000 </r>
       <r>   -7.1323    1.0000 </r>
       <r>   -7.0576    1.0000 </r>
       <r>   -6.8927    1.0000 </r>
       <r>   -6.8553    1.0000 </r>
       <r>   -6.7159    1.0000 </r>
       <r>   -6.6596    1.0000 </r>
       <r>   -6.5951    1.0000 </r>
       <r>   -6.4815    1.0000 </r>
       <r>   -6.4802    1.0000 </r>
       <r>   -6.4407    1.0000 </r>
       <r>   -6.4059    1.0000 </r>
       <r>   -6.3737    1.0000 </r>
       <r>   -6.3184    1.0000 </r>
       <r>   -6.3021    1.0000 </r>
       <r>   -6.2656    1.0000 </r>
       <r>   -6.1898    1.0000 </r>
       <r>   -6.1854    1.0000 </r>
       <r>   -6.1267    1.0000 </r>
       <r>   -6.0729    1.0000 </r>
       <r>   -6.0504    1.0000 </r>
       <r>   -6.0013    1.0000 </r>
       <r>   -5.9627    1.0000 </r>
       <r>   -5.8476    1.0000 </r>
       <r>   -5.7844    1.0000 </r>
       <r>   -5.7055    1.0000 </r>
       <r>   -5.6711    1.0000 </r>
       <r>   -5.6199    1.0000 </r>
       <r>   -5.6171    1.0000 </r>
       <r>   -5.5358    1.0000 </r>
       <r>   -5.4943    1.0000 </r>
       <r>   -5.4664    1.0000 </r>
       <r>   -5.3991    1.0000 </r>
       <r>   -5.3910    1.0000 </r>
       <r>   -5.3494    1.0000 </r>
       <r>   -5.3079    1.0000 </r>
       <r>   -5.3024    1.0000 </r>
       <r>   -5.2927    1.0000 </r>
       <r>   -5.2855    1.0000 </r>
       <r>   -5.2393    1.0000 </r>
       <r>   -5.2126    1.0000 </r>
       <r>   -5.1893    1.0000 </r>
       <r>   -5.1844    1.0000 </r>
       <r>   -5.1503    1.0000 </r>
       <r>   -5.1167    1.0000 </r>
       <r>   -5.0960    1.0000 </r>
       <r>   -5.0854    1.0000 </r>
       <r>   -5.0738    1.0000 </r>
       <r>   -5.0413    1.0000 </r>
       <r>   -5.0077    1.0000 </r>
       <r>   -4.9759    1.0000 </r>
       <r>   -4.9588    1.0000 </r>
       <r>   -4.9376    1.0000 </r>
       <r>   -4.8888    1.0000 </r>
       <r>   -4.8793    1.0000 </r>
       <r>   -4.8488    1.0000 </r>
       <r>   -4.8333    1.0000 </r>
       <r>   -4.7995    1.0000 </r>
       <r>   -4.7754    1.0000 </r>
       <r>   -4.7587    1.0000 </r>
       <r>   -4.7401    1.0000 </r>
       <r>   -4.6885    1.0000 </r>
       <r>   -4.4695    1.0000 </r>
       <r>   -4.1242    1.0325 </r>
       <r>   -4.0586    0.9675 </r>
       <r>   -3.3578   -0.0000 </r>
       <r>   -2.9734   -0.0000 </r>
       <r>   -2.7842   -0.0000 </r>
       <r>   -2.5216   -0.0000 </r>
       <r>   -2.3006   -0.0000 </r>
       <r>   -1.9104   -0.0000 </r>
       <r>   -1.8237   -0.0000 </r>
       <r>   -1.6949   -0.0000 </r>
       <r>   -1.3517   -0.0000 </r>
       <r>   -0.9744    0.0000 </r>
       <r>   -0.8828    0.0000 </r>
       <r>   -0.6247    0.0000 </r>
       <r>   -0.3338    0.0000 </r>
       <r>   -0.2195    0.0000 </r>
       <r>   -0.0458    0.0000 </r>
       <r>    0.1315    0.0000 </r>
      </set>
     </set>
    </set>
   </array>
  </eigenvalues>
  <separator name="orbital magnetization" >
   <v name="MAGDIPOLOUT">      0.00000000      0.00000000      0.00000000</v>
  </separator>
  <dos>
   <i name="efermi">     -3.98636712 </i>
   <total>
    <array>
     <dimension dim="1">gridpoints</dimension>
     <dimension dim="2">spin</dimension>
     <field>energy</field>
     <field>total</field>
     <field>integrated</field>
     <set>
      <set comment="spin 1">
       <r>   -29.9332     0.0000     0.0000 </r>
       <r>   -29.8282     0.0000     0.0000 </r>
       <r>   -29.7232     0.0000     0.0000 </r>
       <r>   -29.6182     0.0000     0.0000 </r>
       <r>   -29.5132     0.0000     0.0000 </r>
       <r>   -29.4082     0.0000     0.0000 </r>
       <r>   -29.3032    -0.0000    -0.0000 </r>
       <r>   -29.1982    -0.0000    -0.0000 </r>
       <r>   -29.0932    -0.0000    -0.0000 </r>
       <r>   -28.9882    -0.0000    -0.0000 </r>
       <r>   -28.8832    -0.0000    -0.0000 </r>
       <r>   -28.7782    -0.0061    -0.0006 </r>
       <r>   -28.6732    -0.3322    -0.0355 </r>
       <r>   -28.5682     1.3237     0.1035 </r>
       <r>   -28.4632    14.2240     1.5970 </r>
       <r>   -28.3582     4.4203     2.0611 </r>
       <r>   -28.2532    -0.5581     2.0025 </r>
       <r>   -28.1482    -0.0238     2.0000 </r>
       <r>   -28.0432    -0.0001     2.0000 </r>
       <r>   -27.9382    -0.0000     2.0000 </r>
       <r>   -27.8332    -0.0000     2.0000 </r>
       <r>   -27.7282     0.0000     2.0000 </r>
       <r>   -27.6232     0.0000     2.0000 </r>
       <r>   -27.5182     0.0000     2.0000 </r>
       <r>   -27.4132     0.0000     2.0000 </r>
       <r>   -27.3082     0.0000     2.0000 </r>
       <r>   -27.2032     0.0000     2.0000 </r>
       <r>   -27.0982     0.0000     2.0000 </r>
       <r>   -26.9932     0.0000     2.0000 </r>
       <r>   -26.8882     0.0000     2.0000 </r>
       <r>   -26.7832     0.0000     2.0000 </r>
       <r>   -26.6782     0.0000     2.0000 </r>
       <r>   -26.5732     0.0000     2.0000 </r>
       <r>   -26.4682     0.0000     2.0000 </r>
       <r>   -26.3632     0.0000     2.0000 </r>
       <r>   -26.2582     0.0000     2.0000 </r>
       <r>   -26.1532     0.0000     2.0000 </r>
       <r>   -26.0482     0.0000     2.0000 </r>
       <r>   -25.9432     0.0000     2.0000 </r>
       <r>   -25.8382     0.0000     2.0000 </r>
       <r>   -25.7332     0.0000     2.0000 </r>
       <r>   -25.6282     0.0000     2.0000 </r>
       <r>   -25.5232     0.0000     2.0000 </r>
       <r>   -25.4182     0.0000     2.0000 </r>
       <r>   -25.3132     0.0000     2.0000 </r>
       <r>   -25.2082     0.0000     2.0000 </r>
       <r>   -25.1032     0.0000     2.0000 </r>
       <r>   -24.9982     0.0000     2.0000 </r>
       <r>   -24.8932     0.0000     2.0000 </r>
       <r>   -24.7882     0.0000     2.0000 </r>
       <r>   -24.6832     0.0000     2.0000 </r>
       <r>   -24.5782     0.0000     2.0000 </r>
       <r>   -24.4732     0.0000     2.0000 </r>
       <r>   -24.3682     0.0000     2.0000 </r>
       <r>   -24.2632     0.0000     2.0000 </r>
       <r>   -24.1582     0.0000     2.0000 </r>
       <r>   -24.0532     0.0000     2.0000 </r>
       <r>   -23.9482     0.0000     2.0000 </r>
       <r>   -23.8432     0.0000     2.0000 </r>
       <r>   -23.7382     0.0000     2.0000 </r>
       <r>   -23.6332     0.0000     2.0000 </r>
       <r>   -23.5282     0.0000     2.0000 </r>
       <r>   -23.4232     0.0000     2.0000 </r>
       <r>   -23.3182     0.0000     2.0000 </r>
       <r>   -23.2132     0.0000     2.0000 </r>
       <r>   -23.1082     0.0000     2.0000 </r>
       <r>   -23.0032     0.0000     2.0000 </r>
       <r>   -22.8982     0.0000     2.0000 </r>
       <r>   -22.7932     0.0000     2.0000 </r>
       <r>   -22.6882     0.0000     2.0000 </r>
       <r>   -22.5832     0.0000     2.0000 </r>
       <r>   -22.4782     0.0000     2.0000 </r>
       <r>   -22.3732     0.0000     2.0000 </r>
       <r>   -22.2682     0.0000     2.0000 </r>
       <r>   -22.1632     0.0000     2.0000 </r>
       <r>   -22.0582     0.0000     2.0000 </r>
       <r>   -21.9532     0.0000     2.0000 </r>
       <r>   -21.8482     0.0000     2.0000 </r>
       <r>   -21.7432     0.0000     2.0000 </r>
       <r>   -21.6382     0.0000     2.0000 </r>
       <r>   -21.5332     0.0000     2.0000 </r>
       <r>   -21.4282     0.0000     2.0000 </r>
       <r>   -21.3232     0.0000     2.0000 </r>
       <r>   -21.2183     0.0000     2.0000 </r>
       <r>   -21.1133     0.0000     2.0000 </r>
       <r>   -21.0083     0.0000     2.0000 </r>
       <r>   -20.9033     0.0000     2.0000 </r>
       <r>   -20.7983     0.0000     2.0000 </r>
       <r>   -20.6933     0.0000     2.0000 </r>
       <r>   -20.5883     0.0000     2.0000 </r>
       <r>   -20.4833     0.0000     2.0000 </r>
       <r>   -20.3783     0.0000     2.0000 </r>
       <r>   -20.2733     0.0000     2.0000 </r>
       <r>   -20.1683     0.0000     2.0000 </r>
       <r>   -20.0633     0.0000     2.0000 </r>
       <r>   -19.9583     0.0000     2.0000 </r>
       <r>   -19.8533     0.0000     2.0000 </r>
       <r>   -19.7483     0.0000     2.0000 </r>
       <r>   -19.6433     0.0000     2.0000 </r>
       <r>   -19.5383     0.0000     2.0000 </r>
       <r>   -19.4333     0.0000     2.0000 </r>
       <r>   -19.3283     0.0000     2.0000 </r>
       <r>   -19.2233     0.0000     2.0000 </r>
       <r>   -19.1183     0.0000     2.0000 </r>
       <r>   -19.0133     0.0000     2.0000 </r>
       <r>   -18.9083     0.0000     2.0000 </r>
       <r>   -18.8033     0.0000     2.0000 </r>
       <r>   -18.6983     0.0000     2.0000 </r>
       <r>   -18.5933     0.0000     2.0000 </r>
       <r>   -18.4883     0.0000     2.0000 </r>
       <r>   -18.3833     0.0000     2.0000 </r>
       <r>   -18.2783     0.0000     2.0000 </r>
       <r>   -18.1733     0.0000     2.0000 </r>
       <r>   -18.0683     0.0000     2.0000 </r>
       <r>   -17.9633     0.0000     2.0000 </r>
       <r>   -17.8583     0.0000     2.0000 </r>
       <r>   -17.7533     0.0000     2.0000 </r>
       <r>   -17.6483     0.0000     2.0000 </r>
       <r>   -17.5433     0.0000     2.0000 </r>
       <r>   -17.4383     0.0000     2.0000 </r>
       <r>   -17.3333     0.0000     2.0000 </r>
       <r>   -17.2283     0.0000     2.0000 </r>
       <r>   -17.1233     0.0000     2.0000 </r>
       <r>   -17.0183     0.0000     2.0000 </r>
       <r>   -16.9133     0.0000     2.0000 </r>
       <r>   -16.8083     0.0000     2.0000 </r>
       <r>   -16.7033     0.0000     2.0000 </r>
       <r>   -16.5983     0.0000     2.0000 </r>
       <r>   -16.4933     0.0000     2.0000 </r>
       <r>   -16.3883     0.0000     2.0000 </r>
       <r>   -16.2833     0.0000     2.0000 </r>
       <r>   -16.1783     0.0000     2.0000 </r>
       <r>   -16.0733     0.0000     2.0000 </r>
       <r>   -15.9683     0.0000     2.0000 </r>
       <r>   -15.8633     0.0000     2.0000 </r>
       <r>   -15.7583     0.0000     2.0000 </r>
       <r>   -15.6533     0.0000     2.0000 </r>
       <r>   -15.5483     0.0000     2.0000 </r>
       <r>   -15.4433     0.0000     2.0000 </r>
       <r>   -15.3383     0.0000     2.0000 </r>
       <r>   -15.2333     0.0000     2.0000 </r>
       <r>   -15.1283     0.0000     2.0000 </r>
       <r>   -15.0233     0.0000     2.0000 </r>
       <r>   -14.9183     0.0000     2.0000 </r>
       <r>   -14.8133     0.0000     2.0000 </r>
       <r>   -14.7083    -0.0000     2.0000 </r>
       <r>   -14.6033    -0.0000     2.0000 </r>
       <r>   -14.4983    -0.0000     2.0000 </r>
       <r>   -14.3933    -0.0000     2.0000 </r>
       <r>   -14.2883    -0.0000     2.0000 </r>
       <r>   -14.1833    -0.0007     1.9999 </r>
       <r>   -14.0783    -0.1021     1.9892 </r>
       <r>   -13.9733    -0.4818     1.9386 </r>
       <r>   -13.8683     9.8498     2.9728 </r>
       <r>   -13.7633    10.3217     4.0566 </r>
       <r>   -13.6583    -0.4240     4.0121 </r>
       <r>   -13.5533    -0.1142     4.0001 </r>
       <r>   -13.4483    -0.0008     4.0000 </r>
       <r>   -13.3433    -0.0000     4.0000 </r>
       <r>   -13.2383    -0.0000     4.0000 </r>
       <r>   -13.1333     0.0000     4.0000 </r>
       <r>   -13.0283     0.0000     4.0000 </r>
       <r>   -12.9233     0.0000     4.0000 </r>
       <r>   -12.8183     0.0000     4.0000 </r>
       <r>   -12.7133     0.0000     4.0000 </r>
       <r>   -12.6083     0.0000     4.0000 </r>
       <r>   -12.5033     0.0000     4.0000 </r>
       <r>   -12.3983     0.0000     4.0000 </r>
       <r>   -12.2933     0.0000     4.0000 </r>
       <r>   -12.1883    -0.0000     4.0000 </r>
       <r>   -12.0833    -0.0000     4.0000 </r>
       <r>   -11.9783    -0.0000     4.0000 </r>
       <r>   -11.8733    -0.0000     4.0000 </r>
       <r>   -11.7683    -0.0000     4.0000 </r>
       <r>   -11.6633    -0.0002     4.0000 </r>
       <r>   -11.5583    -0.0419     3.9956 </r>
       <r>   -11.4533    -0.6260     3.9299 </r>
       <r>   -11.3483     5.9315     4.5527 </r>
       <r>   -11.2433    14.8886     6.1159 </r>
       <r>   -11.1383    14.7119     7.6607 </r>
       <r>   -11.0333     3.2936     8.0065 </r>
       <r>   -10.9283    10.1833     9.0757 </r>
       <r>   -10.8233     9.4180    10.0646 </r>
       <r>   -10.7183    -0.5223    10.0098 </r>
       <r>   -10.6133    -0.0926    10.0001 </r>
       <r>   -10.5083    -0.0006    10.0000 </r>
       <r>   -10.4033    -0.0000    10.0000 </r>
       <r>   -10.2983    -0.0180     9.9981 </r>
       <r>   -10.1933    -0.5130     9.9442 </r>
       <r>   -10.0883     3.6091    10.3232 </r>
       <r>    -9.9834    14.4887    11.8445 </r>
       <r>    -9.8784     1.8723    12.0411 </r>
       <r>    -9.7734    -0.3830    12.0009 </r>
       <r>    -9.6684    -0.0084    12.0000 </r>
       <r>    -9.5634    -0.0000    12.0000 </r>
       <r>    -9.4584    -0.0000    12.0000 </r>
       <r>    -9.3534    -0.0000    12.0000 </r>
       <r>    -9.2484    -0.0000    12.0000 </r>
       <r>    -9.1434    -0.0000    12.0000 </r>
       <r>    -9.0384    -0.0000    12.0000 </r>
       <r>    -8.9334    -0.0000    12.0000 </r>
       <r>    -8.8284    -0.0048    11.9995 </r>
       <r>    -8.7234    -0.2950    11.9685 </r>
       <r>    -8.6184     0.9549    12.0688 </r>
       <r>    -8.5134    13.9232    13.5307 </r>
       <r>    -8.4084     5.0859    14.0647 </r>
       <r>    -8.3034    -0.6186    13.9998 </r>
       <r>    -8.1984    -0.6245    13.9342 </r>
       <r>    -8.0934     5.3096    14.4917 </r>
       <r>    -7.9884    13.8078    15.9415 </r>
       <r>    -7.8834     0.8275    16.0284 </r>
       <r>    -7.7784    -0.7888    15.9456 </r>
       <r>    -7.6734     3.4814    16.3111 </r>
       <r>    -7.5684    14.2045    17.8026 </r>
       <r>    -7.4634     1.9682    18.0092 </r>
       <r>    -7.3584    19.4099    20.0473 </r>
       <r>    -7.2534    21.9423    22.3512 </r>
       <r>    -7.1484    28.6202    25.3563 </r>
       <r>    -7.0434    21.3974    27.6030 </r>
       <r>    -6.9384    14.1312    29.0867 </r>
       <r>    -6.8334    25.2625    31.7393 </r>
       <r>    -6.7284    16.9797    33.5221 </r>
       <r>    -6.6234    30.9607    36.7730 </r>
       <r>    -6.5184    28.1400    39.7277 </r>
       <r>    -6.4134    58.9248    45.9147 </r>
       <r>    -6.3084    53.0090    51.4806 </r>
       <r>    -6.2034    47.8450    56.5043 </r>
       <r>    -6.0984    48.4379    61.5902 </r>
       <r>    -5.9934    45.8264    66.4020 </r>
       <r>    -5.8884    23.2859    68.8470 </r>
       <r>    -5.7834    26.3666    71.6154 </r>
       <r>    -5.6784    41.2450    75.9461 </r>
       <r>    -5.5734    46.3017    80.8077 </r>
       <r>    -5.4684    45.1077    85.5440 </r>
       <r>    -5.3634    64.0371    92.2678 </r>
       <r>    -5.2584    92.1901   101.9477 </r>
       <r>    -5.1534    84.7388   110.8452 </r>
       <r>    -5.0484    86.6250   119.9407 </r>
       <r>    -4.9434    75.1834   127.8349 </r>
       <r>    -4.8384    86.7834   136.9471 </r>
       <r>    -4.7334    69.4848   144.2429 </r>
       <r>    -4.6284    17.7245   146.1040 </r>
       <r>    -4.5234     6.9090   146.8294 </r>
       <r>    -4.4184    11.4194   148.0285 </r>
       <r>    -4.3134    -0.8591   147.9383 </r>
       <r>    -4.2084     6.2557   148.5951 </r>
       <r>    -4.1034    21.2962   150.8312 </r>
       <r>    -3.9984    11.7012   152.0598 </r>
       <r>    -3.8934    -0.4144   152.0163 </r>
       <r>    -3.7884    -0.2245   151.9927 </r>
       <r>    -3.6834    -0.5959   151.9302 </r>
       <r>    -3.5784     8.2997   152.8016 </r>
       <r>    -3.4734    11.7283   154.0331 </r>
       <r>    -3.3684    -0.1537   154.0169 </r>
       <r>    -3.2634    -0.2012   153.9958 </r>
       <r>    -3.1584    -0.6197   153.9307 </r>
       <r>    -3.0534     6.1609   154.5776 </r>
       <r>    -2.9484    12.6966   155.9108 </r>
       <r>    -2.8434     9.3396   156.8914 </r>
       <r>    -2.7384    10.4624   157.9900 </r>
       <r>    -2.6334     3.0891   158.3143 </r>
       <r>    -2.5284    13.7996   159.7633 </r>
       <r>    -2.4234     7.3443   160.5344 </r>
       <r>    -2.3184    13.4106   161.9425 </r>
       <r>    -2.2134     0.8257   162.0292 </r>
       <r>    -2.1084    -0.8099   161.9442 </r>
       <r>    -2.0034     1.5898   162.1111 </r>
       <r>    -1.8984    25.0836   164.7448 </r>
       <r>    -1.7934    18.1797   166.6537 </r>
       <r>    -1.6884    12.4775   167.9638 </r>
       <r>    -1.5834    -0.0514   167.9584 </r>
       <r>    -1.4784     6.2046   168.6099 </r>
       <r>    -1.3734    13.0983   169.9852 </r>
       <r>    -1.2684    -0.0228   169.9828 </r>
       <r>    -1.1634     1.5717   170.1478 </r>
       <r>    -1.0584    14.0562   171.6237 </r>
       <r>    -0.9534    13.7307   173.0654 </r>
       <r>    -0.8484     8.9986   174.0103 </r>
       <r>    -0.7434     2.5936   174.2826 </r>
       <r>    -0.6384    14.3373   175.7880 </r>
       <r>    -0.5334     2.0278   176.0009 </r>
       <r>    -0.4284    10.3536   177.0880 </r>
       <r>    -0.3234    12.1757   178.3664 </r>
       <r>    -0.2184    13.3581   179.7690 </r>
       <r>    -0.1134     9.9519   180.8140 </r>
       <r>    -0.0084    10.9880   181.9677 </r>
       <r>     0.0966     4.3162   182.4209 </r>
       <r>     0.2016    14.0555   183.8967 </r>
       <r>     0.3066     1.3221   184.0355 </r>
       <r>     0.4116    -0.3322   184.0006 </r>
       <r>     0.5166    -0.0061   184.0000 </r>
       <r>     0.6216    -0.0000   184.0000 </r>
       <r>     0.7266    -0.0000   184.0000 </r>
       <r>     0.8316    -0.0000   184.0000 </r>
       <r>     0.9366     0.0000   184.0000 </r>
       <r>     1.0416     0.0000   184.0000 </r>
       <r>     1.1465     0.0000   184.0000 </r>
       <r>     1.2515     0.0000   184.0000 </r>
       <r>     1.3565     0.0000   184.0000 </r>
       <r>     1.4615     0.0000   184.0000 </r>
       <r>     1.5665     0.0000   184.0000 </r>
      </set>
      <set comment="spin 2">
       <r>   -29.9332     0.0000     0.0000 </r>
       <r>   -29.8282     0.0000     0.0000 </r>
       <r>   -29.7232     0.0000     0.0000 </r>
       <r>   -29.6182     0.0000     0.0000 </r>
       <r>   -29.5132     0.0000     0.0000 </r>
       <r>   -29.4082     0.0000     0.0000 </r>
       <r>   -29.3032    -0.0000    -0.0000 </r>
       <r>   -29.1982    -0.0000    -0.0000 </r>
       <r>   -29.0932    -0.0000    -0.0000 </r>
       <r>   -28.9882    -0.0000    -0.0000 </r>
       <r>   -28.8832    -0.0000    -0.0000 </r>
       <r>   -28.7782    -0.0021    -0.0002 </r>
       <r>   -28.6732    -0.1950    -0.0207 </r>
       <r>   -28.5682     0.0957    -0.0106 </r>
       <r>   -28.4632    12.5161     1.3035 </r>
       <r>   -28.3582     7.3082     2.0709 </r>
       <r>   -28.2532    -0.6201     2.0058 </r>
       <r>   -28.1482    -0.0548     2.0000 </r>
       <r>   -28.0432    -0.0002     2.0000 </r>
       <r>   -27.9382    -0.0000     2.0000 </r>
       <r>   -27.8332    -0.0000     2.0000 </r>
       <r>   -27.7282     0.0000     2.0000 </r>
       <r>   -27.6232     0.0000     2.0000 </r>
       <r>   -27.5182     0.0000     2.0000 </r>
       <r>   -27.4132     0.0000     2.0000 </r>
       <r>   -27.3082     0.0000     2.0000 </r>
       <r>   -27.2032     0.0000     2.0000 </r>
       <r>   -27.0982     0.0000     2.0000 </r>
       <r>   -26.9932     0.0000     2.0000 </r>
       <r>   -26.8882     0.0000     2.0000 </r>
       <r>   -26.7832     0.0000     2.0000 </r>
       <r>   -26.6782     0.0000     2.0000 </r>
       <r>   -26.5732     0.0000     2.0000 </r>
       <r>   -26.4682     0.0000     2.0000 </r>
       <r>   -26.3632     0.0000     2.0000 </r>
       <r>   -26.2582     0.0000     2.0000 </r>
       <r>   -26.1532     0.0000     2.0000 </r>
       <r>   -26.0482     0.0000     2.0000 </r>
       <r>   -25.9432     0.0000     2.0000 </r>
       <r>   -25.8382     0.0000     2.0000 </r>
       <r>   -25.7332     0.0000     2.0000 </r>
       <r>   -25.6282     0.0000     2.0000 </r>
       <r>   -25.5232     0.0000     2.0000 </r>
       <r>   -25.4182     0.0000     2.0000 </r>
       <r>   -25.3132     0.0000     2.0000 </r>
       <r>   -25.2082     0.0000     2.0000 </r>
       <r>   -25.1032     0.0000     2.0000 </r>
       <r>   -24.9982     0.0000     2.0000 </r>
       <r>   -24.8932     0.0000     2.0000 </r>
       <r>   -24.7882     0.0000     2.0000 </r>
       <r>   -24.6832     0.0000     2.0000 </r>
       <r>   -24.5782     0.0000     2.0000 </r>
       <r>   -24.4732     0.0000     2.0000 </r>
       <r>   -24.3682     0.0000     2.0000 </r>
       <r>   -24.2632     0.0000     2.0000 </r>
       <r>   -24.1582     0.0000     2.0000 </r>
       <r>   -24.0532     0.0000     2.0000 </r>
       <r>   -23.9482     0.0000     2.0000 </r>
       <r>   -23.8432     0.0000     2.0000 </r>
       <r>   -23.7382     0.0000     2.0000 </r>
       <r>   -23.6332     0.0000     2.0000 </r>
       <r>   -23.5282     0.0000     2.0000 </r>
       <r>   -23.4232     0.0000     2.0000 </r>
       <r>   -23.3182     0.0000     2.0000 </r>
       <r>   -23.2132     0.0000     2.0000 </r>
       <r>   -23.1082     0.0000     2.0000 </r>
       <r>   -23.0032     0.0000     2.0000 </r>
       <r>   -22.8982     0.0000     2.0000 </r>
       <r>   -22.7932     0.0000     2.0000 </r>
       <r>   -22.6882     0.0000     2.0000 </r>
       <r>   -22.5832     0.0000     2.0000 </r>
       <r>   -22.4782     0.0000     2.0000 </r>
       <r>   -22.3732     0.0000     2.0000 </r>
       <r>   -22.2682     0.0000     2.0000 </r>
       <r>   -22.1632     0.0000     2.0000 </r>
       <r>   -22.0582     0.0000     2.0000 </r>
       <r>   -21.9532     0.0000     2.0000 </r>
       <r>   -21.8482     0.0000     2.0000 </r>
       <r>   -21.7432     0.0000     2.0000 </r>
       <r>   -21.6382     0.0000     2.0000 </r>
       <r>   -21.5332     0.0000     2.0000 </r>
       <r>   -21.4282     0.0000     2.0000 </r>
       <r>   -21.3232     0.0000     2.0000 </r>
       <r>   -21.2183     0.0000     2.0000 </r>
       <r>   -21.1133     0.0000     2.0000 </r>
       <r>   -21.0083     0.0000     2.0000 </r>
       <r>   -20.9033     0.0000     2.0000 </r>
       <r>   -20.7983     0.0000     2.0000 </r>
       <r>   -20.6933     0.0000     2.0000 </r>
       <r>   -20.5883     0.0000     2.0000 </r>
       <r>   -20.4833     0.0000     2.0000 </r>
       <r>   -20.3783     0.0000     2.0000 </r>
       <r>   -20.2733     0.0000     2.0000 </r>
       <r>   -20.1683     0.0000     2.0000 </r>
       <r>   -20.0633     0.0000     2.0000 </r>
       <r>   -19.9583     0.0000     2.0000 </r>
       <r>   -19.8533     0.0000     2.0000 </r>
       <r>   -19.7483     0.0000     2.0000 </r>
       <r>   -19.6433     0.0000     2.0000 </r>
       <r>   -19.5383     0.0000     2.0000 </r>
       <r>   -19.4333     0.0000     2.0000 </r>
       <r>   -19.3283     0.0000     2.0000 </r>
       <r>   -19.2233     0.0000     2.0000 </r>
       <r>   -19.1183     0.0000     2.0000 </r>
       <r>   -19.0133     0.0000     2.0000 </r>
       <r>   -18.9083     0.0000     2.0000 </r>
       <r>   -18.8033     0.0000     2.0000 </r>
       <r>   -18.6983     0.0000     2.0000 </r>
       <r>   -18.5933     0.0000     2.0000 </r>
       <r>   -18.4883     0.0000     2.0000 </r>
       <r>   -18.3833     0.0000     2.0000 </r>
       <r>   -18.2783     0.0000     2.0000 </r>
       <r>   -18.1733     0.0000     2.0000 </r>
       <r>   -18.0683     0.0000     2.0000 </r>
       <r>   -17.9633     0.0000     2.0000 </r>
       <r>   -17.8583     0.0000     2.0000 </r>
       <r>   -17.7533     0.0000     2.0000 </r>
       <r>   -17.6483     0.0000     2.0000 </r>
       <r>   -17.5433     0.0000     2.0000 </r>
       <r>   -17.4383     0.0000     2.0000 </r>
       <r>   -17.3333     0.0000     2.0000 </r>
       <r>   -17.2283     0.0000     2.0000 </r>
       <r>   -17.1233     0.0000     2.0000 </r>
       <r>   -17.0183     0.0000     2.0000 </r>
       <r>   -16.9133     0.0000     2.0000 </r>
       <r>   -16.8083     0.0000     2.0000 </r>
       <r>   -16.7033     0.0000     2.0000 </r>
       <r>   -16.5983     0.0000     2.0000 </r>
       <r>   -16.4933     0.0000     2.0000 </r>
       <r>   -16.3883     0.0000     2.0000 </r>
       <r>   -16.2833     0.0000     2.0000 </r>
       <r>   -16.1783     0.0000     2.0000 </r>
       <r>   -16.0733     0.0000     2.0000 </r>
       <r>   -15.9683     0.0000     2.0000 </r>
       <r>   -15.8633     0.0000     2.0000 </r>
       <r>   -15.7583     0.0000     2.0000 </r>
       <r>   -15.6533     0.0000     2.0000 </r>
       <r>   -15.5483     0.0000     2.0000 </r>
       <r>   -15.4433     0.0000     2.0000 </r>
       <r>   -15.3383     0.0000     2.0000 </r>
       <r>   -15.2333     0.0000     2.0000 </r>
       <r>   -15.1283     0.0000     2.0000 </r>
       <r>   -15.0233     0.0000     2.0000 </r>
       <r>   -14.9183     0.0000     2.0000 </r>
       <r>   -14.8133     0.0000     2.0000 </r>
       <r>   -14.7083    -0.0000     2.0000 </r>
       <r>   -14.6033    -0.0000     2.0000 </r>
       <r>   -14.4983    -0.0000     2.0000 </r>
       <r>   -14.3933    -0.0000     2.0000 </r>
       <r>   -14.2883    -0.0000     2.0000 </r>
       <r>   -14.1833    -0.0001     2.0000 </r>
       <r>   -14.0783    -0.0232     1.9976 </r>
       <r>   -13.9733    -0.5538     1.9394 </r>
       <r>   -13.8683     4.3344     2.3945 </r>
       <r>   -13.7633    14.2578     3.8916 </r>
       <r>   -13.6583     1.3762     4.0361 </r>
       <r>   -13.5533    -0.3373     4.0007 </r>
       <r>   -13.4483    -0.0063     4.0000 </r>
       <r>   -13.3433    -0.0000     4.0000 </r>
       <r>   -13.2383    -0.0000     4.0000 </r>
       <r>   -13.1333    -0.0000     4.0000 </r>
       <r>   -13.0283     0.0000     4.0000 </r>
       <r>   -12.9233     0.0000     4.0000 </r>
       <r>   -12.8183     0.0000     4.0000 </r>
       <r>   -12.7133     0.0000     4.0000 </r>
       <r>   -12.6083     0.0000     4.0000 </r>
       <r>   -12.5033     0.0000     4.0000 </r>
       <r>   -12.3983     0.0000     4.0000 </r>
       <r>   -12.2933     0.0000     4.0000 </r>
       <r>   -12.1883    -0.0000     4.0000 </r>
       <r>   -12.0833    -0.0000     4.0000 </r>
       <r>   -11.9783    -0.0000     4.0000 </r>
       <r>   -11.8733    -0.0000     4.0000 </r>
       <r>   -11.7683    -0.0000     4.0000 </r>
       <r>   -11.6633    -0.0000     4.0000 </r>
       <r>   -11.5583    -0.0132     3.9986 </r>
       <r>   -11.4533    -0.4610     3.9502 </r>
       <r>   -11.3483     2.6751     4.2311 </r>
       <r>   -11.2433    14.3802     5.7410 </r>
       <r>   -11.1383    13.9511     7.2059 </r>
       <r>   -11.0333     7.7151     8.0159 </r>
       <r>   -10.9283     2.7875     8.3086 </r>
       <r>   -10.8233    14.4630     9.8272 </r>
       <r>   -10.7183     2.0534    10.0428 </r>
       <r>   -10.6133    -0.3987    10.0010 </r>
       <r>   -10.5083    -0.0092    10.0000 </r>
       <r>   -10.4033    -0.0000    10.0000 </r>
       <r>   -10.2983    -0.0022     9.9998 </r>
       <r>   -10.1933    -0.1987     9.9789 </r>
       <r>   -10.0883     0.1244     9.9920 </r>
       <r>    -9.9834    12.5897    11.3139 </r>
       <r>    -9.8784     7.2094    12.0709 </r>
       <r>    -9.7734    -0.6211    12.0056 </r>
       <r>    -9.6684    -0.0535    12.0000 </r>
       <r>    -9.5634    -0.0002    12.0000 </r>
       <r>    -9.4584    -0.0000    12.0000 </r>
       <r>    -9.3534    -0.0000    12.0000 </r>
       <r>    -9.2484    -0.0000    12.0000 </r>
       <r>    -9.1434    -0.0000    12.0000 </r>
       <r>    -9.0384    -0.0000    12.0000 </r>
       <r>    -8.9334    -0.0000    12.0000 </r>
       <r>    -8.8284    -0.0014    11.9998 </r>
       <r>    -8.7234    -0.1574    11.9833 </r>
       <r>    -8.6184    -0.1702    11.9655 </r>
       <r>    -8.5134    11.6636    13.1901 </r>
       <r>    -8.4084     8.3765    14.0696 </r>
       <r>    -8.3034    -0.5939    14.0073 </r>
       <r>    -8.1984    -0.2922    13.9766 </r>
       <r>    -8.0934     0.2956    14.0076 </r>
       <r>    -7.9884    12.9776    15.3703 </r>
       <r>    -7.8834     6.6639    16.0700 </r>
       <r>    -7.7784    -0.8118    15.9847 </r>
       <r>    -7.6734     0.0095    15.9857 </r>
       <r>    -7.5684    12.2446    17.2714 </r>
       <r>    -7.4634     6.7540    17.9806 </r>
       <r>    -7.3584    13.9088    19.4410 </r>
       <r>    -7.2534    22.0256    21.7537 </r>
       <r>    -7.1484    20.5632    23.9128 </r>
       <r>    -7.0434    31.7683    27.2484 </r>
       <r>    -6.9384    11.0118    28.4046 </r>
       <r>    -6.8334    25.6185    31.0946 </r>
       <r>    -6.7284    17.3674    32.9181 </r>
       <r>    -6.6234    29.2410    35.9884 </r>
       <r>    -6.5184    26.2326    38.7428 </r>
       <r>    -6.4134    53.4873    44.3589 </r>
       <r>    -6.3084    56.5774    50.2995 </r>
       <r>    -6.2034    48.5992    55.4023 </r>
       <r>    -6.0984    46.7666    60.3128 </r>
       <r>    -5.9934    49.0750    65.4656 </r>
       <r>    -5.8884    27.6102    68.3647 </r>
       <r>    -5.7834    23.2974    70.8109 </r>
       <r>    -5.6784    36.4516    74.6383 </r>
       <r>    -5.5734    49.1140    79.7952 </r>
       <r>    -5.4684    43.0367    84.3140 </r>
       <r>    -5.3634    56.0511    90.1993 </r>
       <r>    -5.2584    88.1706    99.4571 </r>
       <r>    -5.1534    87.5856   108.6535 </r>
       <r>    -5.0484    88.8968   117.9876 </r>
       <r>    -4.9434    75.6723   125.9331 </r>
       <r>    -4.8384    78.3449   134.1593 </r>
       <r>    -4.7334    80.7030   142.6330 </r>
       <r>    -4.6284    32.5317   146.0488 </r>
       <r>    -4.5234     2.1697   146.2766 </r>
       <r>    -4.4184    14.0633   147.7533 </r>
       <r>    -4.3134     2.5927   148.0255 </r>
       <r>    -4.2084    -0.7571   147.9460 </r>
       <r>    -4.1034    16.3626   149.6641 </r>
       <r>    -3.9984    21.4139   151.9125 </r>
       <r>    -3.8934     1.2769   152.0466 </r>
       <r>    -3.7884    -0.4349   152.0009 </r>
       <r>    -3.6834    -0.0091   152.0000 </r>
       <r>    -3.5784    -0.0738   151.9922 </r>
       <r>    -3.4734    -0.5859   151.9307 </r>
       <r>    -3.3684     8.4918   152.8223 </r>
       <r>    -3.2634    11.5624   154.0364 </r>
       <r>    -3.1584    -0.4310   153.9911 </r>
       <r>    -3.0534     0.2655   154.0190 </r>
       <r>    -2.9484    12.8308   155.3662 </r>
       <r>    -2.8434     8.2882   156.2365 </r>
       <r>    -2.7384    13.8216   157.6877 </r>
       <r>    -2.6334     2.8570   157.9877 </r>
       <r>    -2.5284     8.5085   158.8811 </r>
       <r>    -2.4234    10.4221   159.9754 </r>
       <r>    -2.3184     7.0805   160.7188 </r>
       <r>    -2.2134    12.3212   162.0126 </r>
       <r>    -2.1084    -0.0920   162.0029 </r>
       <r>    -2.0034    -0.6133   161.9385 </r>
       <r>    -1.8984    12.3661   163.2369 </r>
       <r>    -1.7934    21.6542   165.5106 </r>
       <r>    -1.6884    15.9304   167.1833 </r>
       <r>    -1.5834     8.3985   168.0651 </r>
       <r>    -1.4784    -1.2043   167.9387 </r>
       <r>    -1.3734     6.7034   168.6425 </r>
       <r>    -1.2684    12.8891   169.9959 </r>
       <r>    -1.1634     0.0388   169.9999 </r>
       <r>    -1.0584    -0.2982   169.9686 </r>
       <r>    -0.9534    13.8440   171.4222 </r>
       <r>    -0.8484    20.8266   173.6090 </r>
       <r>    -0.7434     3.7116   173.9987 </r>
       <r>    -0.6384     7.3684   174.7724 </r>
       <r>    -0.5334    11.7934   176.0107 </r>
       <r>    -0.4284    -0.3974   175.9690 </r>
       <r>    -0.3234    10.9332   177.1170 </r>
       <r>    -0.2184    18.4369   179.0528 </r>
       <r>    -0.1134    10.5694   180.1626 </r>
       <r>    -0.0084    13.0513   181.5330 </r>
       <r>     0.0966     9.2857   182.5079 </r>
       <r>     0.2016    13.4714   183.9224 </r>
       <r>     0.3066     1.0516   184.0328 </r>
       <r>     0.4116    -0.3076   184.0005 </r>
       <r>     0.5166    -0.0052   184.0000 </r>
       <r>     0.6216    -0.0000   184.0000 </r>
       <r>     0.7266    -0.0000   184.0000 </r>
       <r>     0.8316    -0.0000   184.0000 </r>
       <r>     0.9366     0.0000   184.0000 </r>
       <r>     1.0416     0.0000   184.0000 </r>
       <r>     1.1465     0.0000   184.0000 </r>
       <r>     1.2515     0.0000   184.0000 </r>
       <r>     1.3565     0.0000   184.0000 </r>
       <r>     1.4615     0.0000   184.0000 </r>
       <r>     1.5665     0.0000   184.0000 </r>
      </set>
     </set>
    </array>
   </total>
  </dos>
 </calculation>
 <structure name="finalpos" >
  <crystal>
   <varray name="basis" >
    <v>      15.00000000       0.00000000       0.00000000 </v>
    <v>       0.00000000      15.00000000       0.00000000 </v>
    <v>       0.00000000       0.00000000      15.00000000 </v>
   </varray>
   <i name="volume">   3375.00000000 </i>
   <varray name="rec_basis" >
    <v>       0.06666667       0.00000000       0.00000000 </v>
    <v>       0.00000000       0.06666667       0.00000000 </v>
    <v>       0.00000000       0.00000000       0.06666667 </v>
   </varray>
  </crystal>
  <varray name="positions" >
   <v>       0.29016467       0.41547067       0.55633867 </v>
   <v>       0.37616733       0.54609667       0.49039867 </v>
   <v>       0.39350067       0.29070400       0.55857733 </v>
   <v>       0.53549267       0.50617867       0.47927933 </v>
   <v>       0.54633600       0.34828800       0.53448267 </v>
   <v>       0.44533933       0.43437533       0.61207267 </v>
   <v>       0.42075467       0.39817000       0.44563333 </v>
   <v>       0.22362133       0.56933467       0.54753400 </v>
   <v>       0.33360267       0.54724133       0.66178000 </v>
   <v>       0.35122267       0.68446667       0.56985133 </v>
   <v>       0.48699667       0.66587467       0.47259000 </v>
   <v>       0.63075733       0.48738200       0.60205333 </v>
   <v>       0.48173600       0.58995067       0.61953067 </v>
   <v>       0.74298000       0.50174200       0.65321867 </v>
   <v>       0.81954000       0.50005933       0.66361133 </v>
  </varray>
 </structure>
</modeling>
