<?xml version="1.0" encoding="ISO-8859-1"?>
<modeling>
 <generator>
  <i name="program" type="string">vasp </i>
  <i name="version" type="string">5.4.4.18Apr17-6-g9f103f2a35  </i>
  <i name="subversion" type="string">(build May 08 2019 13:49:07) complex            parallel </i>
  <i name="platform" type="string">LinuxIFC </i>
  <i name="date" type="string">2019 11 13 </i>
  <i name="time" type="string">12:26:03 </i>
 </generator>
 <incar>
  <i type="string" name="SYSTEM"> CuCO</i>
  <i type="int" name="ISTART">     0</i>
  <i type="string" name="PREC">accurate</i>
  <i type="string" name="ALGO"> Fast</i>
  <i type="int" name="ISPIN">     2</i>
  <i type="int" name="INIWAV">     1</i>
  <i type="int" name="NELM">   300</i>
  <i type="int" name="NELMIN">     3</i>
  <i type="int" name="IBRION">    -1</i>
  <i name="EDIFF">      0.00000010</i>
  <i name="EDIFFG">     -0.00100000</i>
  <i type="int" name="NSW">     0</i>
  <i type="int" name="ISYM">     0</i>
  <i name="ENCUT">    600.00000000</i>
  <i name="NUPDOWN">      1.00000000</i>
  <i type="logical" name="LREAL"> F  </i>
  <i type="int" name="ISMEAR">     1</i>
  <i name="SIGMA">      0.10000000</i>
  <i name="KSPACING">      0.50000000</i>
  <i type="logical" name="KGAMMA"> F  </i>
  <i type="logical" name="LWAVE"> F  </i>
  <i type="logical" name="LCHARG"> F  </i>
  <v type="int" name="KPOINT_BSE">    -1     0     0     0</v>
  <i type="int" name="NELM">   300</i>
  <i type="string" name="GGA"> PE</i>
 </incar>
 <structure name="primitive_cell" >
  <crystal>
   <varray name="basis" >
    <v>      15.00000000       0.00000000       0.00000000 </v>
    <v>       0.00000000      15.00000000       0.00000000 </v>
    <v>       0.00000000       0.00000000      15.00000000 </v>
   </varray>
   <i name="volume">   3375.00000000 </i>
   <varray name="rec_basis" >
    <v>       0.06666667       0.00000000       0.00000000 </v>
    <v>       0.00000000       0.06666667       0.00000000 </v>
    <v>       0.00000000       0.00000000       0.06666667 </v>
   </varray>
  </crystal>
  <varray name="positions" >
   <v>       0.29423800       0.42634800      -0.45052600 </v>
   <v>       0.37693000      -0.45161800       0.49076600 </v>
   <v>       0.34146600      -0.45323867      -0.35308333 </v>
   <v>       0.42113800       0.40054867       0.45143667 </v>
   <v>       0.22389400      -0.42482200      -0.46047667 </v>
   <v>       0.38604867       0.28820000      -0.43280800 </v>
   <v>       0.44852667       0.43408267      -0.38119733 </v>
   <v>      -0.46158467      -0.49648200       0.49157133 </v>
   <v>      -0.45482467       0.34518533      -0.47279733 </v>
   <v>       0.48359533      -0.40060933      -0.38187267 </v>
   <v>       0.34516333      -0.31316000      -0.43288400 </v>
   <v>       0.48471267      -0.34266400       0.47339200 </v>
   <v>      -0.37402733       0.47106333      -0.38304733 </v>
   <v>      -0.25374667       0.49089800      -0.35758200 </v>
   <v>      -0.18126667      -0.48902733      -0.36144400 </v>
  </varray>
 </structure>
 <varray name="primitive_index" >
  <v type="int" >        1 </v>
  <v type="int" >        2 </v>
  <v type="int" >        9 </v>
  <v type="int" >        7 </v>
  <v type="int" >        8 </v>
  <v type="int" >        3 </v>
  <v type="int" >        6 </v>
  <v type="int" >        4 </v>
  <v type="int" >        5 </v>
  <v type="int" >       13 </v>
  <v type="int" >       10 </v>
  <v type="int" >       11 </v>
  <v type="int" >       12 </v>
  <v type="int" >       14 </v>
  <v type="int" >       15 </v>
 </varray>
 <kpoints>
  <generation param="Monkhorst-Pack">
   <v type="int" name="divisions">       1        1        1 </v>
   <v name="usershift">      0.00000000       0.00000000       0.00000000 </v>
   <v name="genvec1">      1.00000000       0.00000000       0.00000000 </v>
   <v name="genvec2">      0.00000000       1.00000000       0.00000000 </v>
   <v name="genvec3">      0.00000000       0.00000000       1.00000000 </v>
   <v name="shift">      0.00000000       0.00000000       0.00000000 </v>
  </generation>
  <varray name="kpointlist" >
   <v>       0.00000000       0.00000000       0.00000000 </v>
  </varray>
  <varray name="weights" >
   <v>       1.00000000 </v>
  </varray>
 </kpoints>
 <parameters>
  <separator name="general" >
   <i type="string" name="SYSTEM">CuCO</i>
   <i type="logical" name="LCOMPAT"> F  </i>
  </separator>
  <separator name="electronic" >
   <i type="string" name="PREC">accura</i>
   <i name="ENMAX">    600.00000000</i>
   <i name="ENAUG">    644.87300000</i>
   <i name="EDIFF">      0.00000010</i>
   <i type="int" name="IALGO">    68</i>
   <i type="int" name="IWAVPR">    10</i>
   <i type="int" name="NBANDS">    92</i>
   <i name="NELECT">    153.00000000</i>
   <i type="int" name="TURBO">     0</i>
   <i type="int" name="IRESTART">     0</i>
   <i type="int" name="NREBOOT">     0</i>
   <i type="int" name="NMIN">     0</i>
   <i name="EREF">      0.00000000</i>
   <separator name="electronic smearing" >
    <i type="int" name="ISMEAR">     1</i>
    <i name="SIGMA">      0.10000000</i>
    <i name="KSPACING">      0.50000000</i>
    <i type="logical" name="KGAMMA"> F  </i>
   </separator>
   <separator name="electronic projectors" >
    <i type="logical" name="LREAL"> F  </i>
    <v name="ROPT">      0.00000000      0.00000000      0.00000000</v>
    <i type="int" name="LMAXPAW">  -100</i>
    <i type="int" name="LMAXMIX">     2</i>
    <i type="logical" name="NLSPLINE"> F  </i>
   </separator>
   <separator name="electronic startup" >
    <i type="int" name="ISTART">     0</i>
    <i type="int" name="ICHARG">     2</i>
    <i type="int" name="INIWAV">     1</i>
   </separator>
   <separator name="electronic spin" >
    <i type="int" name="ISPIN">     2</i>
    <i type="logical" name="LNONCOLLINEAR"> F  </i>
    <v name="MAGMOM">      0.06666667      0.06666667      0.06666667      0.06666667      0.06666667      0.06666667      0.06666667      0.06666667      0.06666667      0.06666667      0.06666667      0.06666667      0.06666667      0.06666667      0.06666667</v>
    <i name="NUPDOWN">      1.00000000</i>
    <i type="logical" name="LSORBIT"> F  </i>
    <v name="SAXIS">      0.00000000      0.00000000      1.00000000</v>
    <i type="logical" name="LSPIRAL"> F  </i>
    <v name="QSPIRAL">      0.00000000      0.00000000      0.00000000</v>
    <i type="logical" name="LZEROZ"> F  </i>
   </separator>
   <separator name="electronic exchange-correlation" >
    <i type="logical" name="LASPH"> F  </i>
    <i type="logical" name="LMETAGGA"> F  </i>
   </separator>
   <separator name="electronic convergence" >
    <i type="int" name="NELM">   300</i>
    <i type="int" name="NELMDL">    -5</i>
    <i type="int" name="NELMIN">     3</i>
    <i name="ENINI">    600.00000000</i>
    <separator name="electronic convergence detail" >
     <i type="logical" name="LDIAG"> T  </i>
     <i type="logical" name="LSUBROT"> F  </i>
     <i name="WEIMIN">      0.00000000</i>
     <i name="EBREAK">      0.00000000</i>
     <i name="DEPER">      0.30000000</i>
     <i type="int" name="NRMM">     4</i>
     <i name="TIME">      0.40000000</i>
    </separator>
   </separator>
   <separator name="electronic mixer" >
    <i name="AMIX">      0.40000000</i>
    <i name="BMIX">      1.00000000</i>
    <i name="AMIN">      0.10000000</i>
    <i name="AMIX_MAG">      1.60000000</i>
    <i name="BMIX_MAG">      1.00000000</i>
    <separator name="electronic mixer details" >
     <i type="int" name="IMIX">     4</i>
     <i type="logical" name="MIXFIRST"> F  </i>
     <i type="int" name="MAXMIX">   -45</i>
     <i name="WC">    100.00000000</i>
     <i type="int" name="INIMIX">     1</i>
     <i type="int" name="MIXPRE">     1</i>
     <i type="int" name="MREMOVE">     5</i>
    </separator>
   </separator>
   <separator name="electronic dipolcorrection" >
    <i type="logical" name="LDIPOL"> F  </i>
    <i type="logical" name="LMONO"> F  </i>
    <i type="int" name="IDIPOL">     0</i>
    <i name="EPSILON">      1.00000000</i>
    <v name="DIPOL">   -100.00000000   -100.00000000   -100.00000000</v>
    <i name="EFIELD">      0.00000000</i>
   </separator>
  </separator>
  <separator name="grids" >
   <i type="int" name="NGX">   120</i>
   <i type="int" name="NGY">   120</i>
   <i type="int" name="NGZ">   120</i>
   <i type="int" name="NGXF">   240</i>
   <i type="int" name="NGYF">   240</i>
   <i type="int" name="NGZF">   240</i>
   <i type="logical" name="ADDGRID"> F  </i>
  </separator>
  <separator name="ionic" >
   <i type="int" name="NSW">     0</i>
   <i type="int" name="IBRION">    -1</i>
   <i type="int" name="MDALGO">     0</i>
   <i type="int" name="ISIF">     2</i>
   <i name="PSTRESS">      0.00000000</i>
   <i name="EDIFFG">     -0.00100000</i>
   <i type="int" name="NFREE">     0</i>
   <i name="POTIM">      0.50000000</i>
   <i name="SMASS">     -3.00000000</i>
   <i name="SCALEE">      1.00000000</i>
  </separator>
  <separator name="ionic md" >
   <i name="TEBEG">      0.00010000</i>
   <i name="TEEND">      0.00010000</i>
   <i type="int" name="NBLOCK">     1</i>
   <i type="int" name="KBLOCK">     1</i>
   <i type="int" name="NPACO">   256</i>
   <i name="APACO">     16.00000000</i>
  </separator>
  <separator name="symmetry" >
   <i type="int" name="ISYM">     0</i>
   <i name="SYMPREC">      0.00001000</i>
  </separator>
  <separator name="dos" >
   <i type="int" name="LORBIT">     0</i>
   <v name="RWIGS">     -1.00000000     -1.00000000     -1.00000000</v>
   <i type="int" name="NEDOS">   301</i>
   <i name="EMIN">     10.00000000</i>
   <i name="EMAX">    -10.00000000</i>
   <i name="EFERMI">      0.00000000</i>
  </separator>
  <separator name="writing" >
   <i type="int" name="NWRITE">     2</i>
   <i type="logical" name="LWAVE"> F  </i>
   <i type="logical" name="LDOWNSAMPLE"> F  </i>
   <i type="logical" name="LCHARG"> F  </i>
   <i type="logical" name="LPARD"> F  </i>
   <i type="logical" name="LVTOT"> F  </i>
   <i type="logical" name="LVHAR"> F  </i>
   <i type="logical" name="LELF"> F  </i>
   <i type="logical" name="LOPTICS"> F  </i>
   <v name="STM">      0.00000000      0.00000000      0.00000000      0.00000000      0.00000000      0.00000000      0.00000000</v>
  </separator>
  <separator name="performance" >
   <i type="int" name="NPAR">     4</i>
   <i type="int" name="NSIM">     4</i>
   <i type="int" name="NBLK">    -1</i>
   <i type="logical" name="LPLANE"> T  </i>
   <i type="logical" name="LSCALAPACK"> T  </i>
   <i type="logical" name="LSCAAWARE"> F  </i>
   <i type="logical" name="LSCALU"> F  </i>
   <i type="logical" name="LASYNC"> F  </i>
   <i type="logical" name="LORBITALREAL"> F  </i>
  </separator>
  <separator name="miscellaneous" >
   <i type="int" name="IDIOT">     3</i>
   <i type="int" name="ISPECIAL">     0</i>
   <i type="logical" name="LMUSIC"> F  </i>
   <v name="POMASS">     63.54600000     12.01100000     16.00000000</v>
   <v name="DARWINR">      0.00000000      0.00000000      0.00000000</v>
   <v name="DARWINV">      1.00000000      1.00000000      1.00000000</v>
   <i type="logical" name="LCORR"> T  </i>
  </separator>
  <i type="logical" name="GGA_COMPAT"> T  </i>
  <i type="logical" name="LBERRY"> F  </i>
  <i type="int" name="ICORELEVEL">     0</i>
  <i type="logical" name="LDAU"> F  </i>
  <i type="int" name="I_CONSTRAINED_M">     0</i>
  <separator name="electronic exchange-correlation" >
   <i type="string" name="GGA">PE</i>
   <i type="int" name="VOSKOWN">     0</i>
   <i type="logical" name="LHFCALC"> F  </i>
   <i type="string" name="PRECFOCK"></i>
   <i type="logical" name="LSYMGRAD"> F  </i>
   <i type="logical" name="LHFONE"> F  </i>
   <i type="logical" name="LRHFCALC"> F  </i>
   <i type="logical" name="LTHOMAS"> F  </i>
   <i type="logical" name="LMODELHF"> F  </i>
   <i name="ENCUT4O">     -1.00000000</i>
   <i type="int" name="EXXOEP">     0</i>
   <i type="int" name="FOURORBIT">     0</i>
   <i name="AEXX">      0.00000000</i>
   <i name="HFALPHA">      0.00000000</i>
   <i name="MCALPHA">      0.00000000</i>
   <i name="ALDAX">      1.00000000</i>
   <i name="AGGAX">      1.00000000</i>
   <i name="ALDAC">      1.00000000</i>
   <i name="AGGAC">      1.00000000</i>
   <i type="int" name="NKREDX">     1</i>
   <i type="int" name="NKREDY">     1</i>
   <i type="int" name="NKREDZ">     1</i>
   <i type="logical" name="SHIFTRED"> F  </i>
   <i type="logical" name="ODDONLY"> F  </i>
   <i type="logical" name="EVENONLY"> F  </i>
   <i type="int" name="LMAXFOCK">     0</i>
   <i type="int" name="NMAXFOCKAE">     0</i>
   <i type="logical" name="LFOCKAEDFT"> F  </i>
   <i name="HFSCREEN">      0.00000000</i>
   <i name="HFSCREENC">      0.00000000</i>
   <i type="int" name="NBANDSGWLOW">     0</i>
  </separator>
  <separator name="vdW DFT" >
   <i type="logical" name="LUSE_VDW"> F  </i>
   <i name="Zab_VDW">     -0.84910000</i>
   <i name="PARAM1">      0.12340000</i>
   <i name="PARAM2">      1.00000000</i>
   <i name="PARAM3">      0.00000000</i>
  </separator>
  <separator name="model GW" >
   <i type="int" name="MODEL_GW">     0</i>
   <i name="MODEL_EPS0">    135.00000000</i>
   <i name="MODEL_ALPHA">      1.00000000</i>
  </separator>
  <separator name="linear response parameters" >
   <i type="logical" name="LEPSILON"> F  </i>
   <i type="logical" name="LRPA"> F  </i>
   <i type="logical" name="LNABLA"> F  </i>
   <i type="logical" name="LVEL"> F  </i>
   <i type="int" name="KINTER">     0</i>
   <i name="CSHIFT">      0.10000000</i>
   <i name="OMEGAMAX">     -1.00000000</i>
   <i name="DEG_THRESHOLD">      0.00200000</i>
   <i name="RTIME">     -0.10000000</i>
   <i name="WPLASMAI">      0.00000000</i>
   <v name="DFIELD">      0.00000000      0.00000000      0.00000000</v>
   <v name="WPLASMA">      0.00000000      0.00000000      0.00000000      0.00000000      0.00000000      0.00000000      0.00000000      0.00000000      0.00000000</v>
  </separator>
  <separator name="orbital magnetization" >
   <i type="logical" name="NUCIND"> F  </i>
   <v name="MAGPOS">      0.00000000      0.00000000      0.00000000</v>
   <i type="logical" name="LNICSALL"> T  </i>
   <i type="logical" name="ORBITALMAG"> F  </i>
   <i type="logical" name="LMAGBLOCH"> F  </i>
   <i type="logical" name="LCHIMAG"> F  </i>
   <i type="logical" name="LGAUGE"> T  </i>
   <i type="int" name="MAGATOM">     0</i>
   <v name="MAGDIPOL">      0.00000000      0.00000000      0.00000000</v>
   <v name="AVECCONST">      0.00000000      0.00000000      0.00000000</v>
  </separator>
  <separator name="response functions" >
   <i type="logical" name="LADDER"> F  </i>
   <i type="logical" name="LRPAFORCE"> F  </i>
   <i type="logical" name="LFXC"> F  </i>
   <i type="logical" name="LHARTREE"> T  </i>
   <i type="int" name="IBSE">     0</i>
   <v type="int" name="KPOINT">    -1     0     0     0</v>
   <i type="logical" name="LTCTE"> F  </i>
   <i type="logical" name="LTETE"> F  </i>
   <i type="logical" name="LTRIPLET"> F  </i>
   <i type="logical" name="LFXCEPS"> F  </i>
   <i type="logical" name="LFXHEG"> F  </i>
   <i type="int" name="NATURALO">     2</i>
   <i type="logical" name="L2ORDER"> F  </i>
   <i type="logical" name="LMP2LT"> F  </i>
   <i type="logical" name="LUSEW"> F  </i>
   <i name="ENCUTGW">     -2.00000000</i>
   <i name="ENCUTGWSOFT">     -2.00000000</i>
   <i name="ENCUTLF">     -1.00000000</i>
   <i type="int" name="LMAXMP2">    -1</i>
   <i name="SCISSOR">      0.00000000</i>
   <i type="int" name="NOMEGA">     0</i>
   <i type="int" name="NOMEGAR">     0</i>
   <i type="int" name="NBANDSGW">    -1</i>
   <i type="int" name="NBANDSO">    -1</i>
   <i type="int" name="NBANDSV">    -1</i>
   <i type="int" name="NELM">   300</i>
   <i type="int" name="NELMHF">     1</i>
   <i type="int" name="DIM">     3</i>
   <i type="int" name="ANTIRES">     0</i>
   <i name="OMEGAMAX">    -30.00000000</i>
   <i name="OMEGAMIN">    -30.00000000</i>
   <i name="OMEGATL">   -200.00000000</i>
   <i type="int" name="OMEGAGRID">   140</i>
   <i name="CSHIFT">     -0.10000000</i>
   <i type="logical" name="SELFENERGY"> F  </i>
   <i type="logical" name="LSPECTRAL"> F  </i>
   <i type="logical" name="LSPECTRALGW"> F  </i>
   <i type="logical" name="LSINGLES"> F  </i>
   <i type="logical" name="LFERMIGW"> F  </i>
   <i type="logical" name="ODDONLYGW"> F  </i>
   <i type="logical" name="EVENONLYGW"> F  </i>
   <i type="int" name="NKREDLFX">     1</i>
   <i type="int" name="NKREDLFY">     1</i>
   <i type="int" name="NKREDLFZ">     1</i>
   <i type="int" name="MAXMEM">  2800</i>
   <i type="int" name="TELESCOPE">     0</i>
   <i type="int" name="TAUPAR">     1</i>
   <i type="int" name="OMEGAPAR">    -1</i>
   <i name="LAMBDA">      1.00000000</i>
  </separator>
  <separator name="External order field" >
   <i name="OFIELD_KAPPA">      0.00000000</i>
   <v name="OFIELD_K">      0.00000000      0.00000000      0.00000000</v>
   <i name="OFIELD_Q6_NEAR">      0.00000000</i>
   <i name="OFIELD_Q6_FAR">      0.00000000</i>
   <i name="OFIELD_A">      0.00000000</i>
  </separator>
 </parameters>
 <atominfo>
  <atoms>      15 </atoms>
  <types>       3 </types>
  <array name="atoms" >
   <dimension dim="1">ion</dimension>
   <field type="string">element</field>
   <field type="int">atomtype</field>
   <set>
    <rc><c>Cu</c><c>   1</c></rc>
    <rc><c>Cu</c><c>   1</c></rc>
    <rc><c>Cu</c><c>   1</c></rc>
    <rc><c>Cu</c><c>   1</c></rc>
    <rc><c>Cu</c><c>   1</c></rc>
    <rc><c>Cu</c><c>   1</c></rc>
    <rc><c>Cu</c><c>   1</c></rc>
    <rc><c>Cu</c><c>   1</c></rc>
    <rc><c>Cu</c><c>   1</c></rc>
    <rc><c>Cu</c><c>   1</c></rc>
    <rc><c>Cu</c><c>   1</c></rc>
    <rc><c>Cu</c><c>   1</c></rc>
    <rc><c>Cu</c><c>   1</c></rc>
    <rc><c>C </c><c>   2</c></rc>
    <rc><c>O </c><c>   3</c></rc>
   </set>
  </array>
  <array name="atomtypes" >
   <dimension dim="1">type</dimension>
   <field type="int">atomspertype</field>
   <field type="string">element</field>
   <field>mass</field>
   <field>valence</field>
   <field type="string">pseudopotential</field>
   <set>
    <rc><c>  13</c><c>Cu</c><c>     63.54600000</c><c>     11.00000000</c><c>  PAW_PBE Cu 22Jun2005                  </c></rc>
    <rc><c>   1</c><c>C </c><c>     12.01100000</c><c>      4.00000000</c><c>  PAW_PBE C 08Apr2002                   </c></rc>
    <rc><c>   1</c><c>O </c><c>     16.00000000</c><c>      6.00000000</c><c>  PAW_PBE O 08Apr2002                   </c></rc>
   </set>
  </array>
 </atominfo>
 <structure name="initialpos" >
  <crystal>
   <varray name="basis" >
    <v>      15.00000000       0.00000000       0.00000000 </v>
    <v>       0.00000000      15.00000000       0.00000000 </v>
    <v>       0.00000000       0.00000000      15.00000000 </v>
   </varray>
   <i name="volume">   3375.00000000 </i>
   <varray name="rec_basis" >
    <v>       0.06666667       0.00000000       0.00000000 </v>
    <v>       0.00000000       0.06666667       0.00000000 </v>
    <v>       0.00000000       0.00000000       0.06666667 </v>
   </varray>
  </crystal>
  <varray name="positions" >
   <v>       0.29423800       0.42634800       0.54947400 </v>
   <v>       0.37693000       0.54838200       0.49076600 </v>
   <v>       0.38604867       0.28820000       0.56719200 </v>
   <v>       0.53841533       0.50351800       0.49157133 </v>
   <v>       0.54517533       0.34518533       0.52720267 </v>
   <v>       0.44852667       0.43408267       0.61880267 </v>
   <v>       0.42113800       0.40054867       0.45143667 </v>
   <v>       0.22389400       0.57517800       0.53952333 </v>
   <v>       0.34146600       0.54676133       0.64691667 </v>
   <v>       0.34516333       0.68684000       0.56711600 </v>
   <v>       0.48471267       0.65733600       0.47339200 </v>
   <v>       0.62597267       0.47106333       0.61695267 </v>
   <v>       0.48359533       0.59939067       0.61812733 </v>
   <v>       0.74625333       0.49089800       0.64241800 </v>
   <v>       0.81873333       0.51097267       0.63855600 </v>
  </varray>
 </structure>
 <calculation>
  <scstep>
   <time name="dav">    7.45    7.47</time>
   <time name="total">    8.61    8.63</time>
   <energy>
    <i name="alphaZ">     41.16232785 </i>
    <i name="ewald">  16449.38878308 </i>
    <i name="hartreedc"> -33466.07382322 </i>
    <i name="XCdc">    623.71542138 </i>
    <i name="pawpsdc">  16421.75059358 </i>
    <i name="pawaedc"> -17800.06104309 </i>
    <i name="eentropy">      0.01166807 </i>
    <i name="bandstr">    189.81950130 </i>
    <i name="atom">  18662.21924712 </i>
    <i name="e_fr_energy">   1121.93267606 </i>
    <i name="e_wo_entrp">   1121.92100800 </i>
    <i name="e_0_energy">   1121.92878671 </i>
   </energy>
  </scstep>
  <scstep>
   <time name="dav">    7.35    7.36</time>
   <time name="total">    7.35    7.36</time>
   <energy>
    <i name="e_fr_energy">     90.57163405 </i>
    <i name="e_wo_entrp">     90.56582814 </i>
    <i name="e_0_energy">     90.56969875 </i>
   </energy>
  </scstep>
  <scstep>
   <time name="dav">   11.48   11.51</time>
   <time name="total">   11.48   11.52</time>
   <energy>
    <i name="e_fr_energy">    -33.16476614 </i>
    <i name="e_wo_entrp">    -33.17891666 </i>
    <i name="e_0_energy">    -33.16948298 </i>
   </energy>
  </scstep>
  <scstep>
   <time name="dav">   10.18   10.20</time>
   <time name="total">   10.18   10.20</time>
   <energy>
    <i name="e_fr_energy">    -55.66950056 </i>
    <i name="e_wo_entrp">    -55.67962313 </i>
    <i name="e_0_energy">    -55.67287475 </i>
   </energy>
  </scstep>
  <scstep>
   <time name="dav">   11.98   12.00</time>
   <time name="total">   12.67   12.69</time>
   <energy>
    <i name="e_fr_energy">    -57.13726906 </i>
    <i name="e_wo_entrp">    -57.14749671 </i>
    <i name="e_0_energy">    -57.14067828 </i>
   </energy>
  </scstep>
  <scstep>
   <time name="diag">    1.09    1.09</time>
   <time name="diis">    7.13    7.14</time>
   <time name="orth">    0.06    0.06</time>
   <time name="total">   10.08   10.10</time>
   <energy>
    <i name="e_fr_energy">    -55.60049457 </i>
    <i name="e_wo_entrp">    -55.60678361 </i>
    <i name="e_0_energy">    -55.60259092 </i>
   </energy>
  </scstep>
  <scstep>
   <time name="diag">    1.09    1.09</time>
   <time name="diis">    6.61    6.62</time>
   <time name="orth">    0.06    0.06</time>
   <time name="total">    9.58    9.59</time>
   <energy>
    <i name="e_fr_energy">    -49.10237779 </i>
    <i name="e_wo_entrp">    -49.11138687 </i>
    <i name="e_0_energy">    -49.10538082 </i>
   </energy>
  </scstep>
  <scstep>
   <time name="diag">    1.09    1.09</time>
   <time name="diis">    7.40    7.41</time>
   <time name="orth">    0.05    0.05</time>
   <time name="total">   10.37   10.38</time>
   <energy>
    <i name="e_fr_energy">    -48.89442205 </i>
    <i name="e_wo_entrp">    -48.90374094 </i>
    <i name="e_0_energy">    -48.89752835 </i>
   </energy>
  </scstep>
  <scstep>
   <time name="diag">    1.09    1.10</time>
   <time name="diis">    7.21    7.22</time>
   <time name="orth">    0.05    0.05</time>
   <time name="total">   10.18   10.20</time>
   <energy>
    <i name="e_fr_energy">    -48.84440751 </i>
    <i name="e_wo_entrp">    -48.85355328 </i>
    <i name="e_0_energy">    -48.84745610 </i>
   </energy>
  </scstep>
  <scstep>
   <time name="diag">    1.09    1.09</time>
   <time name="diis">    7.01    7.02</time>
   <time name="orth">    0.05    0.05</time>
   <time name="total">    9.98    9.99</time>
   <energy>
    <i name="e_fr_energy">    -48.78566614 </i>
    <i name="e_wo_entrp">    -48.79470559 </i>
    <i name="e_0_energy">    -48.78867929 </i>
   </energy>
  </scstep>
  <scstep>
   <time name="diag">    1.09    1.09</time>
   <time name="diis">    6.92    6.93</time>
   <time name="orth">    0.05    0.05</time>
   <time name="total">    9.94    9.95</time>
   <energy>
    <i name="e_fr_energy">    -48.77427579 </i>
    <i name="e_wo_entrp">    -48.78337813 </i>
    <i name="e_0_energy">    -48.77730990 </i>
   </energy>
  </scstep>
  <scstep>
   <time name="diag">    1.09    1.09</time>
   <time name="diis">    7.07    7.08</time>
   <time name="orth">    0.05    0.05</time>
   <time name="total">   10.10   10.11</time>
   <energy>
    <i name="e_fr_energy">    -48.77245538 </i>
    <i name="e_wo_entrp">    -48.78148658 </i>
    <i name="e_0_energy">    -48.77546578 </i>
   </energy>
  </scstep>
  <scstep>
   <time name="diag">    1.09    1.10</time>
   <time name="diis">    7.78    7.78</time>
   <time name="orth">    0.05    0.05</time>
   <time name="total">   10.80   10.81</time>
   <energy>
    <i name="e_fr_energy">    -48.77161929 </i>
    <i name="e_wo_entrp">    -48.78063754 </i>
    <i name="e_0_energy">    -48.77462538 </i>
   </energy>
  </scstep>
  <scstep>
   <time name="diag">    1.09    1.09</time>
   <time name="diis">    7.18    7.18</time>
   <time name="orth">    0.05    0.05</time>
   <time name="total">   10.20   10.21</time>
   <energy>
    <i name="e_fr_energy">    -48.77301949 </i>
    <i name="e_wo_entrp">    -48.78203273 </i>
    <i name="e_0_energy">    -48.77602391 </i>
   </energy>
  </scstep>
  <scstep>
   <time name="diag">    1.09    1.09</time>
   <time name="diis">    7.06    7.07</time>
   <time name="orth">    0.05    0.05</time>
   <time name="total">   10.09   10.10</time>
   <energy>
    <i name="e_fr_energy">    -48.77424778 </i>
    <i name="e_wo_entrp">    -48.78325481 </i>
    <i name="e_0_energy">    -48.77725013 </i>
   </energy>
  </scstep>
  <scstep>
   <time name="diag">    1.09    1.09</time>
   <time name="diis">    6.62    6.62</time>
   <time name="orth">    0.05    0.05</time>
   <time name="total">    9.64    9.65</time>
   <energy>
    <i name="e_fr_energy">    -48.77611093 </i>
    <i name="e_wo_entrp">    -48.78513214 </i>
    <i name="e_0_energy">    -48.77911800 </i>
   </energy>
  </scstep>
  <scstep>
   <time name="diag">    1.09    1.09</time>
   <time name="diis">    6.84    6.84</time>
   <time name="orth">    0.05    0.05</time>
   <time name="total">    9.87    9.88</time>
   <energy>
    <i name="e_fr_energy">    -48.77764507 </i>
    <i name="e_wo_entrp">    -48.78667512 </i>
    <i name="e_0_energy">    -48.78065509 </i>
   </energy>
  </scstep>
  <scstep>
   <time name="diag">    1.09    1.09</time>
   <time name="diis">    6.90    6.91</time>
   <time name="orth">    0.05    0.05</time>
   <time name="total">    9.93    9.94</time>
   <energy>
    <i name="e_fr_energy">    -48.77850267 </i>
    <i name="e_wo_entrp">    -48.78752176 </i>
    <i name="e_0_energy">    -48.78150903 </i>
   </energy>
  </scstep>
  <scstep>
   <time name="diag">    1.09    1.09</time>
   <time name="diis">    6.82    6.83</time>
   <time name="orth">    0.05    0.05</time>
   <time name="total">    9.86    9.87</time>
   <energy>
    <i name="e_fr_energy">    -48.77927298 </i>
    <i name="e_wo_entrp">    -48.78829588 </i>
    <i name="e_0_energy">    -48.78228061 </i>
   </energy>
  </scstep>
  <scstep>
   <time name="diag">    1.09    1.09</time>
   <time name="diis">    6.74    6.74</time>
   <time name="orth">    0.05    0.05</time>
   <time name="total">    9.78    9.79</time>
   <energy>
    <i name="e_fr_energy">    -48.77977252 </i>
    <i name="e_wo_entrp">    -48.78879418 </i>
    <i name="e_0_energy">    -48.78277974 </i>
   </energy>
  </scstep>
  <scstep>
   <time name="diag">    1.09    1.09</time>
   <time name="diis">    6.60    6.60</time>
   <time name="orth">    0.05    0.05</time>
   <time name="total">    9.63    9.63</time>
   <energy>
    <i name="e_fr_energy">    -48.78015846 </i>
    <i name="e_wo_entrp">    -48.78917838 </i>
    <i name="e_0_energy">    -48.78316510 </i>
   </energy>
  </scstep>
  <scstep>
   <time name="diag">    1.09    1.09</time>
   <time name="diis">    7.12    7.12</time>
   <time name="orth">    0.05    0.05</time>
   <time name="total">   10.15   10.16</time>
   <energy>
    <i name="e_fr_energy">    -48.78037911 </i>
    <i name="e_wo_entrp">    -48.78940166 </i>
    <i name="e_0_energy">    -48.78338663 </i>
   </energy>
  </scstep>
  <scstep>
   <time name="diag">    1.09    1.09</time>
   <time name="diis">    6.81    6.81</time>
   <time name="orth">    0.05    0.05</time>
   <time name="total">    9.85    9.85</time>
   <energy>
    <i name="e_fr_energy">    -48.78050920 </i>
    <i name="e_wo_entrp">    -48.78953182 </i>
    <i name="e_0_energy">    -48.78351674 </i>
   </energy>
  </scstep>
  <scstep>
   <time name="diag">    1.09    1.09</time>
   <time name="diis">    6.89    6.90</time>
   <time name="orth">    0.05    0.05</time>
   <time name="total">    9.93    9.94</time>
   <energy>
    <i name="e_fr_energy">    -48.78060477 </i>
    <i name="e_wo_entrp">    -48.78962728 </i>
    <i name="e_0_energy">    -48.78361227 </i>
   </energy>
  </scstep>
  <scstep>
   <time name="diag">    1.09    1.09</time>
   <time name="diis">    6.94    6.95</time>
   <time name="orth">    0.05    0.05</time>
   <time name="total">    9.97    9.98</time>
   <energy>
    <i name="e_fr_energy">    -48.78065843 </i>
    <i name="e_wo_entrp">    -48.78968057 </i>
    <i name="e_0_energy">    -48.78366581 </i>
   </energy>
  </scstep>
  <scstep>
   <time name="diag">    1.09    1.09</time>
   <time name="diis">    5.73    5.73</time>
   <time name="orth">    0.05    0.05</time>
   <time name="total">    8.77    8.77</time>
   <energy>
    <i name="e_fr_energy">    -48.78067869 </i>
    <i name="e_wo_entrp">    -48.78970088 </i>
    <i name="e_0_energy">    -48.78368609 </i>
   </energy>
  </scstep>
  <scstep>
   <time name="diag">    1.09    1.09</time>
   <time name="diis">    4.80    4.80</time>
   <time name="orth">    0.05    0.05</time>
   <time name="total">    7.84    7.85</time>
   <energy>
    <i name="e_fr_energy">    -48.78068919 </i>
    <i name="e_wo_entrp">    -48.78971158 </i>
    <i name="e_0_energy">    -48.78369665 </i>
   </energy>
  </scstep>
  <scstep>
   <time name="diag">    1.09    1.10</time>
   <time name="diis">    4.80    4.81</time>
   <time name="orth">    0.05    0.05</time>
   <time name="total">    7.85    7.87</time>
   <energy>
    <i name="e_fr_energy">    -48.78069407 </i>
    <i name="e_wo_entrp">    -48.78971653 </i>
    <i name="e_0_energy">    -48.78370156 </i>
   </energy>
  </scstep>
  <scstep>
   <time name="diag">    1.09    1.09</time>
   <time name="diis">    4.86    4.87</time>
   <time name="orth">    0.05    0.05</time>
   <time name="total">    7.92    7.92</time>
   <energy>
    <i name="e_fr_energy">    -48.78069668 </i>
    <i name="e_wo_entrp">    -48.78971914 </i>
    <i name="e_0_energy">    -48.78370417 </i>
   </energy>
  </scstep>
  <scstep>
   <time name="diag">    1.09    1.09</time>
   <time name="diis">    4.66    4.67</time>
   <time name="orth">    0.05    0.05</time>
   <time name="total">    7.72    7.73</time>
   <energy>
    <i name="e_fr_energy">    -48.78069805 </i>
    <i name="e_wo_entrp">    -48.78972055 </i>
    <i name="e_0_energy">    -48.78370555 </i>
   </energy>
  </scstep>
  <scstep>
   <time name="diag">    1.09    1.09</time>
   <time name="diis">    4.51    4.52</time>
   <time name="orth">    0.05    0.05</time>
   <time name="total">    7.58    7.59</time>
   <energy>
    <i name="e_fr_energy">    -48.78069927 </i>
    <i name="e_wo_entrp">    -48.78972174 </i>
    <i name="e_0_energy">    -48.78370676 </i>
   </energy>
  </scstep>
  <scstep>
   <time name="diag">    1.09    1.09</time>
   <time name="diis">    4.47    4.47</time>
   <time name="orth">    0.05    0.05</time>
   <time name="total">    7.54    7.55</time>
   <energy>
    <i name="e_fr_energy">    -48.78069975 </i>
    <i name="e_wo_entrp">    -48.78972224 </i>
    <i name="e_0_energy">    -48.78370725 </i>
   </energy>
  </scstep>
  <scstep>
   <time name="diag">    1.09    1.10</time>
   <time name="diis">    4.49    4.49</time>
   <time name="orth">    0.05    0.05</time>
   <time name="total">    7.57    7.58</time>
   <energy>
    <i name="e_fr_energy">    -48.78070026 </i>
    <i name="e_wo_entrp">    -48.78972274 </i>
    <i name="e_0_energy">    -48.78370775 </i>
   </energy>
  </scstep>
  <scstep>
   <time name="diag">    1.09    1.09</time>
   <time name="diis">    3.96    3.97</time>
   <time name="orth">    0.05    0.05</time>
   <time name="total">    7.05    7.06</time>
   <energy>
    <i name="e_fr_energy">    -48.78070059 </i>
    <i name="e_wo_entrp">    -48.78972307 </i>
    <i name="e_0_energy">    -48.78370808 </i>
   </energy>
  </scstep>
  <scstep>
   <time name="diag">    1.09    1.09</time>
   <time name="diis">    3.67    3.67</time>
   <time name="orth">    0.05    0.05</time>
   <time name="total">    6.76    6.76</time>
   <energy>
    <i name="e_fr_energy">    -48.78070091 </i>
    <i name="e_wo_entrp">    -48.78972339 </i>
    <i name="e_0_energy">    -48.78370840 </i>
   </energy>
  </scstep>
  <scstep>
   <time name="diag">    1.09    1.09</time>
   <time name="diis">    3.70    3.70</time>
   <time name="orth">    0.05    0.05</time>
   <time name="total">    6.80    6.80</time>
   <energy>
    <i name="e_fr_energy">    -48.78070105 </i>
    <i name="e_wo_entrp">    -48.78972353 </i>
    <i name="e_0_energy">    -48.78370854 </i>
   </energy>
  </scstep>
  <scstep>
   <time name="diag">    1.09    1.09</time>
   <time name="diis">    3.49    3.49</time>
   <time name="orth">    0.05    0.05</time>
   <time name="total">    5.78    5.79</time>
   <energy>
    <i name="alphaZ">     41.16232785 </i>
    <i name="ewald">  16449.38878308 </i>
    <i name="hartreedc"> -33430.67275633 </i>
    <i name="XCdc">    615.82285748 </i>
    <i name="pawpsdc">  17715.57556987 </i>
    <i name="pawaedc"> -19114.59490781 </i>
    <i name="eentropy">      0.00902248 </i>
    <i name="bandstr">   -987.69084484 </i>
    <i name="atom">  18662.21924712 </i>
    <i name="e_fr_energy">    -48.78070111 </i>
    <i name="e_wo_entrp">    -48.78972358 </i>
    <i name="e_0_energy">    -48.78370860 </i>
   </energy>
  </scstep>
  <structure>
   <crystal>
    <varray name="basis" >
     <v>      15.00000000       0.00000000       0.00000000 </v>
     <v>       0.00000000      15.00000000       0.00000000 </v>
     <v>       0.00000000       0.00000000      15.00000000 </v>
    </varray>
    <i name="volume">   3375.00000000 </i>
    <varray name="rec_basis" >
     <v>       0.06666667       0.00000000       0.00000000 </v>
     <v>       0.00000000       0.06666667       0.00000000 </v>
     <v>       0.00000000       0.00000000       0.06666667 </v>
    </varray>
   </crystal>
   <varray name="positions" >
    <v>       0.29423800       0.42634800       0.54947400 </v>
    <v>       0.37693000       0.54838200       0.49076600 </v>
    <v>       0.38604867       0.28820000       0.56719200 </v>
    <v>       0.53841533       0.50351800       0.49157133 </v>
    <v>       0.54517533       0.34518533       0.52720267 </v>
    <v>       0.44852667       0.43408267       0.61880267 </v>
    <v>       0.42113800       0.40054867       0.45143667 </v>
    <v>       0.22389400       0.57517800       0.53952333 </v>
    <v>       0.34146600       0.54676133       0.64691667 </v>
    <v>       0.34516333       0.68684000       0.56711600 </v>
    <v>       0.48471267       0.65733600       0.47339200 </v>
    <v>       0.62597267       0.47106333       0.61695267 </v>
    <v>       0.48359533       0.59939067       0.61812733 </v>
    <v>       0.74625333       0.49089800       0.64241800 </v>
    <v>       0.81873333       0.51097267       0.63855600 </v>
   </varray>
  </structure>
  <varray name="forces" >
   <v>      -0.23710243      -0.46618717       0.15704348 </v>
   <v>      -0.11213176       0.09590715      -0.26695159 </v>
   <v>       0.24243897       0.45119332      -0.13016204 </v>
   <v>      -0.20744064       0.24613623      -0.07548967 </v>
   <v>       0.29594812      -0.17094547       0.38628356 </v>
   <v>       0.40243326      -0.11638870      -0.34587512 </v>
   <v>      -0.29406312      -0.25185978      -0.00826411 </v>
   <v>       0.12803872       0.00330848       0.08428467 </v>
   <v>      -0.74788163       0.10810782       0.46798061 </v>
   <v>       0.20066905      -0.02944712      -0.10533436 </v>
   <v>       0.25504314       0.52931608      -0.12346337 </v>
   <v>      -0.00354011      -0.02007615      -0.04016391 </v>
   <v>       0.51509499      -0.31906424      -0.06162988 </v>
   <v>      -3.21435617      -0.80067128       0.24622895 </v>
   <v>       2.77684961       0.74067083      -0.18448723 </v>
  </varray>
  <varray name="stress" >
   <v>       1.20238311       0.56955316      -0.23640185 </v>
   <v>       0.56955317       0.43240053      -0.37974186 </v>
   <v>      -0.23640187      -0.37974186       0.21636543 </v>
  </varray>
  <energy>
   <i name="e_fr_energy">    -48.78070111 </i>
   <i name="e_wo_entrp">    -48.78370860 </i>
   <i name="e_0_energy">      0.00902248 </i>
  </energy>
  <time name="totalsc">  350.78  351.19</time>
  <eigenvalues>
   <array>
    <dimension dim="1">band</dimension>
    <dimension dim="2">kpoint</dimension>
    <dimension dim="3">spin</dimension>
    <field>eigene</field>
    <field>occ</field>
    <set>
     <set comment="spin 1">
      <set comment="kpoint 1">
       <r>  -29.0571    1.0000 </r>
       <r>  -13.8891    1.0000 </r>
       <r>  -11.6121    1.0000 </r>
       <r>  -11.5322    1.0000 </r>
       <r>  -11.1201    1.0000 </r>
       <r>  -10.1818    1.0000 </r>
       <r>   -8.6301    1.0000 </r>
       <r>   -8.1953    1.0000 </r>
       <r>   -7.6896    1.0000 </r>
       <r>   -7.5380    1.0000 </r>
       <r>   -7.4923    1.0000 </r>
       <r>   -7.3065    1.0000 </r>
       <r>   -7.2051    1.0000 </r>
       <r>   -7.1180    1.0000 </r>
       <r>   -6.9764    1.0000 </r>
       <r>   -6.9339    1.0000 </r>
       <r>   -6.8181    1.0000 </r>
       <r>   -6.7912    1.0000 </r>
       <r>   -6.6773    1.0000 </r>
       <r>   -6.6437    1.0000 </r>
       <r>   -6.5610    1.0000 </r>
       <r>   -6.5374    1.0000 </r>
       <r>   -6.4878    1.0000 </r>
       <r>   -6.4692    1.0000 </r>
       <r>   -6.4034    1.0000 </r>
       <r>   -6.3715    1.0000 </r>
       <r>   -6.2842    1.0000 </r>
       <r>   -6.2450    1.0000 </r>
       <r>   -6.2069    1.0000 </r>
       <r>   -6.1851    1.0000 </r>
       <r>   -6.1154    1.0000 </r>
       <r>   -6.0932    1.0000 </r>
       <r>   -6.0399    1.0000 </r>
       <r>   -5.9815    1.0000 </r>
       <r>   -5.8650    1.0000 </r>
       <r>   -5.7890    1.0000 </r>
       <r>   -5.7793    1.0000 </r>
       <r>   -5.7039    1.0000 </r>
       <r>   -5.6605    1.0000 </r>
       <r>   -5.5716    1.0000 </r>
       <r>   -5.5633    1.0000 </r>
       <r>   -5.5216    1.0000 </r>
       <r>   -5.4442    1.0000 </r>
       <r>   -5.4428    1.0000 </r>
       <r>   -5.4292    1.0000 </r>
       <r>   -5.3626    1.0000 </r>
       <r>   -5.3595    1.0000 </r>
       <r>   -5.3331    1.0000 </r>
       <r>   -5.3222    1.0000 </r>
       <r>   -5.2881    1.0000 </r>
       <r>   -5.2461    1.0000 </r>
       <r>   -5.2377    1.0000 </r>
       <r>   -5.2305    1.0000 </r>
       <r>   -5.1881    1.0000 </r>
       <r>   -5.1817    1.0000 </r>
       <r>   -5.1308    1.0000 </r>
       <r>   -5.1160    1.0000 </r>
       <r>   -5.1058    1.0000 </r>
       <r>   -5.0780    1.0000 </r>
       <r>   -5.0319    1.0000 </r>
       <r>   -4.9941    1.0000 </r>
       <r>   -4.9521    1.0000 </r>
       <r>   -4.9447    1.0000 </r>
       <r>   -4.9339    1.0000 </r>
       <r>   -4.8929    1.0000 </r>
       <r>   -4.8782    1.0000 </r>
       <r>   -4.8491    1.0000 </r>
       <r>   -4.8295    1.0000 </r>
       <r>   -4.8242    1.0000 </r>
       <r>   -4.7839    1.0000 </r>
       <r>   -4.7540    1.0000 </r>
       <r>   -4.7285    1.0000 </r>
       <r>   -4.6900    1.0000 </r>
       <r>   -4.4988    1.0000 </r>
       <r>   -4.1772    1.0000 </r>
       <r>   -4.1113    1.0000 </r>
       <r>   -3.4455    1.0000 </r>
       <r>   -2.9777   -0.0000 </r>
       <r>   -2.8128   -0.0000 </r>
       <r>   -2.4264   -0.0000 </r>
       <r>   -2.2704   -0.0000 </r>
       <r>   -1.9679   -0.0000 </r>
       <r>   -1.8328   -0.0000 </r>
       <r>   -1.7220   -0.0000 </r>
       <r>   -1.3943   -0.0000 </r>
       <r>   -0.9928   -0.0000 </r>
       <r>   -0.9093   -0.0000 </r>
       <r>   -0.6336   -0.0000 </r>
       <r>   -0.3280    0.0000 </r>
       <r>   -0.2835    0.0000 </r>
       <r>   -0.1836    0.0000 </r>
       <r>    0.1673    0.0000 </r>
      </set>
     </set>
     <set comment="spin 2">
      <set comment="kpoint 1">
       <r>  -29.0359    1.0000 </r>
       <r>  -13.8518    1.0000 </r>
       <r>  -11.5671    1.0000 </r>
       <r>  -11.5151    1.0000 </r>
       <r>  -11.0633    1.0000 </r>
       <r>  -10.1406    1.0000 </r>
       <r>   -8.6062    1.0000 </r>
       <r>   -8.1491    1.0000 </r>
       <r>   -7.6484    1.0000 </r>
       <r>   -7.5156    1.0000 </r>
       <r>   -7.4631    1.0000 </r>
       <r>   -7.2610    1.0000 </r>
       <r>   -7.1755    1.0000 </r>
       <r>   -7.0830    1.0000 </r>
       <r>   -6.9509    1.0000 </r>
       <r>   -6.8954    1.0000 </r>
       <r>   -6.7908    1.0000 </r>
       <r>   -6.7627    1.0000 </r>
       <r>   -6.6479    1.0000 </r>
       <r>   -6.6236    1.0000 </r>
       <r>   -6.5330    1.0000 </r>
       <r>   -6.5140    1.0000 </r>
       <r>   -6.4611    1.0000 </r>
       <r>   -6.4490    1.0000 </r>
       <r>   -6.3761    1.0000 </r>
       <r>   -6.3403    1.0000 </r>
       <r>   -6.2575    1.0000 </r>
       <r>   -6.2199    1.0000 </r>
       <r>   -6.1876    1.0000 </r>
       <r>   -6.1583    1.0000 </r>
       <r>   -6.0867    1.0000 </r>
       <r>   -6.0695    1.0000 </r>
       <r>   -6.0080    1.0000 </r>
       <r>   -5.9603    1.0000 </r>
       <r>   -5.8388    1.0000 </r>
       <r>   -5.7628    1.0000 </r>
       <r>   -5.7510    1.0000 </r>
       <r>   -5.6708    1.0000 </r>
       <r>   -5.6422    1.0000 </r>
       <r>   -5.5485    1.0000 </r>
       <r>   -5.5389    1.0000 </r>
       <r>   -5.5002    1.0000 </r>
       <r>   -5.4190    1.0000 </r>
       <r>   -5.4118    1.0000 </r>
       <r>   -5.4003    1.0000 </r>
       <r>   -5.3395    1.0000 </r>
       <r>   -5.3307    1.0000 </r>
       <r>   -5.3026    1.0000 </r>
       <r>   -5.2939    1.0000 </r>
       <r>   -5.2636    1.0000 </r>
       <r>   -5.2233    1.0000 </r>
       <r>   -5.2138    1.0000 </r>
       <r>   -5.2029    1.0000 </r>
       <r>   -5.1637    1.0000 </r>
       <r>   -5.1538    1.0000 </r>
       <r>   -5.1111    1.0000 </r>
       <r>   -5.0945    1.0000 </r>
       <r>   -5.0853    1.0000 </r>
       <r>   -5.0509    1.0000 </r>
       <r>   -5.0078    1.0000 </r>
       <r>   -4.9686    1.0000 </r>
       <r>   -4.9319    1.0000 </r>
       <r>   -4.9202    1.0000 </r>
       <r>   -4.9103    1.0000 </r>
       <r>   -4.8664    1.0000 </r>
       <r>   -4.8525    1.0000 </r>
       <r>   -4.8279    1.0000 </r>
       <r>   -4.7959    1.0000 </r>
       <r>   -4.7801    1.0000 </r>
       <r>   -4.7532    1.0000 </r>
       <r>   -4.7205    1.0000 </r>
       <r>   -4.7034    1.0000 </r>
       <r>   -4.6633    1.0000 </r>
       <r>   -4.4562    1.0000 </r>
       <r>   -4.1296    1.0303 </r>
       <r>   -4.0588    0.9697 </r>
       <r>   -3.2434   -0.0000 </r>
       <r>   -2.9220   -0.0000 </r>
       <r>   -2.7606   -0.0000 </r>
       <r>   -2.3657   -0.0000 </r>
       <r>   -2.1733   -0.0000 </r>
       <r>   -1.9321   -0.0000 </r>
       <r>   -1.7419   -0.0000 </r>
       <r>   -1.6578   -0.0000 </r>
       <r>   -1.2810   -0.0000 </r>
       <r>   -0.8998    0.0000 </r>
       <r>   -0.8099    0.0000 </r>
       <r>   -0.5460    0.0000 </r>
       <r>   -0.2532    0.0000 </r>
       <r>   -0.2299    0.0000 </r>
       <r>   -0.0823    0.0000 </r>
       <r>    0.2198    0.0000 </r>
      </set>
     </set>
    </set>
   </array>
  </eigenvalues>
  <separator name="orbital magnetization" >
   <v name="MAGDIPOLOUT">      0.00000000      0.00000000      0.00000000</v>
  </separator>
  <dos>
   <i name="efermi">     -3.98588690 </i>
   <total>
    <array>
     <dimension dim="1">gridpoints</dimension>
     <dimension dim="2">spin</dimension>
     <field>energy</field>
     <field>total</field>
     <field>integrated</field>
     <set>
      <set comment="spin 1">
       <r>   -30.5210     0.0000     0.0000 </r>
       <r>   -30.4136     0.0000     0.0000 </r>
       <r>   -30.3063     0.0000     0.0000 </r>
       <r>   -30.1989     0.0000     0.0000 </r>
       <r>   -30.0916     0.0000     0.0000 </r>
       <r>   -29.9842     0.0000     0.0000 </r>
       <r>   -29.8769    -0.0000    -0.0000 </r>
       <r>   -29.7695    -0.0000    -0.0000 </r>
       <r>   -29.6622    -0.0000    -0.0000 </r>
       <r>   -29.5548    -0.0000    -0.0000 </r>
       <r>   -29.4475    -0.0000    -0.0000 </r>
       <r>   -29.3401    -0.0044    -0.0005 </r>
       <r>   -29.2328    -0.2966    -0.0323 </r>
       <r>   -29.1254     1.1609     0.0923 </r>
       <r>   -29.0181    14.1211     1.6082 </r>
       <r>   -28.9107     4.1944     2.0585 </r>
       <r>   -28.8034    -0.5263     2.0020 </r>
       <r>   -28.6960    -0.0182     2.0000 </r>
       <r>   -28.5887    -0.0000     2.0000 </r>
       <r>   -28.4813    -0.0000     2.0000 </r>
       <r>   -28.3740    -0.0000     2.0000 </r>
       <r>   -28.2666     0.0000     2.0000 </r>
       <r>   -28.1593     0.0000     2.0000 </r>
       <r>   -28.0520     0.0000     2.0000 </r>
       <r>   -27.9446     0.0000     2.0000 </r>
       <r>   -27.8373     0.0000     2.0000 </r>
       <r>   -27.7299     0.0000     2.0000 </r>
       <r>   -27.6226     0.0000     2.0000 </r>
       <r>   -27.5152     0.0000     2.0000 </r>
       <r>   -27.4079     0.0000     2.0000 </r>
       <r>   -27.3005     0.0000     2.0000 </r>
       <r>   -27.1932     0.0000     2.0000 </r>
       <r>   -27.0858     0.0000     2.0000 </r>
       <r>   -26.9785     0.0000     2.0000 </r>
       <r>   -26.8711     0.0000     2.0000 </r>
       <r>   -26.7638     0.0000     2.0000 </r>
       <r>   -26.6564     0.0000     2.0000 </r>
       <r>   -26.5491     0.0000     2.0000 </r>
       <r>   -26.4417     0.0000     2.0000 </r>
       <r>   -26.3344     0.0000     2.0000 </r>
       <r>   -26.2270     0.0000     2.0000 </r>
       <r>   -26.1197     0.0000     2.0000 </r>
       <r>   -26.0123     0.0000     2.0000 </r>
       <r>   -25.9050     0.0000     2.0000 </r>
       <r>   -25.7976     0.0000     2.0000 </r>
       <r>   -25.6903     0.0000     2.0000 </r>
       <r>   -25.5829     0.0000     2.0000 </r>
       <r>   -25.4756     0.0000     2.0000 </r>
       <r>   -25.3682     0.0000     2.0000 </r>
       <r>   -25.2609     0.0000     2.0000 </r>
       <r>   -25.1535     0.0000     2.0000 </r>
       <r>   -25.0462     0.0000     2.0000 </r>
       <r>   -24.9388     0.0000     2.0000 </r>
       <r>   -24.8315     0.0000     2.0000 </r>
       <r>   -24.7241     0.0000     2.0000 </r>
       <r>   -24.6168     0.0000     2.0000 </r>
       <r>   -24.5094     0.0000     2.0000 </r>
       <r>   -24.4021     0.0000     2.0000 </r>
       <r>   -24.2947     0.0000     2.0000 </r>
       <r>   -24.1874     0.0000     2.0000 </r>
       <r>   -24.0800     0.0000     2.0000 </r>
       <r>   -23.9727     0.0000     2.0000 </r>
       <r>   -23.8653     0.0000     2.0000 </r>
       <r>   -23.7580     0.0000     2.0000 </r>
       <r>   -23.6507     0.0000     2.0000 </r>
       <r>   -23.5433     0.0000     2.0000 </r>
       <r>   -23.4360     0.0000     2.0000 </r>
       <r>   -23.3286     0.0000     2.0000 </r>
       <r>   -23.2213     0.0000     2.0000 </r>
       <r>   -23.1139     0.0000     2.0000 </r>
       <r>   -23.0066     0.0000     2.0000 </r>
       <r>   -22.8992     0.0000     2.0000 </r>
       <r>   -22.7919     0.0000     2.0000 </r>
       <r>   -22.6845     0.0000     2.0000 </r>
       <r>   -22.5772     0.0000     2.0000 </r>
       <r>   -22.4698     0.0000     2.0000 </r>
       <r>   -22.3625     0.0000     2.0000 </r>
       <r>   -22.2551     0.0000     2.0000 </r>
       <r>   -22.1478     0.0000     2.0000 </r>
       <r>   -22.0404     0.0000     2.0000 </r>
       <r>   -21.9331     0.0000     2.0000 </r>
       <r>   -21.8257     0.0000     2.0000 </r>
       <r>   -21.7184     0.0000     2.0000 </r>
       <r>   -21.6110     0.0000     2.0000 </r>
       <r>   -21.5037     0.0000     2.0000 </r>
       <r>   -21.3963     0.0000     2.0000 </r>
       <r>   -21.2890     0.0000     2.0000 </r>
       <r>   -21.1816     0.0000     2.0000 </r>
       <r>   -21.0743     0.0000     2.0000 </r>
       <r>   -20.9669     0.0000     2.0000 </r>
       <r>   -20.8596     0.0000     2.0000 </r>
       <r>   -20.7522     0.0000     2.0000 </r>
       <r>   -20.6449     0.0000     2.0000 </r>
       <r>   -20.5375     0.0000     2.0000 </r>
       <r>   -20.4302     0.0000     2.0000 </r>
       <r>   -20.3228     0.0000     2.0000 </r>
       <r>   -20.2155     0.0000     2.0000 </r>
       <r>   -20.1081     0.0000     2.0000 </r>
       <r>   -20.0008     0.0000     2.0000 </r>
       <r>   -19.8934     0.0000     2.0000 </r>
       <r>   -19.7861     0.0000     2.0000 </r>
       <r>   -19.6787     0.0000     2.0000 </r>
       <r>   -19.5714     0.0000     2.0000 </r>
       <r>   -19.4640     0.0000     2.0000 </r>
       <r>   -19.3567     0.0000     2.0000 </r>
       <r>   -19.2494     0.0000     2.0000 </r>
       <r>   -19.1420     0.0000     2.0000 </r>
       <r>   -19.0347     0.0000     2.0000 </r>
       <r>   -18.9273     0.0000     2.0000 </r>
       <r>   -18.8200     0.0000     2.0000 </r>
       <r>   -18.7126     0.0000     2.0000 </r>
       <r>   -18.6053     0.0000     2.0000 </r>
       <r>   -18.4979     0.0000     2.0000 </r>
       <r>   -18.3906     0.0000     2.0000 </r>
       <r>   -18.2832     0.0000     2.0000 </r>
       <r>   -18.1759     0.0000     2.0000 </r>
       <r>   -18.0685     0.0000     2.0000 </r>
       <r>   -17.9612     0.0000     2.0000 </r>
       <r>   -17.8538     0.0000     2.0000 </r>
       <r>   -17.7465     0.0000     2.0000 </r>
       <r>   -17.6391     0.0000     2.0000 </r>
       <r>   -17.5318     0.0000     2.0000 </r>
       <r>   -17.4244     0.0000     2.0000 </r>
       <r>   -17.3171     0.0000     2.0000 </r>
       <r>   -17.2097     0.0000     2.0000 </r>
       <r>   -17.1024     0.0000     2.0000 </r>
       <r>   -16.9950     0.0000     2.0000 </r>
       <r>   -16.8877     0.0000     2.0000 </r>
       <r>   -16.7803     0.0000     2.0000 </r>
       <r>   -16.6730     0.0000     2.0000 </r>
       <r>   -16.5656     0.0000     2.0000 </r>
       <r>   -16.4583     0.0000     2.0000 </r>
       <r>   -16.3509     0.0000     2.0000 </r>
       <r>   -16.2436     0.0000     2.0000 </r>
       <r>   -16.1362     0.0000     2.0000 </r>
       <r>   -16.0289     0.0000     2.0000 </r>
       <r>   -15.9215     0.0000     2.0000 </r>
       <r>   -15.8142     0.0000     2.0000 </r>
       <r>   -15.7068     0.0000     2.0000 </r>
       <r>   -15.5995     0.0000     2.0000 </r>
       <r>   -15.4921     0.0000     2.0000 </r>
       <r>   -15.3848     0.0000     2.0000 </r>
       <r>   -15.2774     0.0000     2.0000 </r>
       <r>   -15.1701     0.0000     2.0000 </r>
       <r>   -15.0627     0.0000     2.0000 </r>
       <r>   -14.9554     0.0000     2.0000 </r>
       <r>   -14.8481     0.0000     2.0000 </r>
       <r>   -14.7407    -0.0000     2.0000 </r>
       <r>   -14.6334    -0.0000     2.0000 </r>
       <r>   -14.5260    -0.0000     2.0000 </r>
       <r>   -14.4187    -0.0000     2.0000 </r>
       <r>   -14.3113    -0.0000     2.0000 </r>
       <r>   -14.2040    -0.0007     1.9999 </r>
       <r>   -14.0966    -0.1152     1.9876 </r>
       <r>   -13.9893    -0.3556     1.9494 </r>
       <r>   -13.8819    10.9150     3.1211 </r>
       <r>   -13.7746     8.8278     4.0687 </r>
       <r>   -13.6672    -0.5714     4.0074 </r>
       <r>   -13.5599    -0.0687     4.0000 </r>
       <r>   -13.4525    -0.0003     4.0000 </r>
       <r>   -13.3452    -0.0000     4.0000 </r>
       <r>   -13.2378    -0.0000     4.0000 </r>
       <r>   -13.1305     0.0000     4.0000 </r>
       <r>   -13.0231     0.0000     4.0000 </r>
       <r>   -12.9158     0.0000     4.0000 </r>
       <r>   -12.8084     0.0000     4.0000 </r>
       <r>   -12.7011     0.0000     4.0000 </r>
       <r>   -12.5937     0.0000     4.0000 </r>
       <r>   -12.4864    -0.0000     4.0000 </r>
       <r>   -12.3790    -0.0000     4.0000 </r>
       <r>   -12.2717    -0.0000     4.0000 </r>
       <r>   -12.1643    -0.0000     4.0000 </r>
       <r>   -12.0570    -0.0000     4.0000 </r>
       <r>   -11.9496    -0.0002     4.0000 </r>
       <r>   -11.8423    -0.0508     3.9945 </r>
       <r>   -11.7349    -0.7457     3.9145 </r>
       <r>   -11.6276     7.3425     4.7027 </r>
       <r>   -11.5202    23.5384     7.2295 </r>
       <r>   -11.4129     7.9849     8.0867 </r>
       <r>   -11.3055    -0.9805     7.9814 </r>
       <r>   -11.1982     0.4527     8.0300 </r>
       <r>   -11.0908    13.4374     9.4725 </r>
       <r>   -10.9835     5.5273    10.0659 </r>
       <r>   -10.8761    -0.5855    10.0030 </r>
       <r>   -10.7688    -0.0281    10.0000 </r>
       <r>   -10.6614    -0.0001    10.0000 </r>
       <r>   -10.5541    -0.0000    10.0000 </r>
       <r>   -10.4468    -0.0108     9.9988 </r>
       <r>   -10.3394    -0.4400     9.9516 </r>
       <r>   -10.2321     2.8495    10.2575 </r>
       <r>   -10.1247    14.4950    11.8135 </r>
       <r>   -10.0174     2.1285    12.0420 </r>
       <r>    -9.9100    -0.3837    12.0008 </r>
       <r>    -9.8027    -0.0077    12.0000 </r>
       <r>    -9.6953    -0.0000    12.0000 </r>
       <r>    -9.5880    -0.0000    12.0000 </r>
       <r>    -9.4806    -0.0000    12.0000 </r>
       <r>    -9.3733    -0.0000    12.0000 </r>
       <r>    -9.2659    -0.0000    12.0000 </r>
       <r>    -9.1586    -0.0000    12.0000 </r>
       <r>    -9.0512    -0.0000    12.0000 </r>
       <r>    -8.9439    -0.0008    11.9999 </r>
       <r>    -8.8365    -0.1197    11.9871 </r>
       <r>    -8.7292    -0.3289    11.9518 </r>
       <r>    -8.6218    11.0677    13.1399 </r>
       <r>    -8.5145     8.6578    14.0693 </r>
       <r>    -8.4071    -0.6791    13.9964 </r>
       <r>    -8.2998    -0.5092    13.9417 </r>
       <r>    -8.1924    10.3140    15.0489 </r>
       <r>    -8.0851     9.4699    16.0655 </r>
       <r>    -7.9777    -0.5325    16.0083 </r>
       <r>    -7.8704    -0.3407    15.9718 </r>
       <r>    -7.7630     0.7277    16.0499 </r>
       <r>    -7.6557    12.8158    17.4256 </r>
       <r>    -7.5483    15.4329    19.0823 </r>
       <r>    -7.4410    24.6548    21.7290 </r>
       <r>    -7.3336     7.5570    22.5402 </r>
       <r>    -7.2263    18.8697    24.5659 </r>
       <r>    -7.1189    22.0059    26.9282 </r>
       <r>    -7.0116    14.9112    28.5289 </r>
       <r>    -6.9042    26.1788    31.3391 </r>
       <r>    -6.7969    26.8263    34.2189 </r>
       <r>    -6.6895    26.6621    37.0811 </r>
       <r>    -6.5822    34.0119    40.7322 </r>
       <r>    -6.4748    49.3557    46.0305 </r>
       <r>    -6.3675    43.2647    50.6749 </r>
       <r>    -6.2602    35.1821    54.4516 </r>
       <r>    -6.1528    50.5871    59.8821 </r>
       <r>    -6.0455    45.4788    64.7642 </r>
       <r>    -5.9381    27.8487    67.7537 </r>
       <r>    -5.8308    21.8868    70.1032 </r>
       <r>    -5.7234    40.4663    74.4473 </r>
       <r>    -5.6161    34.8694    78.1904 </r>
       <r>    -5.5087    44.9691    83.0178 </r>
       <r>    -5.4014    60.8666    89.5518 </r>
       <r>    -5.2940    81.6584    98.3177 </r>
       <r>    -5.1867    86.3794   107.5904 </r>
       <r>    -5.0793    78.8961   116.0598 </r>
       <r>    -4.9720    63.3631   122.8618 </r>
       <r>    -4.8646    86.3497   132.1313 </r>
       <r>    -4.7573    83.4352   141.0880 </r>
       <r>    -4.6499    43.4603   145.7534 </r>
       <r>    -4.5426     6.2980   146.4294 </r>
       <r>    -4.4352    13.4325   147.8714 </r>
       <r>    -4.3279     0.9422   147.9726 </r>
       <r>    -4.2205     2.8062   148.2738 </r>
       <r>    -4.1132    23.9302   150.8427 </r>
       <r>    -4.0058    11.6725   152.0957 </r>
       <r>    -3.8985    -0.7897   152.0109 </r>
       <r>    -3.7911    -0.1014   152.0000 </r>
       <r>    -3.6838    -0.0363   151.9962 </r>
       <r>    -3.5764    -0.6065   151.9310 </r>
       <r>    -3.4691     6.3533   152.6131 </r>
       <r>    -3.3617    12.9030   153.9982 </r>
       <r>    -3.2544     0.2072   154.0204 </r>
       <r>    -3.1470    -0.5398   153.9625 </r>
       <r>    -3.0397     1.6227   154.1367 </r>
       <r>    -2.9323    13.7885   155.6169 </r>
       <r>    -2.8250    11.4756   156.8488 </r>
       <r>    -2.7176    11.0964   158.0399 </r>
       <r>    -2.6103    -0.4767   157.9888 </r>
       <r>    -2.5029     0.4188   158.0337 </r>
       <r>    -2.3956    12.9495   159.4238 </r>
       <r>    -2.2882    12.5230   160.7682 </r>
       <r>    -2.1809    11.6020   162.0136 </r>
       <r>    -2.0735    -0.5541   161.9541 </r>
       <r>    -1.9662     9.3548   162.9584 </r>
       <r>    -1.8589    15.0512   164.5741 </r>
       <r>    -1.7515    18.1186   166.5191 </r>
       <r>    -1.6442    13.6911   167.9888 </r>
       <r>    -1.5368    -0.2342   167.9637 </r>
       <r>    -1.4295     4.4700   168.4435 </r>
       <r>    -1.3221    13.8872   169.9343 </r>
       <r>    -1.2148     0.8143   170.0217 </r>
       <r>    -1.1074    -0.9979   169.9146 </r>
       <r>    -1.0001     8.7322   170.8520 </r>
       <r>    -0.8927    23.0401   173.3253 </r>
       <r>    -0.7854     6.5608   174.0296 </r>
       <r>    -0.6780     2.7951   174.3296 </r>
       <r>    -0.5707    14.2756   175.8621 </r>
       <r>    -0.4633     0.7314   175.9406 </r>
       <r>    -0.3560     5.9093   176.5750 </r>
       <r>    -0.2486    28.6143   179.6467 </r>
       <r>    -0.1413    19.4673   181.7365 </r>
       <r>    -0.0339     2.8532   182.0428 </r>
       <r>     0.0734    -0.7084   181.9667 </r>
       <r>     0.1808    11.7361   183.2266 </r>
       <r>     0.2881     7.8645   184.0708 </r>
       <r>     0.3955    -0.6059   184.0058 </r>
       <r>     0.5028    -0.0538   184.0000 </r>
       <r>     0.6102    -0.0002   184.0000 </r>
       <r>     0.7175    -0.0000   184.0000 </r>
       <r>     0.8249    -0.0000   184.0000 </r>
       <r>     0.9322     0.0000   184.0000 </r>
       <r>     1.0396     0.0000   184.0000 </r>
       <r>     1.1469     0.0000   184.0000 </r>
       <r>     1.2543     0.0000   184.0000 </r>
       <r>     1.3616     0.0000   184.0000 </r>
       <r>     1.4690     0.0000   184.0000 </r>
       <r>     1.5763     0.0000   184.0000 </r>
       <r>     1.6837     0.0000   184.0000 </r>
      </set>
      <set comment="spin 2">
       <r>   -30.5210     0.0000     0.0000 </r>
       <r>   -30.4136     0.0000     0.0000 </r>
       <r>   -30.3063     0.0000     0.0000 </r>
       <r>   -30.1989     0.0000     0.0000 </r>
       <r>   -30.0916     0.0000     0.0000 </r>
       <r>   -29.9842     0.0000     0.0000 </r>
       <r>   -29.8769    -0.0000    -0.0000 </r>
       <r>   -29.7695    -0.0000    -0.0000 </r>
       <r>   -29.6622    -0.0000    -0.0000 </r>
       <r>   -29.5548    -0.0000    -0.0000 </r>
       <r>   -29.4475    -0.0000    -0.0000 </r>
       <r>   -29.3401    -0.0014    -0.0001 </r>
       <r>   -29.2328    -0.1631    -0.0177 </r>
       <r>   -29.1254    -0.0327    -0.0212 </r>
       <r>   -29.0181    12.2722     1.2962 </r>
       <r>   -28.9107     7.2145     2.0707 </r>
       <r>   -28.8034    -0.6131     2.0049 </r>
       <r>   -28.6960    -0.0453     2.0000 </r>
       <r>   -28.5887    -0.0002     2.0000 </r>
       <r>   -28.4813    -0.0000     2.0000 </r>
       <r>   -28.3740    -0.0000     2.0000 </r>
       <r>   -28.2666     0.0000     2.0000 </r>
       <r>   -28.1593     0.0000     2.0000 </r>
       <r>   -28.0520     0.0000     2.0000 </r>
       <r>   -27.9446     0.0000     2.0000 </r>
       <r>   -27.8373     0.0000     2.0000 </r>
       <r>   -27.7299     0.0000     2.0000 </r>
       <r>   -27.6226     0.0000     2.0000 </r>
       <r>   -27.5152     0.0000     2.0000 </r>
       <r>   -27.4079     0.0000     2.0000 </r>
       <r>   -27.3005     0.0000     2.0000 </r>
       <r>   -27.1932     0.0000     2.0000 </r>
       <r>   -27.0858     0.0000     2.0000 </r>
       <r>   -26.9785     0.0000     2.0000 </r>
       <r>   -26.8711     0.0000     2.0000 </r>
       <r>   -26.7638     0.0000     2.0000 </r>
       <r>   -26.6564     0.0000     2.0000 </r>
       <r>   -26.5491     0.0000     2.0000 </r>
       <r>   -26.4417     0.0000     2.0000 </r>
       <r>   -26.3344     0.0000     2.0000 </r>
       <r>   -26.2270     0.0000     2.0000 </r>
       <r>   -26.1197     0.0000     2.0000 </r>
       <r>   -26.0123     0.0000     2.0000 </r>
       <r>   -25.9050     0.0000     2.0000 </r>
       <r>   -25.7976     0.0000     2.0000 </r>
       <r>   -25.6903     0.0000     2.0000 </r>
       <r>   -25.5829     0.0000     2.0000 </r>
       <r>   -25.4756     0.0000     2.0000 </r>
       <r>   -25.3682     0.0000     2.0000 </r>
       <r>   -25.2609     0.0000     2.0000 </r>
       <r>   -25.1535     0.0000     2.0000 </r>
       <r>   -25.0462     0.0000     2.0000 </r>
       <r>   -24.9388     0.0000     2.0000 </r>
       <r>   -24.8315     0.0000     2.0000 </r>
       <r>   -24.7241     0.0000     2.0000 </r>
       <r>   -24.6168     0.0000     2.0000 </r>
       <r>   -24.5094     0.0000     2.0000 </r>
       <r>   -24.4021     0.0000     2.0000 </r>
       <r>   -24.2947     0.0000     2.0000 </r>
       <r>   -24.1874     0.0000     2.0000 </r>
       <r>   -24.0800     0.0000     2.0000 </r>
       <r>   -23.9727     0.0000     2.0000 </r>
       <r>   -23.8653     0.0000     2.0000 </r>
       <r>   -23.7580     0.0000     2.0000 </r>
       <r>   -23.6507     0.0000     2.0000 </r>
       <r>   -23.5433     0.0000     2.0000 </r>
       <r>   -23.4360     0.0000     2.0000 </r>
       <r>   -23.3286     0.0000     2.0000 </r>
       <r>   -23.2213     0.0000     2.0000 </r>
       <r>   -23.1139     0.0000     2.0000 </r>
       <r>   -23.0066     0.0000     2.0000 </r>
       <r>   -22.8992     0.0000     2.0000 </r>
       <r>   -22.7919     0.0000     2.0000 </r>
       <r>   -22.6845     0.0000     2.0000 </r>
       <r>   -22.5772     0.0000     2.0000 </r>
       <r>   -22.4698     0.0000     2.0000 </r>
       <r>   -22.3625     0.0000     2.0000 </r>
       <r>   -22.2551     0.0000     2.0000 </r>
       <r>   -22.1478     0.0000     2.0000 </r>
       <r>   -22.0404     0.0000     2.0000 </r>
       <r>   -21.9331     0.0000     2.0000 </r>
       <r>   -21.8257     0.0000     2.0000 </r>
       <r>   -21.7184     0.0000     2.0000 </r>
       <r>   -21.6110     0.0000     2.0000 </r>
       <r>   -21.5037     0.0000     2.0000 </r>
       <r>   -21.3963     0.0000     2.0000 </r>
       <r>   -21.2890     0.0000     2.0000 </r>
       <r>   -21.1816     0.0000     2.0000 </r>
       <r>   -21.0743     0.0000     2.0000 </r>
       <r>   -20.9669     0.0000     2.0000 </r>
       <r>   -20.8596     0.0000     2.0000 </r>
       <r>   -20.7522     0.0000     2.0000 </r>
       <r>   -20.6449     0.0000     2.0000 </r>
       <r>   -20.5375     0.0000     2.0000 </r>
       <r>   -20.4302     0.0000     2.0000 </r>
       <r>   -20.3228     0.0000     2.0000 </r>
       <r>   -20.2155     0.0000     2.0000 </r>
       <r>   -20.1081     0.0000     2.0000 </r>
       <r>   -20.0008     0.0000     2.0000 </r>
       <r>   -19.8934     0.0000     2.0000 </r>
       <r>   -19.7861     0.0000     2.0000 </r>
       <r>   -19.6787     0.0000     2.0000 </r>
       <r>   -19.5714     0.0000     2.0000 </r>
       <r>   -19.4640     0.0000     2.0000 </r>
       <r>   -19.3567     0.0000     2.0000 </r>
       <r>   -19.2494     0.0000     2.0000 </r>
       <r>   -19.1420     0.0000     2.0000 </r>
       <r>   -19.0347     0.0000     2.0000 </r>
       <r>   -18.9273     0.0000     2.0000 </r>
       <r>   -18.8200     0.0000     2.0000 </r>
       <r>   -18.7126     0.0000     2.0000 </r>
       <r>   -18.6053     0.0000     2.0000 </r>
       <r>   -18.4979     0.0000     2.0000 </r>
       <r>   -18.3906     0.0000     2.0000 </r>
       <r>   -18.2832     0.0000     2.0000 </r>
       <r>   -18.1759     0.0000     2.0000 </r>
       <r>   -18.0685     0.0000     2.0000 </r>
       <r>   -17.9612     0.0000     2.0000 </r>
       <r>   -17.8538     0.0000     2.0000 </r>
       <r>   -17.7465     0.0000     2.0000 </r>
       <r>   -17.6391     0.0000     2.0000 </r>
       <r>   -17.5318     0.0000     2.0000 </r>
       <r>   -17.4244     0.0000     2.0000 </r>
       <r>   -17.3171     0.0000     2.0000 </r>
       <r>   -17.2097     0.0000     2.0000 </r>
       <r>   -17.1024     0.0000     2.0000 </r>
       <r>   -16.9950     0.0000     2.0000 </r>
       <r>   -16.8877     0.0000     2.0000 </r>
       <r>   -16.7803     0.0000     2.0000 </r>
       <r>   -16.6730     0.0000     2.0000 </r>
       <r>   -16.5656     0.0000     2.0000 </r>
       <r>   -16.4583     0.0000     2.0000 </r>
       <r>   -16.3509     0.0000     2.0000 </r>
       <r>   -16.2436     0.0000     2.0000 </r>
       <r>   -16.1362     0.0000     2.0000 </r>
       <r>   -16.0289     0.0000     2.0000 </r>
       <r>   -15.9215     0.0000     2.0000 </r>
       <r>   -15.8142     0.0000     2.0000 </r>
       <r>   -15.7068     0.0000     2.0000 </r>
       <r>   -15.5995     0.0000     2.0000 </r>
       <r>   -15.4921     0.0000     2.0000 </r>
       <r>   -15.3848     0.0000     2.0000 </r>
       <r>   -15.2774     0.0000     2.0000 </r>
       <r>   -15.1701     0.0000     2.0000 </r>
       <r>   -15.0627     0.0000     2.0000 </r>
       <r>   -14.9554     0.0000     2.0000 </r>
       <r>   -14.8481     0.0000     2.0000 </r>
       <r>   -14.7407    -0.0000     2.0000 </r>
       <r>   -14.6334    -0.0000     2.0000 </r>
       <r>   -14.5260    -0.0000     2.0000 </r>
       <r>   -14.4187    -0.0000     2.0000 </r>
       <r>   -14.3113    -0.0000     2.0000 </r>
       <r>   -14.2040    -0.0001     2.0000 </r>
       <r>   -14.0966    -0.0270     1.9971 </r>
       <r>   -13.9893    -0.5813     1.9347 </r>
       <r>   -13.8819     5.4048     2.5149 </r>
       <r>   -13.7746    13.5103     3.9652 </r>
       <r>   -13.6672     0.5614     4.0255 </r>
       <r>   -13.5599    -0.2346     4.0003 </r>
       <r>   -13.4525    -0.0027     4.0000 </r>
       <r>   -13.3452    -0.0000     4.0000 </r>
       <r>   -13.2378    -0.0000     4.0000 </r>
       <r>   -13.1305     0.0000     4.0000 </r>
       <r>   -13.0231     0.0000     4.0000 </r>
       <r>   -12.9158     0.0000     4.0000 </r>
       <r>   -12.8084     0.0000     4.0000 </r>
       <r>   -12.7011     0.0000     4.0000 </r>
       <r>   -12.5937     0.0000     4.0000 </r>
       <r>   -12.4864     0.0000     4.0000 </r>
       <r>   -12.3790    -0.0000     4.0000 </r>
       <r>   -12.2717    -0.0000     4.0000 </r>
       <r>   -12.1643    -0.0000     4.0000 </r>
       <r>   -12.0570    -0.0000     4.0000 </r>
       <r>   -11.9496    -0.0000     4.0000 </r>
       <r>   -11.8423    -0.0069     3.9993 </r>
       <r>   -11.7349    -0.4312     3.9530 </r>
       <r>   -11.6276     1.2624     4.0885 </r>
       <r>   -11.5202    23.5686     6.6186 </r>
       <r>   -11.4129    13.8564     8.1060 </r>
       <r>   -11.3055    -0.8974     8.0097 </r>
       <r>   -11.1982    -0.7132     7.9331 </r>
       <r>   -11.0908     5.7772     8.5533 </r>
       <r>   -10.9835    13.2833     9.9793 </r>
       <r>   -10.8761     0.4136    10.0237 </r>
       <r>   -10.7688    -0.2180    10.0003 </r>
       <r>   -10.6614    -0.0024    10.0000 </r>
       <r>   -10.5541    -0.0000    10.0000 </r>
       <r>   -10.4468    -0.0012     9.9999 </r>
       <r>   -10.3394    -0.1538     9.9834 </r>
       <r>   -10.2321    -0.1016     9.9725 </r>
       <r>   -10.1247    12.0492    11.2659 </r>
       <r>   -10.0174     7.4987    12.0709 </r>
       <r>    -9.9100    -0.6114    12.0053 </r>
       <r>    -9.8027    -0.0489    12.0000 </r>
       <r>    -9.6953    -0.0002    12.0000 </r>
       <r>    -9.5880    -0.0000    12.0000 </r>
       <r>    -9.4806    -0.0000    12.0000 </r>
       <r>    -9.3733    -0.0000    12.0000 </r>
       <r>    -9.2659    -0.0000    12.0000 </r>
       <r>    -9.1586    -0.0000    12.0000 </r>
       <r>    -9.0512    -0.0000    12.0000 </r>
       <r>    -8.9439    -0.0002    12.0000 </r>
       <r>    -8.8365    -0.0494    11.9947 </r>
       <r>    -8.7292    -0.6109    11.9291 </r>
       <r>    -8.6218     7.5412    12.7386 </r>
       <r>    -8.5145    12.0152    14.0284 </r>
       <r>    -8.4071    -0.1264    14.0149 </r>
       <r>    -8.2998    -0.6470    13.9454 </r>
       <r>    -8.1924     3.6529    14.3376 </r>
       <r>    -8.0851    14.3179    15.8746 </r>
       <r>    -7.9777     1.5026    16.0359 </r>
       <r>    -7.8704    -0.3974    15.9932 </r>
       <r>    -7.7630    -0.6037    15.9284 </r>
       <r>    -7.6557     8.0556    16.7932 </r>
       <r>    -7.5483    16.1159    18.5232 </r>
       <r>    -7.4410    25.8363    21.2967 </r>
       <r>    -7.3336     7.5734    22.1097 </r>
       <r>    -7.2263    15.2261    23.7442 </r>
       <r>    -7.1189    23.4035    26.2565 </r>
       <r>    -7.0116    16.6943    28.0486 </r>
       <r>    -6.9042    22.3918    30.4524 </r>
       <r>    -6.7969    27.0960    33.3611 </r>
       <r>    -6.6895    28.1736    36.3855 </r>
       <r>    -6.5822    31.5665    39.7741 </r>
       <r>    -6.4748    46.3085    44.7453 </r>
       <r>    -6.3675    45.7965    49.6615 </r>
       <r>    -6.2602    34.5885    53.3745 </r>
       <r>    -6.1528    49.2919    58.6659 </r>
       <r>    -6.0455    45.9599    63.5996 </r>
       <r>    -5.9381    34.6073    67.3147 </r>
       <r>    -5.8308    18.3796    69.2877 </r>
       <r>    -5.7234    37.5093    73.3143 </r>
       <r>    -5.6161    37.7915    77.3712 </r>
       <r>    -5.5087    41.7691    81.8550 </r>
       <r>    -5.4014    53.4572    87.5936 </r>
       <r>    -5.2940    78.4570    96.0159 </r>
       <r>    -5.1867    88.0668   105.4697 </r>
       <r>    -5.0793    83.5732   114.4412 </r>
       <r>    -4.9720    63.4611   121.2537 </r>
       <r>    -4.8646    78.6761   129.6995 </r>
       <r>    -4.7573    83.7028   138.6849 </r>
       <r>    -4.6499    60.2026   145.1475 </r>
       <r>    -4.5426     9.3853   146.1550 </r>
       <r>    -4.4352    11.1606   147.3531 </r>
       <r>    -4.3279     6.5115   148.0521 </r>
       <r>    -4.2205    -1.1008   147.9339 </r>
       <r>    -4.1132    14.4797   149.4883 </r>
       <r>    -4.0058    21.9347   151.8430 </r>
       <r>    -3.8985     1.9375   152.0510 </r>
       <r>    -3.7911    -0.4652   152.0010 </r>
       <r>    -3.6838    -0.0096   152.0000 </r>
       <r>    -3.5764    -0.0003   152.0000 </r>
       <r>    -3.4691    -0.0594   151.9936 </r>
       <r>    -3.3617    -0.5958   151.9296 </r>
       <r>    -3.2544     8.2507   152.8153 </r>
       <r>    -3.1470    11.3644   154.0353 </r>
       <r>    -3.0397    -0.8558   153.9434 </r>
       <r>    -2.9323     7.8977   154.7912 </r>
       <r>    -2.8250    12.8061   156.1660 </r>
       <r>    -2.7176    14.0261   157.6716 </r>
       <r>    -2.6103     3.5450   158.0522 </r>
       <r>    -2.5029    -1.0812   157.9361 </r>
       <r>    -2.3956     5.3569   158.5112 </r>
       <r>    -2.2882    12.9150   159.8976 </r>
       <r>    -2.1809     9.2887   160.8947 </r>
       <r>    -2.0735    10.1802   161.9876 </r>
       <r>    -1.9662     4.4357   162.4637 </r>
       <r>    -1.8589    12.9695   163.8560 </r>
       <r>    -1.7515     9.0994   164.8328 </r>
       <r>    -1.6442    22.7416   167.2741 </r>
       <r>    -1.5368     7.5313   168.0826 </r>
       <r>    -1.4295    -1.2426   167.9492 </r>
       <r>    -1.3221     3.8786   168.3655 </r>
       <r>    -1.2148    14.2222   169.8923 </r>
       <r>    -1.1074     1.2026   170.0214 </r>
       <r>    -1.0001    -0.8689   169.9281 </r>
       <r>    -0.8927    11.1595   171.1261 </r>
       <r>    -0.7854    21.8024   173.4665 </r>
       <r>    -0.6780     5.0394   174.0075 </r>
       <r>    -0.5707     5.5205   174.6001 </r>
       <r>    -0.4633    12.8278   175.9772 </r>
       <r>    -0.3560    -0.7655   175.8950 </r>
       <r>    -0.2486    17.0740   177.7279 </r>
       <r>    -0.1413    23.5323   180.2540 </r>
       <r>    -0.0339    13.8986   181.7460 </r>
       <r>     0.0734     2.2901   181.9919 </r>
       <r>     0.1808     3.7375   182.3931 </r>
       <r>     0.2881    14.1093   183.9077 </r>
       <r>     0.3955     1.1608   184.0323 </r>
       <r>     0.5028    -0.2966   184.0005 </r>
       <r>     0.6102    -0.0044   184.0000 </r>
       <r>     0.7175    -0.0000   184.0000 </r>
       <r>     0.8249    -0.0000   184.0000 </r>
       <r>     0.9322    -0.0000   184.0000 </r>
       <r>     1.0396     0.0000   184.0000 </r>
       <r>     1.1469     0.0000   184.0000 </r>
       <r>     1.2543     0.0000   184.0000 </r>
       <r>     1.3616     0.0000   184.0000 </r>
       <r>     1.4690     0.0000   184.0000 </r>
       <r>     1.5763     0.0000   184.0000 </r>
       <r>     1.6837     0.0000   184.0000 </r>
      </set>
     </set>
    </array>
   </total>
  </dos>
 </calculation>
 <structure name="finalpos" >
  <crystal>
   <varray name="basis" >
    <v>      15.00000000       0.00000000       0.00000000 </v>
    <v>       0.00000000      15.00000000       0.00000000 </v>
    <v>       0.00000000       0.00000000      15.00000000 </v>
   </varray>
   <i name="volume">   3375.00000000 </i>
   <varray name="rec_basis" >
    <v>       0.06666667       0.00000000       0.00000000 </v>
    <v>       0.00000000       0.06666667       0.00000000 </v>
    <v>       0.00000000       0.00000000       0.06666667 </v>
   </varray>
  </crystal>
  <varray name="positions" >
   <v>       0.29423800       0.42634800       0.54947400 </v>
   <v>       0.37693000       0.54838200       0.49076600 </v>
   <v>       0.38604867       0.28820000       0.56719200 </v>
   <v>       0.53841533       0.50351800       0.49157133 </v>
   <v>       0.54517533       0.34518533       0.52720267 </v>
   <v>       0.44852667       0.43408267       0.61880267 </v>
   <v>       0.42113800       0.40054867       0.45143667 </v>
   <v>       0.22389400       0.57517800       0.53952333 </v>
   <v>       0.34146600       0.54676133       0.64691667 </v>
   <v>       0.34516333       0.68684000       0.56711600 </v>
   <v>       0.48471267       0.65733600       0.47339200 </v>
   <v>       0.62597267       0.47106333       0.61695267 </v>
   <v>       0.48359533       0.59939067       0.61812733 </v>
   <v>       0.74625333       0.49089800       0.64241800 </v>
   <v>       0.81873333       0.51097267       0.63855600 </v>
  </varray>
 </structure>
</modeling>
