<?xml version="1.0" encoding="ISO-8859-1"?>
<modeling>
 <generator>
  <i name="program" type="string">vasp </i>
  <i name="version" type="string">5.4.4.18Apr17-6-g9f103f2a35  </i>
  <i name="subversion" type="string">(build May 08 2019 13:49:07) complex            parallel </i>
  <i name="platform" type="string">LinuxIFC </i>
  <i name="date" type="string">2019 11 13 </i>
  <i name="time" type="string">11:52:07 </i>
 </generator>
 <incar>
  <i type="string" name="SYSTEM"> CuCO</i>
  <i type="int" name="ISTART">     0</i>
  <i type="string" name="PREC">accurate</i>
  <i type="string" name="ALGO"> Fast</i>
  <i type="int" name="ISPIN">     2</i>
  <i type="int" name="INIWAV">     1</i>
  <i type="int" name="NELM">   300</i>
  <i type="int" name="NELMIN">     3</i>
  <i type="int" name="IBRION">    -1</i>
  <i name="EDIFF">      0.00000010</i>
  <i name="EDIFFG">     -0.00100000</i>
  <i type="int" name="NSW">     0</i>
  <i type="int" name="ISYM">     0</i>
  <i name="ENCUT">    600.00000000</i>
  <i name="NUPDOWN">      1.00000000</i>
  <i type="logical" name="LREAL"> F  </i>
  <i type="int" name="ISMEAR">     1</i>
  <i name="SIGMA">      0.10000000</i>
  <i name="KSPACING">      0.50000000</i>
  <i type="logical" name="KGAMMA"> F  </i>
  <i type="logical" name="LWAVE"> F  </i>
  <i type="logical" name="LCHARG"> F  </i>
  <v type="int" name="KPOINT_BSE">    -1     0     0     0</v>
  <i type="int" name="NELM">   300</i>
  <i type="string" name="GGA"> PE</i>
 </incar>
 <structure name="primitive_cell" >
  <crystal>
   <varray name="basis" >
    <v>      15.00000000       0.00000000       0.00000000 </v>
    <v>       0.00000000      15.00000000       0.00000000 </v>
    <v>       0.00000000       0.00000000      15.00000000 </v>
   </varray>
   <i name="volume">   3375.00000000 </i>
   <varray name="rec_basis" >
    <v>       0.06666667       0.00000000       0.00000000 </v>
    <v>       0.00000000       0.06666667       0.00000000 </v>
    <v>       0.00000000       0.00000000       0.06666667 </v>
   </varray>
  </crystal>
  <varray name="positions" >
   <v>       0.29043333       0.41659667      -0.44190733 </v>
   <v>       0.22327267      -0.43864467      -0.44292200 </v>
   <v>       0.38870133       0.28939000      -0.44012333 </v>
   <v>       0.37641533      -0.45378267       0.49648533 </v>
   <v>       0.45207933       0.44062267      -0.39140267 </v>
   <v>       0.33389867      -0.45134533      -0.33878133 </v>
   <v>       0.42091867       0.39503800       0.44594267 </v>
   <v>       0.48689400      -0.41123200      -0.38867133 </v>
   <v>      -0.47021133      -0.49370867       0.47853733 </v>
   <v>      -0.44918667       0.35077733      -0.46938333 </v>
   <v>       0.34646467      -0.31658667      -0.43042600 </v>
   <v>       0.48513533      -0.33737267       0.47450533 </v>
   <v>      -0.36903267       0.48952933      -0.40096267 </v>
   <v>      -0.25450000      -0.49266200      -0.35832267 </v>
   <v>      -0.18271333      -0.48724933      -0.33077333 </v>
  </varray>
 </structure>
 <varray name="primitive_index" >
  <v type="int" >        1 </v>
  <v type="int" >        8 </v>
  <v type="int" >        3 </v>
  <v type="int" >        2 </v>
  <v type="int" >        6 </v>
  <v type="int" >        9 </v>
  <v type="int" >        7 </v>
  <v type="int" >       13 </v>
  <v type="int" >        4 </v>
  <v type="int" >        5 </v>
  <v type="int" >       10 </v>
  <v type="int" >       11 </v>
  <v type="int" >       12 </v>
  <v type="int" >       14 </v>
  <v type="int" >       15 </v>
 </varray>
 <kpoints>
  <generation param="Monkhorst-Pack">
   <v type="int" name="divisions">       1        1        1 </v>
   <v name="usershift">      0.00000000       0.00000000       0.00000000 </v>
   <v name="genvec1">      1.00000000       0.00000000       0.00000000 </v>
   <v name="genvec2">      0.00000000       1.00000000       0.00000000 </v>
   <v name="genvec3">      0.00000000       0.00000000       1.00000000 </v>
   <v name="shift">      0.00000000       0.00000000       0.00000000 </v>
  </generation>
  <varray name="kpointlist" >
   <v>       0.00000000       0.00000000       0.00000000 </v>
  </varray>
  <varray name="weights" >
   <v>       1.00000000 </v>
  </varray>
 </kpoints>
 <parameters>
  <separator name="general" >
   <i type="string" name="SYSTEM">CuCO</i>
   <i type="logical" name="LCOMPAT"> F  </i>
  </separator>
  <separator name="electronic" >
   <i type="string" name="PREC">accura</i>
   <i name="ENMAX">    600.00000000</i>
   <i name="ENAUG">    644.87300000</i>
   <i name="EDIFF">      0.00000010</i>
   <i type="int" name="IALGO">    68</i>
   <i type="int" name="IWAVPR">    10</i>
   <i type="int" name="NBANDS">    92</i>
   <i name="NELECT">    153.00000000</i>
   <i type="int" name="TURBO">     0</i>
   <i type="int" name="IRESTART">     0</i>
   <i type="int" name="NREBOOT">     0</i>
   <i type="int" name="NMIN">     0</i>
   <i name="EREF">      0.00000000</i>
   <separator name="electronic smearing" >
    <i type="int" name="ISMEAR">     1</i>
    <i name="SIGMA">      0.10000000</i>
    <i name="KSPACING">      0.50000000</i>
    <i type="logical" name="KGAMMA"> F  </i>
   </separator>
   <separator name="electronic projectors" >
    <i type="logical" name="LREAL"> F  </i>
    <v name="ROPT">      0.00000000      0.00000000      0.00000000</v>
    <i type="int" name="LMAXPAW">  -100</i>
    <i type="int" name="LMAXMIX">     2</i>
    <i type="logical" name="NLSPLINE"> F  </i>
   </separator>
   <separator name="electronic startup" >
    <i type="int" name="ISTART">     0</i>
    <i type="int" name="ICHARG">     2</i>
    <i type="int" name="INIWAV">     1</i>
   </separator>
   <separator name="electronic spin" >
    <i type="int" name="ISPIN">     2</i>
    <i type="logical" name="LNONCOLLINEAR"> F  </i>
    <v name="MAGMOM">      0.06666667      0.06666667      0.06666667      0.06666667      0.06666667      0.06666667      0.06666667      0.06666667      0.06666667      0.06666667      0.06666667      0.06666667      0.06666667      0.06666667      0.06666667</v>
    <i name="NUPDOWN">      1.00000000</i>
    <i type="logical" name="LSORBIT"> F  </i>
    <v name="SAXIS">      0.00000000      0.00000000      1.00000000</v>
    <i type="logical" name="LSPIRAL"> F  </i>
    <v name="QSPIRAL">      0.00000000      0.00000000      0.00000000</v>
    <i type="logical" name="LZEROZ"> F  </i>
   </separator>
   <separator name="electronic exchange-correlation" >
    <i type="logical" name="LASPH"> F  </i>
    <i type="logical" name="LMETAGGA"> F  </i>
   </separator>
   <separator name="electronic convergence" >
    <i type="int" name="NELM">   300</i>
    <i type="int" name="NELMDL">    -5</i>
    <i type="int" name="NELMIN">     3</i>
    <i name="ENINI">    600.00000000</i>
    <separator name="electronic convergence detail" >
     <i type="logical" name="LDIAG"> T  </i>
     <i type="logical" name="LSUBROT"> F  </i>
     <i name="WEIMIN">      0.00000000</i>
     <i name="EBREAK">      0.00000000</i>
     <i name="DEPER">      0.30000000</i>
     <i type="int" name="NRMM">     4</i>
     <i name="TIME">      0.40000000</i>
    </separator>
   </separator>
   <separator name="electronic mixer" >
    <i name="AMIX">      0.40000000</i>
    <i name="BMIX">      1.00000000</i>
    <i name="AMIN">      0.10000000</i>
    <i name="AMIX_MAG">      1.60000000</i>
    <i name="BMIX_MAG">      1.00000000</i>
    <separator name="electronic mixer details" >
     <i type="int" name="IMIX">     4</i>
     <i type="logical" name="MIXFIRST"> F  </i>
     <i type="int" name="MAXMIX">   -45</i>
     <i name="WC">    100.00000000</i>
     <i type="int" name="INIMIX">     1</i>
     <i type="int" name="MIXPRE">     1</i>
     <i type="int" name="MREMOVE">     5</i>
    </separator>
   </separator>
   <separator name="electronic dipolcorrection" >
    <i type="logical" name="LDIPOL"> F  </i>
    <i type="logical" name="LMONO"> F  </i>
    <i type="int" name="IDIPOL">     0</i>
    <i name="EPSILON">      1.00000000</i>
    <v name="DIPOL">   -100.00000000   -100.00000000   -100.00000000</v>
    <i name="EFIELD">      0.00000000</i>
   </separator>
  </separator>
  <separator name="grids" >
   <i type="int" name="NGX">   120</i>
   <i type="int" name="NGY">   120</i>
   <i type="int" name="NGZ">   120</i>
   <i type="int" name="NGXF">   240</i>
   <i type="int" name="NGYF">   240</i>
   <i type="int" name="NGZF">   240</i>
   <i type="logical" name="ADDGRID"> F  </i>
  </separator>
  <separator name="ionic" >
   <i type="int" name="NSW">     0</i>
   <i type="int" name="IBRION">    -1</i>
   <i type="int" name="MDALGO">     0</i>
   <i type="int" name="ISIF">     2</i>
   <i name="PSTRESS">      0.00000000</i>
   <i name="EDIFFG">     -0.00100000</i>
   <i type="int" name="NFREE">     0</i>
   <i name="POTIM">      0.50000000</i>
   <i name="SMASS">     -3.00000000</i>
   <i name="SCALEE">      1.00000000</i>
  </separator>
  <separator name="ionic md" >
   <i name="TEBEG">      0.00010000</i>
   <i name="TEEND">      0.00010000</i>
   <i type="int" name="NBLOCK">     1</i>
   <i type="int" name="KBLOCK">     1</i>
   <i type="int" name="NPACO">   256</i>
   <i name="APACO">     16.00000000</i>
  </separator>
  <separator name="symmetry" >
   <i type="int" name="ISYM">     0</i>
   <i name="SYMPREC">      0.00001000</i>
  </separator>
  <separator name="dos" >
   <i type="int" name="LORBIT">     0</i>
   <v name="RWIGS">     -1.00000000     -1.00000000     -1.00000000</v>
   <i type="int" name="NEDOS">   301</i>
   <i name="EMIN">     10.00000000</i>
   <i name="EMAX">    -10.00000000</i>
   <i name="EFERMI">      0.00000000</i>
  </separator>
  <separator name="writing" >
   <i type="int" name="NWRITE">     2</i>
   <i type="logical" name="LWAVE"> F  </i>
   <i type="logical" name="LDOWNSAMPLE"> F  </i>
   <i type="logical" name="LCHARG"> F  </i>
   <i type="logical" name="LPARD"> F  </i>
   <i type="logical" name="LVTOT"> F  </i>
   <i type="logical" name="LVHAR"> F  </i>
   <i type="logical" name="LELF"> F  </i>
   <i type="logical" name="LOPTICS"> F  </i>
   <v name="STM">      0.00000000      0.00000000      0.00000000      0.00000000      0.00000000      0.00000000      0.00000000</v>
  </separator>
  <separator name="performance" >
   <i type="int" name="NPAR">     4</i>
   <i type="int" name="NSIM">     4</i>
   <i type="int" name="NBLK">    -1</i>
   <i type="logical" name="LPLANE"> T  </i>
   <i type="logical" name="LSCALAPACK"> T  </i>
   <i type="logical" name="LSCAAWARE"> F  </i>
   <i type="logical" name="LSCALU"> F  </i>
   <i type="logical" name="LASYNC"> F  </i>
   <i type="logical" name="LORBITALREAL"> F  </i>
  </separator>
  <separator name="miscellaneous" >
   <i type="int" name="IDIOT">     3</i>
   <i type="int" name="ISPECIAL">     0</i>
   <i type="logical" name="LMUSIC"> F  </i>
   <v name="POMASS">     63.54600000     12.01100000     16.00000000</v>
   <v name="DARWINR">      0.00000000      0.00000000      0.00000000</v>
   <v name="DARWINV">      1.00000000      1.00000000      1.00000000</v>
   <i type="logical" name="LCORR"> T  </i>
  </separator>
  <i type="logical" name="GGA_COMPAT"> T  </i>
  <i type="logical" name="LBERRY"> F  </i>
  <i type="int" name="ICORELEVEL">     0</i>
  <i type="logical" name="LDAU"> F  </i>
  <i type="int" name="I_CONSTRAINED_M">     0</i>
  <separator name="electronic exchange-correlation" >
   <i type="string" name="GGA">PE</i>
   <i type="int" name="VOSKOWN">     0</i>
   <i type="logical" name="LHFCALC"> F  </i>
   <i type="string" name="PRECFOCK"></i>
   <i type="logical" name="LSYMGRAD"> F  </i>
   <i type="logical" name="LHFONE"> F  </i>
   <i type="logical" name="LRHFCALC"> F  </i>
   <i type="logical" name="LTHOMAS"> F  </i>
   <i type="logical" name="LMODELHF"> F  </i>
   <i name="ENCUT4O">     -1.00000000</i>
   <i type="int" name="EXXOEP">     0</i>
   <i type="int" name="FOURORBIT">     0</i>
   <i name="AEXX">      0.00000000</i>
   <i name="HFALPHA">      0.00000000</i>
   <i name="MCALPHA">      0.00000000</i>
   <i name="ALDAX">      1.00000000</i>
   <i name="AGGAX">      1.00000000</i>
   <i name="ALDAC">      1.00000000</i>
   <i name="AGGAC">      1.00000000</i>
   <i type="int" name="NKREDX">     1</i>
   <i type="int" name="NKREDY">     1</i>
   <i type="int" name="NKREDZ">     1</i>
   <i type="logical" name="SHIFTRED"> F  </i>
   <i type="logical" name="ODDONLY"> F  </i>
   <i type="logical" name="EVENONLY"> F  </i>
   <i type="int" name="LMAXFOCK">     0</i>
   <i type="int" name="NMAXFOCKAE">     0</i>
   <i type="logical" name="LFOCKAEDFT"> F  </i>
   <i name="HFSCREEN">      0.00000000</i>
   <i name="HFSCREENC">      0.00000000</i>
   <i type="int" name="NBANDSGWLOW">     0</i>
  </separator>
  <separator name="vdW DFT" >
   <i type="logical" name="LUSE_VDW"> F  </i>
   <i name="Zab_VDW">     -0.84910000</i>
   <i name="PARAM1">      0.12340000</i>
   <i name="PARAM2">      1.00000000</i>
   <i name="PARAM3">      0.00000000</i>
  </separator>
  <separator name="model GW" >
   <i type="int" name="MODEL_GW">     0</i>
   <i name="MODEL_EPS0">    135.00000000</i>
   <i name="MODEL_ALPHA">      1.00000000</i>
  </separator>
  <separator name="linear response parameters" >
   <i type="logical" name="LEPSILON"> F  </i>
   <i type="logical" name="LRPA"> F  </i>
   <i type="logical" name="LNABLA"> F  </i>
   <i type="logical" name="LVEL"> F  </i>
   <i type="int" name="KINTER">     0</i>
   <i name="CSHIFT">      0.10000000</i>
   <i name="OMEGAMAX">     -1.00000000</i>
   <i name="DEG_THRESHOLD">      0.00200000</i>
   <i name="RTIME">     -0.10000000</i>
   <i name="WPLASMAI">      0.00000000</i>
   <v name="DFIELD">      0.00000000      0.00000000      0.00000000</v>
   <v name="WPLASMA">      0.00000000      0.00000000      0.00000000      0.00000000      0.00000000      0.00000000      0.00000000      0.00000000      0.00000000</v>
  </separator>
  <separator name="orbital magnetization" >
   <i type="logical" name="NUCIND"> F  </i>
   <v name="MAGPOS">      0.00000000      0.00000000      0.00000000</v>
   <i type="logical" name="LNICSALL"> T  </i>
   <i type="logical" name="ORBITALMAG"> F  </i>
   <i type="logical" name="LMAGBLOCH"> F  </i>
   <i type="logical" name="LCHIMAG"> F  </i>
   <i type="logical" name="LGAUGE"> T  </i>
   <i type="int" name="MAGATOM">     0</i>
   <v name="MAGDIPOL">      0.00000000      0.00000000      0.00000000</v>
   <v name="AVECCONST">      0.00000000      0.00000000      0.00000000</v>
  </separator>
  <separator name="response functions" >
   <i type="logical" name="LADDER"> F  </i>
   <i type="logical" name="LRPAFORCE"> F  </i>
   <i type="logical" name="LFXC"> F  </i>
   <i type="logical" name="LHARTREE"> T  </i>
   <i type="int" name="IBSE">     0</i>
   <v type="int" name="KPOINT">    -1     0     0     0</v>
   <i type="logical" name="LTCTE"> F  </i>
   <i type="logical" name="LTETE"> F  </i>
   <i type="logical" name="LTRIPLET"> F  </i>
   <i type="logical" name="LFXCEPS"> F  </i>
   <i type="logical" name="LFXHEG"> F  </i>
   <i type="int" name="NATURALO">     2</i>
   <i type="logical" name="L2ORDER"> F  </i>
   <i type="logical" name="LMP2LT"> F  </i>
   <i type="logical" name="LUSEW"> F  </i>
   <i name="ENCUTGW">     -2.00000000</i>
   <i name="ENCUTGWSOFT">     -2.00000000</i>
   <i name="ENCUTLF">     -1.00000000</i>
   <i type="int" name="LMAXMP2">    -1</i>
   <i name="SCISSOR">      0.00000000</i>
   <i type="int" name="NOMEGA">     0</i>
   <i type="int" name="NOMEGAR">     0</i>
   <i type="int" name="NBANDSGW">    -1</i>
   <i type="int" name="NBANDSO">    -1</i>
   <i type="int" name="NBANDSV">    -1</i>
   <i type="int" name="NELM">   300</i>
   <i type="int" name="NELMHF">     1</i>
   <i type="int" name="DIM">     3</i>
   <i type="int" name="ANTIRES">     0</i>
   <i name="OMEGAMAX">    -30.00000000</i>
   <i name="OMEGAMIN">    -30.00000000</i>
   <i name="OMEGATL">   -200.00000000</i>
   <i type="int" name="OMEGAGRID">   140</i>
   <i name="CSHIFT">     -0.10000000</i>
   <i type="logical" name="SELFENERGY"> F  </i>
   <i type="logical" name="LSPECTRAL"> F  </i>
   <i type="logical" name="LSPECTRALGW"> F  </i>
   <i type="logical" name="LSINGLES"> F  </i>
   <i type="logical" name="LFERMIGW"> F  </i>
   <i type="logical" name="ODDONLYGW"> F  </i>
   <i type="logical" name="EVENONLYGW"> F  </i>
   <i type="int" name="NKREDLFX">     1</i>
   <i type="int" name="NKREDLFY">     1</i>
   <i type="int" name="NKREDLFZ">     1</i>
   <i type="int" name="MAXMEM">  2800</i>
   <i type="int" name="TELESCOPE">     0</i>
   <i type="int" name="TAUPAR">     1</i>
   <i type="int" name="OMEGAPAR">    -1</i>
   <i name="LAMBDA">      1.00000000</i>
  </separator>
  <separator name="External order field" >
   <i name="OFIELD_KAPPA">      0.00000000</i>
   <v name="OFIELD_K">      0.00000000      0.00000000      0.00000000</v>
   <i name="OFIELD_Q6_NEAR">      0.00000000</i>
   <i name="OFIELD_Q6_FAR">      0.00000000</i>
   <i name="OFIELD_A">      0.00000000</i>
  </separator>
 </parameters>
 <atominfo>
  <atoms>      15 </atoms>
  <types>       3 </types>
  <array name="atoms" >
   <dimension dim="1">ion</dimension>
   <field type="string">element</field>
   <field type="int">atomtype</field>
   <set>
    <rc><c>Cu</c><c>   1</c></rc>
    <rc><c>Cu</c><c>   1</c></rc>
    <rc><c>Cu</c><c>   1</c></rc>
    <rc><c>Cu</c><c>   1</c></rc>
    <rc><c>Cu</c><c>   1</c></rc>
    <rc><c>Cu</c><c>   1</c></rc>
    <rc><c>Cu</c><c>   1</c></rc>
    <rc><c>Cu</c><c>   1</c></rc>
    <rc><c>Cu</c><c>   1</c></rc>
    <rc><c>Cu</c><c>   1</c></rc>
    <rc><c>Cu</c><c>   1</c></rc>
    <rc><c>Cu</c><c>   1</c></rc>
    <rc><c>Cu</c><c>   1</c></rc>
    <rc><c>C </c><c>   2</c></rc>
    <rc><c>O </c><c>   3</c></rc>
   </set>
  </array>
  <array name="atomtypes" >
   <dimension dim="1">type</dimension>
   <field type="int">atomspertype</field>
   <field type="string">element</field>
   <field>mass</field>
   <field>valence</field>
   <field type="string">pseudopotential</field>
   <set>
    <rc><c>  13</c><c>Cu</c><c>     63.54600000</c><c>     11.00000000</c><c>  PAW_PBE Cu 22Jun2005                  </c></rc>
    <rc><c>   1</c><c>C </c><c>     12.01100000</c><c>      4.00000000</c><c>  PAW_PBE C 08Apr2002                   </c></rc>
    <rc><c>   1</c><c>O </c><c>     16.00000000</c><c>      6.00000000</c><c>  PAW_PBE O 08Apr2002                   </c></rc>
   </set>
  </array>
 </atominfo>
 <structure name="initialpos" >
  <crystal>
   <varray name="basis" >
    <v>      15.00000000       0.00000000       0.00000000 </v>
    <v>       0.00000000      15.00000000       0.00000000 </v>
    <v>       0.00000000       0.00000000      15.00000000 </v>
   </varray>
   <i name="volume">   3375.00000000 </i>
   <varray name="rec_basis" >
    <v>       0.06666667       0.00000000       0.00000000 </v>
    <v>       0.00000000       0.06666667       0.00000000 </v>
    <v>       0.00000000       0.00000000       0.06666667 </v>
   </varray>
  </crystal>
  <varray name="positions" >
   <v>       0.29043333       0.41659667       0.55809267 </v>
   <v>       0.37641533       0.54621733       0.49648533 </v>
   <v>       0.38870133       0.28939000       0.55987667 </v>
   <v>       0.52978867       0.50629133       0.47853733 </v>
   <v>       0.55081333       0.35077733       0.53061667 </v>
   <v>       0.45207933       0.44062267       0.60859733 </v>
   <v>       0.42091867       0.39503800       0.44594267 </v>
   <v>       0.22327267       0.56135533       0.55707800 </v>
   <v>       0.33389867       0.54865467       0.66121867 </v>
   <v>       0.34646467       0.68341333       0.56957400 </v>
   <v>       0.48513533       0.66262733       0.47450533 </v>
   <v>       0.63096733       0.48952933       0.59903733 </v>
   <v>       0.48689400       0.58876800       0.61132867 </v>
   <v>       0.74550000       0.50733800       0.64167733 </v>
   <v>       0.81728667       0.51275067       0.66922667 </v>
  </varray>
 </structure>
 <calculation>
  <scstep>
   <time name="dav">    7.55    7.56</time>
   <time name="total">    8.75    8.76</time>
   <energy>
    <i name="alphaZ">     41.16232785 </i>
    <i name="ewald">  16381.97015557 </i>
    <i name="hartreedc"> -33401.57092474 </i>
    <i name="XCdc">    623.59025299 </i>
    <i name="pawpsdc">  16421.75059358 </i>
    <i name="pawaedc"> -17800.06104309 </i>
    <i name="eentropy">      0.01593900 </i>
    <i name="bandstr">    189.73719820 </i>
    <i name="atom">  18662.21924712 </i>
    <i name="e_fr_energy">   1118.81374648 </i>
    <i name="e_wo_entrp">   1118.79780748 </i>
    <i name="e_0_energy">   1118.80843348 </i>
   </energy>
  </scstep>
  <scstep>
   <time name="dav">    7.40    7.41</time>
   <time name="total">    7.40    7.41</time>
   <energy>
    <i name="e_fr_energy">     89.13479360 </i>
    <i name="e_wo_entrp">     89.12798557 </i>
    <i name="e_0_energy">     89.13252426 </i>
   </energy>
  </scstep>
  <scstep>
   <time name="dav">   11.58   11.58</time>
   <time name="total">   11.58   11.58</time>
   <energy>
    <i name="e_fr_energy">    -33.75584515 </i>
    <i name="e_wo_entrp">    -33.76958674 </i>
    <i name="e_0_energy">    -33.76042568 </i>
   </energy>
  </scstep>
  <scstep>
   <time name="dav">   10.17   10.18</time>
   <time name="total">   10.17   10.18</time>
   <energy>
    <i name="e_fr_energy">    -55.58296072 </i>
    <i name="e_wo_entrp">    -55.59142151 </i>
    <i name="e_0_energy">    -55.58578098 </i>
   </energy>
  </scstep>
  <scstep>
   <time name="dav">   12.10   12.10</time>
   <time name="total">   12.82   12.83</time>
   <energy>
    <i name="e_fr_energy">    -57.12696437 </i>
    <i name="e_wo_entrp">    -57.13845777 </i>
    <i name="e_0_energy">    -57.13079551 </i>
   </energy>
  </scstep>
  <scstep>
   <time name="diag">    1.12    1.12</time>
   <time name="diis">    7.17    7.17</time>
   <time name="orth">    0.06    0.06</time>
   <time name="total">   10.21   10.21</time>
   <energy>
    <i name="e_fr_energy">    -56.26887577 </i>
    <i name="e_wo_entrp">    -56.27586787 </i>
    <i name="e_0_energy">    -56.27120647 </i>
   </energy>
  </scstep>
  <scstep>
   <time name="diag">    1.13    1.13</time>
   <time name="diis">    6.41    6.42</time>
   <time name="orth">    0.06    0.06</time>
   <time name="total">    9.47    9.47</time>
   <energy>
    <i name="e_fr_energy">    -49.11986172 </i>
    <i name="e_wo_entrp">    -49.12766805 </i>
    <i name="e_0_energy">    -49.12246383 </i>
   </energy>
  </scstep>
  <scstep>
   <time name="diag">    1.13    1.13</time>
   <time name="diis">    6.94    6.97</time>
   <time name="orth">    0.06    0.06</time>
   <time name="total">   10.03   10.05</time>
   <energy>
    <i name="e_fr_energy">    -48.91408973 </i>
    <i name="e_wo_entrp">    -48.92223720 </i>
    <i name="e_0_energy">    -48.91680555 </i>
   </energy>
  </scstep>
  <scstep>
   <time name="diag">    1.13    1.13</time>
   <time name="diis">    6.90    6.90</time>
   <time name="orth">    0.06    0.06</time>
   <time name="total">    9.97    9.98</time>
   <energy>
    <i name="e_fr_energy">    -48.85397203 </i>
    <i name="e_wo_entrp">    -48.86215374 </i>
    <i name="e_0_energy">    -48.85669927 </i>
   </energy>
  </scstep>
  <scstep>
   <time name="diag">    1.12    1.12</time>
   <time name="diis">    7.21    7.22</time>
   <time name="orth">    0.06    0.06</time>
   <time name="total">   10.28   10.28</time>
   <energy>
    <i name="e_fr_energy">    -48.78755997 </i>
    <i name="e_wo_entrp">    -48.79552753 </i>
    <i name="e_0_energy">    -48.79021582 </i>
   </energy>
  </scstep>
  <scstep>
   <time name="diag">    1.11    1.11</time>
   <time name="diis">    7.15    7.15</time>
   <time name="orth">    0.06    0.06</time>
   <time name="total">   10.19   10.20</time>
   <energy>
    <i name="e_fr_energy">    -48.77300198 </i>
    <i name="e_wo_entrp">    -48.78115661 </i>
    <i name="e_0_energy">    -48.77572019 </i>
   </energy>
  </scstep>
  <scstep>
   <time name="diag">    1.11    1.11</time>
   <time name="diis">    7.08    7.08</time>
   <time name="orth">    0.06    0.06</time>
   <time name="total">   10.12   10.13</time>
   <energy>
    <i name="e_fr_energy">    -48.77137466 </i>
    <i name="e_wo_entrp">    -48.77932068 </i>
    <i name="e_0_energy">    -48.77402333 </i>
   </energy>
  </scstep>
  <scstep>
   <time name="diag">    1.11    1.11</time>
   <time name="diis">    7.50    7.51</time>
   <time name="orth">    0.06    0.06</time>
   <time name="total">   10.55   10.56</time>
   <energy>
    <i name="e_fr_energy">    -48.77026269 </i>
    <i name="e_wo_entrp">    -48.77826168 </i>
    <i name="e_0_energy">    -48.77292902 </i>
   </energy>
  </scstep>
  <scstep>
   <time name="diag">    1.11    1.11</time>
   <time name="diis">    6.90    6.90</time>
   <time name="orth">    0.06    0.06</time>
   <time name="total">    9.95    9.95</time>
   <energy>
    <i name="e_fr_energy">    -48.77174963 </i>
    <i name="e_wo_entrp">    -48.77970665 </i>
    <i name="e_0_energy">    -48.77440197 </i>
   </energy>
  </scstep>
  <scstep>
   <time name="diag">    1.11    1.11</time>
   <time name="diis">    6.92    6.93</time>
   <time name="orth">    0.06    0.06</time>
   <time name="total">    9.97    9.98</time>
   <energy>
    <i name="e_fr_energy">    -48.77298248 </i>
    <i name="e_wo_entrp">    -48.78094233 </i>
    <i name="e_0_energy">    -48.77563576 </i>
   </energy>
  </scstep>
  <scstep>
   <time name="diag">    1.11    1.11</time>
   <time name="diis">    6.83    6.83</time>
   <time name="orth">    0.06    0.06</time>
   <time name="total">    9.88    9.89</time>
   <energy>
    <i name="e_fr_energy">    -48.77454969 </i>
    <i name="e_wo_entrp">    -48.78252227 </i>
    <i name="e_0_energy">    -48.77720721 </i>
   </energy>
  </scstep>
  <scstep>
   <time name="diag">    1.11    1.11</time>
   <time name="diis">    6.71    6.71</time>
   <time name="orth">    0.06    0.06</time>
   <time name="total">    9.76    9.77</time>
   <energy>
    <i name="e_fr_energy">    -48.77620832 </i>
    <i name="e_wo_entrp">    -48.78419048 </i>
    <i name="e_0_energy">    -48.77886904 </i>
   </energy>
  </scstep>
  <scstep>
   <time name="diag">    1.11    1.11</time>
   <time name="diis">    7.11    7.11</time>
   <time name="orth">    0.06    0.06</time>
   <time name="total">   10.16   10.17</time>
   <energy>
    <i name="e_fr_energy">    -48.77714842 </i>
    <i name="e_wo_entrp">    -48.78512236 </i>
    <i name="e_0_energy">    -48.77980640 </i>
   </energy>
  </scstep>
  <scstep>
   <time name="diag">    1.11    1.11</time>
   <time name="diis">    6.93    6.93</time>
   <time name="orth">    0.06    0.06</time>
   <time name="total">    9.98    9.99</time>
   <energy>
    <i name="e_fr_energy">    -48.77794120 </i>
    <i name="e_wo_entrp">    -48.78591891 </i>
    <i name="e_0_energy">    -48.78060044 </i>
   </energy>
  </scstep>
  <scstep>
   <time name="diag">    1.11    1.11</time>
   <time name="diis">    6.81    6.81</time>
   <time name="orth">    0.06    0.06</time>
   <time name="total">    9.86    9.87</time>
   <energy>
    <i name="e_fr_energy">    -48.77843279 </i>
    <i name="e_wo_entrp">    -48.78640281 </i>
    <i name="e_0_energy">    -48.78108946 </i>
   </energy>
  </scstep>
  <scstep>
   <time name="diag">    1.11    1.11</time>
   <time name="diis">    6.78    6.78</time>
   <time name="orth">    0.06    0.06</time>
   <time name="total">    9.83    9.84</time>
   <energy>
    <i name="e_fr_energy">    -48.77883725 </i>
    <i name="e_wo_entrp">    -48.78680719 </i>
    <i name="e_0_energy">    -48.78149389 </i>
   </energy>
  </scstep>
  <scstep>
   <time name="diag">    1.11    1.11</time>
   <time name="diis">    6.85    6.85</time>
   <time name="orth">    0.06    0.06</time>
   <time name="total">    9.90    9.91</time>
   <energy>
    <i name="e_fr_energy">    -48.77904473 </i>
    <i name="e_wo_entrp">    -48.78701701 </i>
    <i name="e_0_energy">    -48.78170216 </i>
   </energy>
  </scstep>
  <scstep>
   <time name="diag">    1.11    1.11</time>
   <time name="diis">    6.72    6.72</time>
   <time name="orth">    0.06    0.06</time>
   <time name="total">    9.77    9.78</time>
   <energy>
    <i name="e_fr_energy">    -48.77916074 </i>
    <i name="e_wo_entrp">    -48.78713340 </i>
    <i name="e_0_energy">    -48.78181829 </i>
   </energy>
  </scstep>
  <scstep>
   <time name="diag">    1.11    1.11</time>
   <time name="diis">    6.52    6.52</time>
   <time name="orth">    0.06    0.06</time>
   <time name="total">    9.57    9.58</time>
   <energy>
    <i name="e_fr_energy">    -48.77926837 </i>
    <i name="e_wo_entrp">    -48.78724098 </i>
    <i name="e_0_energy">    -48.78192590 </i>
   </energy>
  </scstep>
  <scstep>
   <time name="diag">    1.11    1.11</time>
   <time name="diis">    6.65    6.65</time>
   <time name="orth">    0.06    0.06</time>
   <time name="total">    9.71    9.71</time>
   <energy>
    <i name="e_fr_energy">    -48.77931181 </i>
    <i name="e_wo_entrp">    -48.78728428 </i>
    <i name="e_0_energy">    -48.78196930 </i>
   </energy>
  </scstep>
  <scstep>
   <time name="diag">    1.11    1.11</time>
   <time name="diis">    5.64    5.64</time>
   <time name="orth">    0.06    0.06</time>
   <time name="total">    8.69    8.70</time>
   <energy>
    <i name="e_fr_energy">    -48.77933603 </i>
    <i name="e_wo_entrp">    -48.78730859 </i>
    <i name="e_0_energy">    -48.78199355 </i>
   </energy>
  </scstep>
  <scstep>
   <time name="diag">    1.11    1.11</time>
   <time name="diis">    4.74    4.74</time>
   <time name="orth">    0.06    0.06</time>
   <time name="total">    7.80    7.81</time>
   <energy>
    <i name="e_fr_energy">    -48.77934549 </i>
    <i name="e_wo_entrp">    -48.78731777 </i>
    <i name="e_0_energy">    -48.78200292 </i>
   </energy>
  </scstep>
  <scstep>
   <time name="diag">    1.11    1.11</time>
   <time name="diis">    4.59    4.60</time>
   <time name="orth">    0.06    0.06</time>
   <time name="total">    7.66    7.67</time>
   <energy>
    <i name="e_fr_energy">    -48.77934864 </i>
    <i name="e_wo_entrp">    -48.78732106 </i>
    <i name="e_0_energy">    -48.78200611 </i>
   </energy>
  </scstep>
  <scstep>
   <time name="diag">    1.11    1.11</time>
   <time name="diis">    4.53    4.53</time>
   <time name="orth">    0.06    0.06</time>
   <time name="total">    7.60    7.60</time>
   <energy>
    <i name="e_fr_energy">    -48.77935151 </i>
    <i name="e_wo_entrp">    -48.78732380 </i>
    <i name="e_0_energy">    -48.78200894 </i>
   </energy>
  </scstep>
  <scstep>
   <time name="diag">    1.11    1.11</time>
   <time name="diis">    4.60    4.61</time>
   <time name="orth">    0.06    0.06</time>
   <time name="total">    7.68    7.69</time>
   <energy>
    <i name="e_fr_energy">    -48.77935260 </i>
    <i name="e_wo_entrp">    -48.78732493 </i>
    <i name="e_0_energy">    -48.78201004 </i>
   </energy>
  </scstep>
  <scstep>
   <time name="diag">    1.11    1.11</time>
   <time name="diis">    4.42    4.42</time>
   <time name="orth">    0.06    0.06</time>
   <time name="total">    7.51    7.51</time>
   <energy>
    <i name="e_fr_energy">    -48.77935338 </i>
    <i name="e_wo_entrp">    -48.78732569 </i>
    <i name="e_0_energy">    -48.78201081 </i>
   </energy>
  </scstep>
  <scstep>
   <time name="diag">    1.10    1.11</time>
   <time name="diis">    4.23    4.23</time>
   <time name="orth">    0.06    0.06</time>
   <time name="total">    7.33    7.33</time>
   <energy>
    <i name="e_fr_energy">    -48.77935386 </i>
    <i name="e_wo_entrp">    -48.78732614 </i>
    <i name="e_0_energy">    -48.78201128 </i>
   </energy>
  </scstep>
  <scstep>
   <time name="diag">    1.10    1.10</time>
   <time name="diis">    4.08    4.08</time>
   <time name="orth">    0.06    0.06</time>
   <time name="total">    7.18    7.19</time>
   <energy>
    <i name="e_fr_energy">    -48.77935437 </i>
    <i name="e_wo_entrp">    -48.78732667 </i>
    <i name="e_0_energy">    -48.78201180 </i>
   </energy>
  </scstep>
  <scstep>
   <time name="diag">    1.10    1.11</time>
   <time name="diis">    4.17    4.17</time>
   <time name="orth">    0.06    0.06</time>
   <time name="total">    7.28    7.28</time>
   <energy>
    <i name="e_fr_energy">    -48.77935463 </i>
    <i name="e_wo_entrp">    -48.78732692 </i>
    <i name="e_0_energy">    -48.78201206 </i>
   </energy>
  </scstep>
  <scstep>
   <time name="diag">    1.11    1.11</time>
   <time name="diis">    3.66    3.66</time>
   <time name="orth">    0.06    0.06</time>
   <time name="total">    6.77    6.77</time>
   <energy>
    <i name="e_fr_energy">    -48.77935493 </i>
    <i name="e_wo_entrp">    -48.78732723 </i>
    <i name="e_0_energy">    -48.78201236 </i>
   </energy>
  </scstep>
  <scstep>
   <time name="diag">    1.10    1.11</time>
   <time name="diis">    3.94    3.95</time>
   <time name="orth">    0.06    0.06</time>
   <time name="total">    7.07    7.07</time>
   <energy>
    <i name="e_fr_energy">    -48.77935512 </i>
    <i name="e_wo_entrp">    -48.78732740 </i>
    <i name="e_0_energy">    -48.78201255 </i>
   </energy>
  </scstep>
  <scstep>
   <time name="diag">    1.11    1.11</time>
   <time name="diis">    3.49    3.49</time>
   <time name="orth">    0.06    0.06</time>
   <time name="total">    5.84    5.84</time>
   <energy>
    <i name="alphaZ">     41.16232785 </i>
    <i name="ewald">  16381.97015557 </i>
    <i name="hartreedc"> -33360.66967533 </i>
    <i name="XCdc">    615.55339298 </i>
    <i name="pawpsdc">  17667.48409430 </i>
    <i name="pawaedc"> -19066.49134471 </i>
    <i name="eentropy">      0.00797228 </i>
    <i name="bandstr">   -990.01552526 </i>
    <i name="atom">  18662.21924712 </i>
    <i name="e_fr_energy">    -48.77935519 </i>
    <i name="e_wo_entrp">    -48.78732748 </i>
    <i name="e_0_energy">    -48.78201262 </i>
   </energy>
  </scstep>
  <structure>
   <crystal>
    <varray name="basis" >
     <v>      15.00000000       0.00000000       0.00000000 </v>
     <v>       0.00000000      15.00000000       0.00000000 </v>
     <v>       0.00000000       0.00000000      15.00000000 </v>
    </varray>
    <i name="volume">   3375.00000000 </i>
    <varray name="rec_basis" >
     <v>       0.06666667       0.00000000       0.00000000 </v>
     <v>       0.00000000       0.06666667       0.00000000 </v>
     <v>       0.00000000       0.00000000       0.06666667 </v>
    </varray>
   </crystal>
   <varray name="positions" >
    <v>       0.29043333       0.41659667       0.55809267 </v>
    <v>       0.37641533       0.54621733       0.49648533 </v>
    <v>       0.38870133       0.28939000       0.55987667 </v>
    <v>       0.52978867       0.50629133       0.47853733 </v>
    <v>       0.55081333       0.35077733       0.53061667 </v>
    <v>       0.45207933       0.44062267       0.60859733 </v>
    <v>       0.42091867       0.39503800       0.44594267 </v>
    <v>       0.22327267       0.56135533       0.55707800 </v>
    <v>       0.33389867       0.54865467       0.66121867 </v>
    <v>       0.34646467       0.68341333       0.56957400 </v>
    <v>       0.48513533       0.66262733       0.47450533 </v>
    <v>       0.63096733       0.48952933       0.59903733 </v>
    <v>       0.48689400       0.58876800       0.61132867 </v>
    <v>       0.74550000       0.50733800       0.64167733 </v>
    <v>       0.81728667       0.51275067       0.66922667 </v>
   </varray>
  </structure>
  <varray name="forces" >
   <v>       0.37318841       0.09497722       0.01531477 </v>
   <v>      -0.65085839      -0.15143025      -0.14384369 </v>
   <v>       0.35519197       0.14051921       0.15026789 </v>
   <v>       0.45007040      -0.03910889      -0.34053204 </v>
   <v>       0.25716836      -0.14982857      -0.10505833 </v>
   <v>      -0.42862819      -0.80856028       0.17633944 </v>
   <v>      -0.37169952       0.06097730       0.24642194 </v>
   <v>      -0.25813393       0.32325611      -0.36317994 </v>
   <v>       0.61221136      -0.24801508      -0.10232416 </v>
   <v>       0.12830513      -0.08283660       0.02496054 </v>
   <v>      -0.10276857       0.31369073      -0.06617249 </v>
   <v>      -0.06509508      -0.05360919       0.04056864 </v>
   <v>       0.14122216       0.73513758       0.46342712 </v>
   <v>      -0.21952057      -0.19356005       0.22850919 </v>
   <v>      -0.22065354       0.05839076      -0.22469888 </v>
  </varray>
  <varray name="stress" >
   <v>      -1.07201660      -0.55031261       0.37605141 </v>
   <v>      -0.55031261       0.84786568      -0.40309817 </v>
   <v>       0.37605142      -0.40309816       0.20647915 </v>
  </varray>
  <energy>
   <i name="e_fr_energy">    -48.77935519 </i>
   <i name="e_wo_entrp">    -48.78201262 </i>
   <i name="e_0_energy">      0.00797228 </i>
  </energy>
  <time name="totalsc">  349.62  349.89</time>
  <eigenvalues>
   <array>
    <dimension dim="1">band</dimension>
    <dimension dim="2">kpoint</dimension>
    <dimension dim="3">spin</dimension>
    <field>eigene</field>
    <field>occ</field>
    <set>
     <set comment="spin 1">
      <set comment="kpoint 1">
       <r>  -28.6776    1.0000 </r>
       <r>  -13.9824    1.0000 </r>
       <r>  -11.3554    1.0000 </r>
       <r>  -11.3183    1.0000 </r>
       <r>  -11.2381    1.0000 </r>
       <r>  -10.2221    1.0000 </r>
       <r>   -8.6016    1.0000 </r>
       <r>   -8.2798    1.0000 </r>
       <r>   -7.7412    1.0000 </r>
       <r>   -7.5288    1.0000 </r>
       <r>   -7.4753    1.0000 </r>
       <r>   -7.4173    1.0000 </r>
       <r>   -7.3517    1.0000 </r>
       <r>   -7.1983    1.0000 </r>
       <r>   -7.0776    1.0000 </r>
       <r>   -7.0301    1.0000 </r>
       <r>   -6.8051    1.0000 </r>
       <r>   -6.7599    1.0000 </r>
       <r>   -6.7401    1.0000 </r>
       <r>   -6.5932    1.0000 </r>
       <r>   -6.5713    1.0000 </r>
       <r>   -6.5646    1.0000 </r>
       <r>   -6.5054    1.0000 </r>
       <r>   -6.4250    1.0000 </r>
       <r>   -6.3934    1.0000 </r>
       <r>   -6.3770    1.0000 </r>
       <r>   -6.3284    1.0000 </r>
       <r>   -6.2734    1.0000 </r>
       <r>   -6.2230    1.0000 </r>
       <r>   -6.1968    1.0000 </r>
       <r>   -6.1433    1.0000 </r>
       <r>   -6.1023    1.0000 </r>
       <r>   -6.0968    1.0000 </r>
       <r>   -6.0028    1.0000 </r>
       <r>   -5.9732    1.0000 </r>
       <r>   -5.8274    1.0000 </r>
       <r>   -5.8081    1.0000 </r>
       <r>   -5.7059    1.0000 </r>
       <r>   -5.6712    1.0000 </r>
       <r>   -5.6612    1.0000 </r>
       <r>   -5.6166    1.0000 </r>
       <r>   -5.5462    1.0000 </r>
       <r>   -5.4870    1.0000 </r>
       <r>   -5.4774    1.0000 </r>
       <r>   -5.4089    1.0000 </r>
       <r>   -5.4060    1.0000 </r>
       <r>   -5.3840    1.0000 </r>
       <r>   -5.3619    1.0000 </r>
       <r>   -5.3437    1.0000 </r>
       <r>   -5.3139    1.0000 </r>
       <r>   -5.2989    1.0000 </r>
       <r>   -5.2326    1.0000 </r>
       <r>   -5.2163    1.0000 </r>
       <r>   -5.1833    1.0000 </r>
       <r>   -5.1623    1.0000 </r>
       <r>   -5.1406    1.0000 </r>
       <r>   -5.1286    1.0000 </r>
       <r>   -5.1059    1.0000 </r>
       <r>   -5.0921    1.0000 </r>
       <r>   -5.0429    1.0000 </r>
       <r>   -5.0405    1.0000 </r>
       <r>   -4.9883    1.0000 </r>
       <r>   -4.9794    1.0000 </r>
       <r>   -4.9590    1.0000 </r>
       <r>   -4.9088    1.0000 </r>
       <r>   -4.8927    1.0000 </r>
       <r>   -4.8776    1.0000 </r>
       <r>   -4.8591    1.0000 </r>
       <r>   -4.8359    1.0000 </r>
       <r>   -4.8156    1.0000 </r>
       <r>   -4.7975    1.0000 </r>
       <r>   -4.7667    1.0000 </r>
       <r>   -4.6839    1.0000 </r>
       <r>   -4.4992    1.0000 </r>
       <r>   -4.1867    1.0000 </r>
       <r>   -4.0638    1.0000 </r>
       <r>   -3.5369    1.0000 </r>
       <r>   -3.0077   -0.0000 </r>
       <r>   -2.8833   -0.0000 </r>
       <r>   -2.5047   -0.0000 </r>
       <r>   -2.4166   -0.0000 </r>
       <r>   -1.9671   -0.0000 </r>
       <r>   -1.9034   -0.0000 </r>
       <r>   -1.6398   -0.0000 </r>
       <r>   -1.4781   -0.0000 </r>
       <r>   -1.1552   -0.0000 </r>
       <r>   -0.8657   -0.0000 </r>
       <r>   -0.6530    0.0000 </r>
       <r>   -0.3819    0.0000 </r>
       <r>   -0.2665    0.0000 </r>
       <r>   -0.1206    0.0000 </r>
       <r>    0.1405    0.0000 </r>
      </set>
     </set>
     <set comment="spin 2">
      <set comment="kpoint 1">
       <r>  -28.6680    1.0000 </r>
       <r>  -13.9613    1.0000 </r>
       <r>  -11.3234    1.0000 </r>
       <r>  -11.3092    1.0000 </r>
       <r>  -11.2214    1.0000 </r>
       <r>  -10.1784    1.0000 </r>
       <r>   -8.5782    1.0000 </r>
       <r>   -8.2334    1.0000 </r>
       <r>   -7.6972    1.0000 </r>
       <r>   -7.5054    1.0000 </r>
       <r>   -7.4478    1.0000 </r>
       <r>   -7.3639    1.0000 </r>
       <r>   -7.3143    1.0000 </r>
       <r>   -7.1659    1.0000 </r>
       <r>   -7.0468    1.0000 </r>
       <r>   -6.9966    1.0000 </r>
       <r>   -6.7792    1.0000 </r>
       <r>   -6.7254    1.0000 </r>
       <r>   -6.7075    1.0000 </r>
       <r>   -6.5743    1.0000 </r>
       <r>   -6.5507    1.0000 </r>
       <r>   -6.5395    1.0000 </r>
       <r>   -6.4766    1.0000 </r>
       <r>   -6.3897    1.0000 </r>
       <r>   -6.3710    1.0000 </r>
       <r>   -6.3532    1.0000 </r>
       <r>   -6.3012    1.0000 </r>
       <r>   -6.2455    1.0000 </r>
       <r>   -6.2015    1.0000 </r>
       <r>   -6.1696    1.0000 </r>
       <r>   -6.1176    1.0000 </r>
       <r>   -6.0747    1.0000 </r>
       <r>   -6.0649    1.0000 </r>
       <r>   -5.9767    1.0000 </r>
       <r>   -5.9473    1.0000 </r>
       <r>   -5.7941    1.0000 </r>
       <r>   -5.7766    1.0000 </r>
       <r>   -5.6788    1.0000 </r>
       <r>   -5.6503    1.0000 </r>
       <r>   -5.6315    1.0000 </r>
       <r>   -5.5956    1.0000 </r>
       <r>   -5.5077    1.0000 </r>
       <r>   -5.4622    1.0000 </r>
       <r>   -5.4529    1.0000 </r>
       <r>   -5.3794    1.0000 </r>
       <r>   -5.3750    1.0000 </r>
       <r>   -5.3542    1.0000 </r>
       <r>   -5.3337    1.0000 </r>
       <r>   -5.3162    1.0000 </r>
       <r>   -5.2894    1.0000 </r>
       <r>   -5.2688    1.0000 </r>
       <r>   -5.1997    1.0000 </r>
       <r>   -5.1882    1.0000 </r>
       <r>   -5.1607    1.0000 </r>
       <r>   -5.1370    1.0000 </r>
       <r>   -5.1147    1.0000 </r>
       <r>   -5.1002    1.0000 </r>
       <r>   -5.0794    1.0000 </r>
       <r>   -5.0707    1.0000 </r>
       <r>   -5.0208    1.0000 </r>
       <r>   -5.0089    1.0000 </r>
       <r>   -4.9588    1.0000 </r>
       <r>   -4.9562    1.0000 </r>
       <r>   -4.9400    1.0000 </r>
       <r>   -4.8771    1.0000 </r>
       <r>   -4.8553    1.0000 </r>
       <r>   -4.8506    1.0000 </r>
       <r>   -4.8261    1.0000 </r>
       <r>   -4.8056    1.0000 </r>
       <r>   -4.7797    1.0000 </r>
       <r>   -4.7599    1.0000 </r>
       <r>   -4.7450    1.0000 </r>
       <r>   -4.6484    1.0000 </r>
       <r>   -4.4589    1.0000 </r>
       <r>   -4.1191    1.0177 </r>
       <r>   -4.0242    0.9823 </r>
       <r>   -3.3277   -0.0000 </r>
       <r>   -2.9624   -0.0000 </r>
       <r>   -2.8381   -0.0000 </r>
       <r>   -2.4393   -0.0000 </r>
       <r>   -2.3567   -0.0000 </r>
       <r>   -1.9152   -0.0000 </r>
       <r>   -1.8369   -0.0000 </r>
       <r>   -1.5875   -0.0000 </r>
       <r>   -1.3749   -0.0000 </r>
       <r>   -0.9729    0.0000 </r>
       <r>   -0.8228    0.0000 </r>
       <r>   -0.5921    0.0000 </r>
       <r>   -0.2780    0.0000 </r>
       <r>   -0.2032    0.0000 </r>
       <r>   -0.0588    0.0000 </r>
       <r>    0.1992    0.0000 </r>
      </set>
     </set>
    </set>
   </array>
  </eigenvalues>
  <separator name="orbital magnetization" >
   <v name="MAGDIPOLOUT">      0.00000000      0.00000000      0.00000000</v>
  </separator>
  <dos>
   <i name="efermi">     -3.94704505 </i>
   <total>
    <array>
     <dimension dim="1">gridpoints</dimension>
     <dimension dim="2">spin</dimension>
     <field>energy</field>
     <field>total</field>
     <field>integrated</field>
     <set>
      <set comment="spin 1">
       <r>   -30.1214     0.0000     0.0000 </r>
       <r>   -30.0155     0.0000     0.0000 </r>
       <r>   -29.9096     0.0000     0.0000 </r>
       <r>   -29.8037     0.0000     0.0000 </r>
       <r>   -29.6979     0.0000     0.0000 </r>
       <r>   -29.5920     0.0000     0.0000 </r>
       <r>   -29.4861    -0.0000    -0.0000 </r>
       <r>   -29.3802    -0.0000    -0.0000 </r>
       <r>   -29.2743    -0.0000    -0.0000 </r>
       <r>   -29.1685    -0.0000    -0.0000 </r>
       <r>   -29.0626    -0.0000    -0.0000 </r>
       <r>   -28.9567    -0.0054    -0.0006 </r>
       <r>   -28.8508    -0.3185    -0.0343 </r>
       <r>   -28.7449     1.2611     0.0992 </r>
       <r>   -28.6391    14.1855     1.6012 </r>
       <r>   -28.5332     4.3344     2.0601 </r>
       <r>   -28.4273    -0.5463     2.0023 </r>
       <r>   -28.3214    -0.0216     2.0000 </r>
       <r>   -28.2155    -0.0001     2.0000 </r>
       <r>   -28.1096    -0.0000     2.0000 </r>
       <r>   -28.0038    -0.0000     2.0000 </r>
       <r>   -27.8979     0.0000     2.0000 </r>
       <r>   -27.7920     0.0000     2.0000 </r>
       <r>   -27.6861     0.0000     2.0000 </r>
       <r>   -27.5802     0.0000     2.0000 </r>
       <r>   -27.4744     0.0000     2.0000 </r>
       <r>   -27.3685     0.0000     2.0000 </r>
       <r>   -27.2626     0.0000     2.0000 </r>
       <r>   -27.1567     0.0000     2.0000 </r>
       <r>   -27.0508     0.0000     2.0000 </r>
       <r>   -26.9449     0.0000     2.0000 </r>
       <r>   -26.8391     0.0000     2.0000 </r>
       <r>   -26.7332     0.0000     2.0000 </r>
       <r>   -26.6273     0.0000     2.0000 </r>
       <r>   -26.5214     0.0000     2.0000 </r>
       <r>   -26.4155     0.0000     2.0000 </r>
       <r>   -26.3097     0.0000     2.0000 </r>
       <r>   -26.2038     0.0000     2.0000 </r>
       <r>   -26.0979     0.0000     2.0000 </r>
       <r>   -25.9920     0.0000     2.0000 </r>
       <r>   -25.8861     0.0000     2.0000 </r>
       <r>   -25.7803     0.0000     2.0000 </r>
       <r>   -25.6744     0.0000     2.0000 </r>
       <r>   -25.5685     0.0000     2.0000 </r>
       <r>   -25.4626     0.0000     2.0000 </r>
       <r>   -25.3567     0.0000     2.0000 </r>
       <r>   -25.2508     0.0000     2.0000 </r>
       <r>   -25.1450     0.0000     2.0000 </r>
       <r>   -25.0391     0.0000     2.0000 </r>
       <r>   -24.9332     0.0000     2.0000 </r>
       <r>   -24.8273     0.0000     2.0000 </r>
       <r>   -24.7214     0.0000     2.0000 </r>
       <r>   -24.6156     0.0000     2.0000 </r>
       <r>   -24.5097     0.0000     2.0000 </r>
       <r>   -24.4038     0.0000     2.0000 </r>
       <r>   -24.2979     0.0000     2.0000 </r>
       <r>   -24.1920     0.0000     2.0000 </r>
       <r>   -24.0861     0.0000     2.0000 </r>
       <r>   -23.9803     0.0000     2.0000 </r>
       <r>   -23.8744     0.0000     2.0000 </r>
       <r>   -23.7685     0.0000     2.0000 </r>
       <r>   -23.6626     0.0000     2.0000 </r>
       <r>   -23.5567     0.0000     2.0000 </r>
       <r>   -23.4509     0.0000     2.0000 </r>
       <r>   -23.3450     0.0000     2.0000 </r>
       <r>   -23.2391     0.0000     2.0000 </r>
       <r>   -23.1332     0.0000     2.0000 </r>
       <r>   -23.0273     0.0000     2.0000 </r>
       <r>   -22.9214     0.0000     2.0000 </r>
       <r>   -22.8156     0.0000     2.0000 </r>
       <r>   -22.7097     0.0000     2.0000 </r>
       <r>   -22.6038     0.0000     2.0000 </r>
       <r>   -22.4979     0.0000     2.0000 </r>
       <r>   -22.3920     0.0000     2.0000 </r>
       <r>   -22.2862     0.0000     2.0000 </r>
       <r>   -22.1803     0.0000     2.0000 </r>
       <r>   -22.0744     0.0000     2.0000 </r>
       <r>   -21.9685     0.0000     2.0000 </r>
       <r>   -21.8626     0.0000     2.0000 </r>
       <r>   -21.7568     0.0000     2.0000 </r>
       <r>   -21.6509     0.0000     2.0000 </r>
       <r>   -21.5450     0.0000     2.0000 </r>
       <r>   -21.4391     0.0000     2.0000 </r>
       <r>   -21.3332     0.0000     2.0000 </r>
       <r>   -21.2273     0.0000     2.0000 </r>
       <r>   -21.1215     0.0000     2.0000 </r>
       <r>   -21.0156     0.0000     2.0000 </r>
       <r>   -20.9097     0.0000     2.0000 </r>
       <r>   -20.8038     0.0000     2.0000 </r>
       <r>   -20.6979     0.0000     2.0000 </r>
       <r>   -20.5921     0.0000     2.0000 </r>
       <r>   -20.4862     0.0000     2.0000 </r>
       <r>   -20.3803     0.0000     2.0000 </r>
       <r>   -20.2744     0.0000     2.0000 </r>
       <r>   -20.1685     0.0000     2.0000 </r>
       <r>   -20.0626     0.0000     2.0000 </r>
       <r>   -19.9568     0.0000     2.0000 </r>
       <r>   -19.8509     0.0000     2.0000 </r>
       <r>   -19.7450     0.0000     2.0000 </r>
       <r>   -19.6391     0.0000     2.0000 </r>
       <r>   -19.5332     0.0000     2.0000 </r>
       <r>   -19.4274     0.0000     2.0000 </r>
       <r>   -19.3215     0.0000     2.0000 </r>
       <r>   -19.2156     0.0000     2.0000 </r>
       <r>   -19.1097     0.0000     2.0000 </r>
       <r>   -19.0038     0.0000     2.0000 </r>
       <r>   -18.8980     0.0000     2.0000 </r>
       <r>   -18.7921     0.0000     2.0000 </r>
       <r>   -18.6862     0.0000     2.0000 </r>
       <r>   -18.5803     0.0000     2.0000 </r>
       <r>   -18.4744     0.0000     2.0000 </r>
       <r>   -18.3685     0.0000     2.0000 </r>
       <r>   -18.2627     0.0000     2.0000 </r>
       <r>   -18.1568     0.0000     2.0000 </r>
       <r>   -18.0509     0.0000     2.0000 </r>
       <r>   -17.9450     0.0000     2.0000 </r>
       <r>   -17.8391     0.0000     2.0000 </r>
       <r>   -17.7333     0.0000     2.0000 </r>
       <r>   -17.6274     0.0000     2.0000 </r>
       <r>   -17.5215     0.0000     2.0000 </r>
       <r>   -17.4156     0.0000     2.0000 </r>
       <r>   -17.3097     0.0000     2.0000 </r>
       <r>   -17.2038     0.0000     2.0000 </r>
       <r>   -17.0980     0.0000     2.0000 </r>
       <r>   -16.9921     0.0000     2.0000 </r>
       <r>   -16.8862     0.0000     2.0000 </r>
       <r>   -16.7803     0.0000     2.0000 </r>
       <r>   -16.6744     0.0000     2.0000 </r>
       <r>   -16.5686     0.0000     2.0000 </r>
       <r>   -16.4627     0.0000     2.0000 </r>
       <r>   -16.3568     0.0000     2.0000 </r>
       <r>   -16.2509     0.0000     2.0000 </r>
       <r>   -16.1450     0.0000     2.0000 </r>
       <r>   -16.0392     0.0000     2.0000 </r>
       <r>   -15.9333     0.0000     2.0000 </r>
       <r>   -15.8274     0.0000     2.0000 </r>
       <r>   -15.7215     0.0000     2.0000 </r>
       <r>   -15.6156     0.0000     2.0000 </r>
       <r>   -15.5097     0.0000     2.0000 </r>
       <r>   -15.4039     0.0000     2.0000 </r>
       <r>   -15.2980     0.0000     2.0000 </r>
       <r>   -15.1921     0.0000     2.0000 </r>
       <r>   -15.0862     0.0000     2.0000 </r>
       <r>   -14.9803     0.0000     2.0000 </r>
       <r>   -14.8745    -0.0000     2.0000 </r>
       <r>   -14.7686    -0.0000     2.0000 </r>
       <r>   -14.6627    -0.0000     2.0000 </r>
       <r>   -14.5568    -0.0000     2.0000 </r>
       <r>   -14.4509    -0.0000     2.0000 </r>
       <r>   -14.3450    -0.0000     2.0000 </r>
       <r>   -14.2392    -0.0160     1.9983 </r>
       <r>   -14.1333    -0.4985     1.9455 </r>
       <r>   -14.0274     3.5058     2.3167 </r>
       <r>   -13.9215    14.4577     3.8475 </r>
       <r>   -13.8156     1.8177     4.0400 </r>
       <r>   -13.7098    -0.3702     4.0008 </r>
       <r>   -13.6039    -0.0075     4.0000 </r>
       <r>   -13.4980    -0.0000     4.0000 </r>
       <r>   -13.3921    -0.0000     4.0000 </r>
       <r>   -13.2862    -0.0000     4.0000 </r>
       <r>   -13.1804     0.0000     4.0000 </r>
       <r>   -13.0745     0.0000     4.0000 </r>
       <r>   -12.9686     0.0000     4.0000 </r>
       <r>   -12.8627     0.0000     4.0000 </r>
       <r>   -12.7568     0.0000     4.0000 </r>
       <r>   -12.6509     0.0000     4.0000 </r>
       <r>   -12.5451     0.0000     4.0000 </r>
       <r>   -12.4392     0.0000     4.0000 </r>
       <r>   -12.3333     0.0000     4.0000 </r>
       <r>   -12.2274    -0.0000     4.0000 </r>
       <r>   -12.1215    -0.0000     4.0000 </r>
       <r>   -12.0157    -0.0000     4.0000 </r>
       <r>   -11.9098    -0.0000     4.0000 </r>
       <r>   -11.8039    -0.0000     4.0000 </r>
       <r>   -11.6980    -0.0001     4.0000 </r>
       <r>   -11.5921    -0.0458     3.9951 </r>
       <r>   -11.4862    -0.9970     3.8896 </r>
       <r>   -11.3804     7.3902     4.6721 </r>
       <r>   -11.2745    32.1937     8.0808 </r>
       <r>   -11.1686    18.0868     9.9958 </r>
       <r>   -11.0627     0.3660    10.0346 </r>
       <r>   -10.9568    -0.3219    10.0005 </r>
       <r>   -10.8510    -0.0049    10.0000 </r>
       <r>   -10.7451    -0.0000    10.0000 </r>
       <r>   -10.6392    -0.0000    10.0000 </r>
       <r>   -10.5333    -0.0009     9.9999 </r>
       <r>   -10.4274    -0.1259     9.9866 </r>
       <r>   -10.3216    -0.3361     9.9510 </r>
       <r>   -10.2157    10.9391    11.1092 </r>
       <r>   -10.1098     9.0485    12.0673 </r>
       <r>   -10.0039    -0.5554    12.0085 </r>
       <r>    -9.8980    -0.0798    12.0000 </r>
       <r>    -9.7921    -0.0004    12.0000 </r>
       <r>    -9.6863    -0.0000    12.0000 </r>
       <r>    -9.5804    -0.0000    12.0000 </r>
       <r>    -9.4745    -0.0000    12.0000 </r>
       <r>    -9.3686    -0.0000    12.0000 </r>
       <r>    -9.2627    -0.0000    12.0000 </r>
       <r>    -9.1569    -0.0000    12.0000 </r>
       <r>    -9.0510    -0.0000    12.0000 </r>
       <r>    -8.9451    -0.0001    12.0000 </r>
       <r>    -8.8392    -0.0372    11.9960 </r>
       <r>    -8.7333    -0.6105    11.9314 </r>
       <r>    -8.6274     6.1091    12.5783 </r>
       <r>    -8.5216    13.2098    13.9769 </r>
       <r>    -8.4157    -0.1771    13.9582 </r>
       <r>    -8.3098     5.2827    14.5175 </r>
       <r>    -8.2039    13.6020    15.9577 </r>
       <r>    -8.0980     0.6590    16.0275 </r>
       <r>    -7.9922    -0.2771    15.9982 </r>
       <r>    -7.8863    -0.5447    15.9405 </r>
       <r>    -7.7804     4.2154    16.3868 </r>
       <r>    -7.6745    13.5171    17.8180 </r>
       <r>    -7.5686     4.7410    18.3200 </r>
       <r>    -7.4628    28.5843    21.3466 </r>
       <r>    -7.3569    32.7502    24.8142 </r>
       <r>    -7.2510    13.9285    26.2890 </r>
       <r>    -7.1451    14.4395    27.8178 </r>
       <r>    -7.0392    25.2195    30.4881 </r>
       <r>    -6.9333    14.0931    31.9803 </r>
       <r>    -6.8275     7.0471    32.7265 </r>
       <r>    -6.7216    37.7281    36.7212 </r>
       <r>    -6.6157    23.9424    39.2562 </r>
       <r>    -6.5098    48.5753    44.3995 </r>
       <r>    -6.4039    41.8062    48.8260 </r>
       <r>    -6.2981    49.7536    54.0940 </r>
       <r>    -6.1922    44.9369    58.8519 </r>
       <r>    -6.0863    51.9024    64.3474 </r>
       <r>    -5.9804    37.8548    68.3556 </r>
       <r>    -5.8745    19.9254    70.4653 </r>
       <r>    -5.7686    27.9782    73.4277 </r>
       <r>    -5.6628    43.6550    78.0499 </r>
       <r>    -5.5569    44.5558    82.7676 </r>
       <r>    -5.4510    46.1525    87.6542 </r>
       <r>    -5.3451    81.5739    96.2914 </r>
       <r>    -5.2392    68.3392   103.5273 </r>
       <r>    -5.1334    80.8248   112.0851 </r>
       <r>    -5.0275    85.0759   121.0931 </r>
       <r>    -4.9216    75.8470   129.1239 </r>
       <r>    -4.8157    92.3451   138.9015 </r>
       <r>    -4.7098    54.4275   144.6644 </r>
       <r>    -4.6040    12.6448   146.0032 </r>
       <r>    -4.4981     9.8428   147.0454 </r>
       <r>    -4.3922     9.4773   148.0489 </r>
       <r>    -4.2863    -0.8999   147.9536 </r>
       <r>    -4.1804    10.2234   149.0361 </r>
       <r>    -4.0745    17.4835   150.8872 </r>
       <r>    -3.9687    10.9564   152.0473 </r>
       <r>    -3.8628    -0.3010   152.0155 </r>
       <r>    -3.7569    -0.2197   151.9922 </r>
       <r>    -3.6510    -0.5734   151.9315 </r>
       <r>    -3.5451     8.7750   152.8606 </r>
       <r>    -3.4393    11.1857   154.0449 </r>
       <r>    -3.3334    -0.2901   154.0142 </r>
       <r>    -3.2275    -0.2091   153.9921 </r>
       <r>    -3.1216    -0.6072   153.9278 </r>
       <r>    -3.0157     8.2057   154.7966 </r>
       <r>    -2.9098    17.1609   156.6136 </r>
       <r>    -2.8040    13.0058   157.9907 </r>
       <r>    -2.6981     0.1342   158.0049 </r>
       <r>    -2.5922    -0.4774   157.9544 </r>
       <r>    -2.4863    13.5340   159.3874 </r>
       <r>    -2.3804    21.2763   161.6401 </r>
       <r>    -2.2746     4.0342   162.0673 </r>
       <r>    -2.1687    -0.7653   161.9863 </r>
       <r>    -2.0628    -0.6902   161.9132 </r>
       <r>    -1.9569    13.9763   163.3930 </r>
       <r>    -1.8510    22.9576   165.8238 </r>
       <r>    -1.7452     1.6127   165.9945 </r>
       <r>    -1.6393     9.1725   166.9657 </r>
       <r>    -1.5334    12.2743   168.2653 </r>
       <r>    -1.4275    14.0788   169.7560 </r>
       <r>    -1.3216     2.3914   170.0092 </r>
       <r>    -1.2157     1.3895   170.1564 </r>
       <r>    -1.1099    14.4257   171.6838 </r>
       <r>    -1.0040     2.8868   171.9894 </r>
       <r>    -0.8981     4.6457   172.4813 </r>
       <r>    -0.7922    13.1993   173.8789 </r>
       <r>    -0.6863     5.8544   174.4988 </r>
       <r>    -0.5805    13.4298   175.9207 </r>
       <r>    -0.4746     0.6192   175.9863 </r>
       <r>    -0.3687    11.1285   177.1646 </r>
       <r>    -0.2628    18.0035   179.0708 </r>
       <r>    -0.1569    13.4892   180.4991 </r>
       <r>    -0.0510    13.2811   181.9053 </r>
       <r>     0.0548     1.1409   182.0261 </r>
       <r>     0.1607    12.3578   183.3346 </r>
       <r>     0.2666     6.9508   184.0705 </r>
       <r>     0.3725    -0.6190   184.0050 </r>
       <r>     0.4784    -0.0470   184.0000 </r>
       <r>     0.5842    -0.0002   184.0000 </r>
       <r>     0.6901    -0.0000   184.0000 </r>
       <r>     0.7960    -0.0000   184.0000 </r>
       <r>     0.9019     0.0000   184.0000 </r>
       <r>     1.0078     0.0000   184.0000 </r>
       <r>     1.1136     0.0000   184.0000 </r>
       <r>     1.2195     0.0000   184.0000 </r>
       <r>     1.3254     0.0000   184.0000 </r>
       <r>     1.4313     0.0000   184.0000 </r>
       <r>     1.5372     0.0000   184.0000 </r>
       <r>     1.6431     0.0000   184.0000 </r>
      </set>
      <set comment="spin 2">
       <r>   -30.1214     0.0000     0.0000 </r>
       <r>   -30.0155     0.0000     0.0000 </r>
       <r>   -29.9096     0.0000     0.0000 </r>
       <r>   -29.8037     0.0000     0.0000 </r>
       <r>   -29.6979     0.0000     0.0000 </r>
       <r>   -29.5920     0.0000     0.0000 </r>
       <r>   -29.4861    -0.0000    -0.0000 </r>
       <r>   -29.3802    -0.0000    -0.0000 </r>
       <r>   -29.2743    -0.0000    -0.0000 </r>
       <r>   -29.1685    -0.0000    -0.0000 </r>
       <r>   -29.0626    -0.0000    -0.0000 </r>
       <r>   -28.9567    -0.0033    -0.0003 </r>
       <r>   -28.8508    -0.2496    -0.0268 </r>
       <r>   -28.7449     0.5991     0.0367 </r>
       <r>   -28.6391    13.5232     1.4685 </r>
       <r>   -28.5332     5.6518     2.0669 </r>
       <r>   -28.4273    -0.5995     2.0035 </r>
       <r>   -28.3214    -0.0326     2.0000 </r>
       <r>   -28.2155    -0.0001     2.0000 </r>
       <r>   -28.1096    -0.0000     2.0000 </r>
       <r>   -28.0038    -0.0000     2.0000 </r>
       <r>   -27.8979     0.0000     2.0000 </r>
       <r>   -27.7920     0.0000     2.0000 </r>
       <r>   -27.6861     0.0000     2.0000 </r>
       <r>   -27.5802     0.0000     2.0000 </r>
       <r>   -27.4744     0.0000     2.0000 </r>
       <r>   -27.3685     0.0000     2.0000 </r>
       <r>   -27.2626     0.0000     2.0000 </r>
       <r>   -27.1567     0.0000     2.0000 </r>
       <r>   -27.0508     0.0000     2.0000 </r>
       <r>   -26.9449     0.0000     2.0000 </r>
       <r>   -26.8391     0.0000     2.0000 </r>
       <r>   -26.7332     0.0000     2.0000 </r>
       <r>   -26.6273     0.0000     2.0000 </r>
       <r>   -26.5214     0.0000     2.0000 </r>
       <r>   -26.4155     0.0000     2.0000 </r>
       <r>   -26.3097     0.0000     2.0000 </r>
       <r>   -26.2038     0.0000     2.0000 </r>
       <r>   -26.0979     0.0000     2.0000 </r>
       <r>   -25.9920     0.0000     2.0000 </r>
       <r>   -25.8861     0.0000     2.0000 </r>
       <r>   -25.7803     0.0000     2.0000 </r>
       <r>   -25.6744     0.0000     2.0000 </r>
       <r>   -25.5685     0.0000     2.0000 </r>
       <r>   -25.4626     0.0000     2.0000 </r>
       <r>   -25.3567     0.0000     2.0000 </r>
       <r>   -25.2508     0.0000     2.0000 </r>
       <r>   -25.1450     0.0000     2.0000 </r>
       <r>   -25.0391     0.0000     2.0000 </r>
       <r>   -24.9332     0.0000     2.0000 </r>
       <r>   -24.8273     0.0000     2.0000 </r>
       <r>   -24.7214     0.0000     2.0000 </r>
       <r>   -24.6156     0.0000     2.0000 </r>
       <r>   -24.5097     0.0000     2.0000 </r>
       <r>   -24.4038     0.0000     2.0000 </r>
       <r>   -24.2979     0.0000     2.0000 </r>
       <r>   -24.1920     0.0000     2.0000 </r>
       <r>   -24.0861     0.0000     2.0000 </r>
       <r>   -23.9803     0.0000     2.0000 </r>
       <r>   -23.8744     0.0000     2.0000 </r>
       <r>   -23.7685     0.0000     2.0000 </r>
       <r>   -23.6626     0.0000     2.0000 </r>
       <r>   -23.5567     0.0000     2.0000 </r>
       <r>   -23.4509     0.0000     2.0000 </r>
       <r>   -23.3450     0.0000     2.0000 </r>
       <r>   -23.2391     0.0000     2.0000 </r>
       <r>   -23.1332     0.0000     2.0000 </r>
       <r>   -23.0273     0.0000     2.0000 </r>
       <r>   -22.9214     0.0000     2.0000 </r>
       <r>   -22.8156     0.0000     2.0000 </r>
       <r>   -22.7097     0.0000     2.0000 </r>
       <r>   -22.6038     0.0000     2.0000 </r>
       <r>   -22.4979     0.0000     2.0000 </r>
       <r>   -22.3920     0.0000     2.0000 </r>
       <r>   -22.2862     0.0000     2.0000 </r>
       <r>   -22.1803     0.0000     2.0000 </r>
       <r>   -22.0744     0.0000     2.0000 </r>
       <r>   -21.9685     0.0000     2.0000 </r>
       <r>   -21.8626     0.0000     2.0000 </r>
       <r>   -21.7568     0.0000     2.0000 </r>
       <r>   -21.6509     0.0000     2.0000 </r>
       <r>   -21.5450     0.0000     2.0000 </r>
       <r>   -21.4391     0.0000     2.0000 </r>
       <r>   -21.3332     0.0000     2.0000 </r>
       <r>   -21.2273     0.0000     2.0000 </r>
       <r>   -21.1215     0.0000     2.0000 </r>
       <r>   -21.0156     0.0000     2.0000 </r>
       <r>   -20.9097     0.0000     2.0000 </r>
       <r>   -20.8038     0.0000     2.0000 </r>
       <r>   -20.6979     0.0000     2.0000 </r>
       <r>   -20.5921     0.0000     2.0000 </r>
       <r>   -20.4862     0.0000     2.0000 </r>
       <r>   -20.3803     0.0000     2.0000 </r>
       <r>   -20.2744     0.0000     2.0000 </r>
       <r>   -20.1685     0.0000     2.0000 </r>
       <r>   -20.0626     0.0000     2.0000 </r>
       <r>   -19.9568     0.0000     2.0000 </r>
       <r>   -19.8509     0.0000     2.0000 </r>
       <r>   -19.7450     0.0000     2.0000 </r>
       <r>   -19.6391     0.0000     2.0000 </r>
       <r>   -19.5332     0.0000     2.0000 </r>
       <r>   -19.4274     0.0000     2.0000 </r>
       <r>   -19.3215     0.0000     2.0000 </r>
       <r>   -19.2156     0.0000     2.0000 </r>
       <r>   -19.1097     0.0000     2.0000 </r>
       <r>   -19.0038     0.0000     2.0000 </r>
       <r>   -18.8980     0.0000     2.0000 </r>
       <r>   -18.7921     0.0000     2.0000 </r>
       <r>   -18.6862     0.0000     2.0000 </r>
       <r>   -18.5803     0.0000     2.0000 </r>
       <r>   -18.4744     0.0000     2.0000 </r>
       <r>   -18.3685     0.0000     2.0000 </r>
       <r>   -18.2627     0.0000     2.0000 </r>
       <r>   -18.1568     0.0000     2.0000 </r>
       <r>   -18.0509     0.0000     2.0000 </r>
       <r>   -17.9450     0.0000     2.0000 </r>
       <r>   -17.8391     0.0000     2.0000 </r>
       <r>   -17.7333     0.0000     2.0000 </r>
       <r>   -17.6274     0.0000     2.0000 </r>
       <r>   -17.5215     0.0000     2.0000 </r>
       <r>   -17.4156     0.0000     2.0000 </r>
       <r>   -17.3097     0.0000     2.0000 </r>
       <r>   -17.2038     0.0000     2.0000 </r>
       <r>   -17.0980     0.0000     2.0000 </r>
       <r>   -16.9921     0.0000     2.0000 </r>
       <r>   -16.8862     0.0000     2.0000 </r>
       <r>   -16.7803     0.0000     2.0000 </r>
       <r>   -16.6744     0.0000     2.0000 </r>
       <r>   -16.5686     0.0000     2.0000 </r>
       <r>   -16.4627     0.0000     2.0000 </r>
       <r>   -16.3568     0.0000     2.0000 </r>
       <r>   -16.2509     0.0000     2.0000 </r>
       <r>   -16.1450     0.0000     2.0000 </r>
       <r>   -16.0392     0.0000     2.0000 </r>
       <r>   -15.9333     0.0000     2.0000 </r>
       <r>   -15.8274     0.0000     2.0000 </r>
       <r>   -15.7215     0.0000     2.0000 </r>
       <r>   -15.6156     0.0000     2.0000 </r>
       <r>   -15.5097     0.0000     2.0000 </r>
       <r>   -15.4039     0.0000     2.0000 </r>
       <r>   -15.2980     0.0000     2.0000 </r>
       <r>   -15.1921     0.0000     2.0000 </r>
       <r>   -15.0862     0.0000     2.0000 </r>
       <r>   -14.9803     0.0000     2.0000 </r>
       <r>   -14.8745     0.0000     2.0000 </r>
       <r>   -14.7686    -0.0000     2.0000 </r>
       <r>   -14.6627    -0.0000     2.0000 </r>
       <r>   -14.5568    -0.0000     2.0000 </r>
       <r>   -14.4509    -0.0000     2.0000 </r>
       <r>   -14.3450    -0.0000     2.0000 </r>
       <r>   -14.2392    -0.0058     1.9994 </r>
       <r>   -14.1333    -0.3285     1.9646 </r>
       <r>   -14.0274     1.3646     2.1091 </r>
       <r>   -13.9215    14.2516     3.6181 </r>
       <r>   -13.8156     4.1649     4.0591 </r>
       <r>   -13.7098    -0.5374     4.0022 </r>
       <r>   -13.6039    -0.0203     4.0000 </r>
       <r>   -13.4980    -0.0000     4.0000 </r>
       <r>   -13.3921    -0.0000     4.0000 </r>
       <r>   -13.2862    -0.0000     4.0000 </r>
       <r>   -13.1804     0.0000     4.0000 </r>
       <r>   -13.0745     0.0000     4.0000 </r>
       <r>   -12.9686     0.0000     4.0000 </r>
       <r>   -12.8627     0.0000     4.0000 </r>
       <r>   -12.7568     0.0000     4.0000 </r>
       <r>   -12.6509     0.0000     4.0000 </r>
       <r>   -12.5451     0.0000     4.0000 </r>
       <r>   -12.4392     0.0000     4.0000 </r>
       <r>   -12.3333     0.0000     4.0000 </r>
       <r>   -12.2274    -0.0000     4.0000 </r>
       <r>   -12.1215    -0.0000     4.0000 </r>
       <r>   -12.0157    -0.0000     4.0000 </r>
       <r>   -11.9098    -0.0000     4.0000 </r>
       <r>   -11.8039    -0.0000     4.0000 </r>
       <r>   -11.6980    -0.0000     4.0000 </r>
       <r>   -11.5921    -0.0135     3.9986 </r>
       <r>   -11.4862    -0.7029     3.9241 </r>
       <r>   -11.3804     2.7314     4.2133 </r>
       <r>   -11.2745    31.0897     7.5052 </r>
       <r>   -11.1686    22.4664     9.8840 </r>
       <r>   -11.0627     1.5824    10.0515 </r>
       <r>   -10.9568    -0.4751    10.0012 </r>
       <r>   -10.8510    -0.0112    10.0000 </r>
       <r>   -10.7451    -0.0000    10.0000 </r>
       <r>   -10.6392    -0.0000    10.0000 </r>
       <r>   -10.5333    -0.0001    10.0000 </r>
       <r>   -10.4274    -0.0228     9.9976 </r>
       <r>   -10.3216    -0.5546     9.9389 </r>
       <r>   -10.2157     4.5008    10.4154 </r>
       <r>   -10.1098    14.1158    11.9100 </r>
       <r>   -10.0039     1.1639    12.0333 </r>
       <r>    -9.8980    -0.3090    12.0005 </r>
       <r>    -9.7921    -0.0051    12.0000 </r>
       <r>    -9.6863    -0.0000    12.0000 </r>
       <r>    -9.5804    -0.0000    12.0000 </r>
       <r>    -9.4745    -0.0000    12.0000 </r>
       <r>    -9.3686    -0.0000    12.0000 </r>
       <r>    -9.2627    -0.0000    12.0000 </r>
       <r>    -9.1569    -0.0000    12.0000 </r>
       <r>    -9.0510    -0.0000    12.0000 </r>
       <r>    -8.9451    -0.0000    12.0000 </r>
       <r>    -8.8392    -0.0132    11.9986 </r>
       <r>    -8.7333    -0.4652    11.9493 </r>
       <r>    -8.6274     3.0131    12.2684 </r>
       <r>    -8.5216    14.5461    13.8085 </r>
       <r>    -8.4157     1.9654    14.0166 </r>
       <r>    -8.3098     0.2268    14.0406 </r>
       <r>    -8.2039    13.5582    15.4762 </r>
       <r>    -8.0980     5.5763    16.0666 </r>
       <r>    -7.9922    -0.5996    16.0031 </r>
       <r>    -7.8863    -0.2407    15.9777 </r>
       <r>    -7.7804     0.2440    16.0035 </r>
       <r>    -7.6745    12.5127    17.3284 </r>
       <r>    -7.5686     7.4318    18.1152 </r>
       <r>    -7.4628    20.6667    20.3035 </r>
       <r>    -7.3569    30.4520    23.5278 </r>
       <r>    -7.2510    22.7496    25.9365 </r>
       <r>    -7.1451    12.7457    27.2861 </r>
       <r>    -7.0392    21.3173    29.5432 </r>
       <r>    -6.9333    21.9871    31.8712 </r>
       <r>    -6.8275     3.0798    32.1973 </r>
       <r>    -6.7216    31.4179    35.5239 </r>
       <r>    -6.6157    28.8772    38.5814 </r>
       <r>    -6.5098    44.4670    43.2897 </r>
       <r>    -6.4039    39.4243    47.4640 </r>
       <r>    -6.2981    51.6247    52.9301 </r>
       <r>    -6.1922    44.2441    57.6147 </r>
       <r>    -6.0863    50.3537    62.9462 </r>
       <r>    -5.9804    43.0564    67.5051 </r>
       <r>    -5.8745    23.3500    69.9774 </r>
       <r>    -5.7686    22.8715    72.3991 </r>
       <r>    -5.6628    40.7724    76.7161 </r>
       <r>    -5.5569    47.6302    81.7593 </r>
       <r>    -5.4510    40.0024    85.9948 </r>
       <r>    -5.3451    73.5496    93.7823 </r>
       <r>    -5.2392    75.8052   101.8087 </r>
       <r>    -5.1334    74.0932   109.6538 </r>
       <r>    -5.0275    89.8607   119.1684 </r>
       <r>    -4.9216    73.2543   126.9247 </r>
       <r>    -4.8157    84.9897   135.9235 </r>
       <r>    -4.7098    72.9151   143.6439 </r>
       <r>    -4.6040    20.2649   145.7895 </r>
       <r>    -4.4981     6.2319   146.4494 </r>
       <r>    -4.3922    13.6674   147.8965 </r>
       <r>    -4.2863     0.9212   147.9940 </r>
       <r>    -4.1804     0.9917   148.0990 </r>
       <r>    -4.0745    17.3203   149.9329 </r>
       <r>    -3.9687    18.1306   151.8526 </r>
       <r>    -3.8628     1.8320   152.0466 </r>
       <r>    -3.7569    -0.4302   152.0010 </r>
       <r>    -3.6510    -0.0102   152.0000 </r>
       <r>    -3.5451    -0.0821   151.9913 </r>
       <r>    -3.4393    -0.5475   151.9333 </r>
       <r>    -3.3334     9.1629   152.9035 </r>
       <r>    -3.2275    10.8232   154.0495 </r>
       <r>    -3.1216    -0.7905   153.9658 </r>
       <r>    -3.0157     2.1544   154.1939 </r>
       <r>    -2.9098    15.5132   155.8364 </r>
       <r>    -2.8040    16.5645   157.5903 </r>
       <r>    -2.6981     4.4656   158.0631 </r>
       <r>    -2.5922    -1.1081   157.9458 </r>
       <r>    -2.4863     2.6230   158.2235 </r>
       <r>    -2.3804    20.9368   160.4403 </r>
       <r>    -2.2746    15.0382   162.0326 </r>
       <r>    -2.1687    -0.1008   162.0219 </r>
       <r>    -2.0628    -0.8069   161.9365 </r>
       <r>    -1.9569     3.3055   162.2865 </r>
       <r>    -1.8510    22.2119   164.6383 </r>
       <r>    -1.7452    13.0261   166.0175 </r>
       <r>    -1.6393     2.2604   166.2569 </r>
       <r>    -1.5334    13.9681   167.7359 </r>
       <r>    -1.4275     5.1177   168.2777 </r>
       <r>    -1.3216    14.1496   169.7759 </r>
       <r>    -1.2157     2.5299   170.0438 </r>
       <r>    -1.1099    -1.0261   169.9351 </r>
       <r>    -1.0040     5.0825   170.4733 </r>
       <r>    -0.8981    14.3909   171.9970 </r>
       <r>    -0.7922    14.2359   173.5043 </r>
       <r>    -0.6863     4.9655   174.0301 </r>
       <r>    -0.5805    11.0292   175.1979 </r>
       <r>    -0.4746     8.0615   176.0514 </r>
       <r>    -0.3687    -1.0464   175.9406 </r>
       <r>    -0.2628    13.8134   177.4032 </r>
       <r>    -0.1569    21.9050   179.7225 </r>
       <r>    -0.0510    13.8416   181.1881 </r>
       <r>     0.0548     7.7597   182.0097 </r>
       <r>     0.1607     3.7512   182.4069 </r>
       <r>     0.2666    14.1094   183.9008 </r>
       <r>     0.3725     1.2607   184.0343 </r>
       <r>     0.4784    -0.3185   184.0006 </r>
       <r>     0.5842    -0.0054   184.0000 </r>
       <r>     0.6901    -0.0000   184.0000 </r>
       <r>     0.7960    -0.0000   184.0000 </r>
       <r>     0.9019    -0.0000   184.0000 </r>
       <r>     1.0078     0.0000   184.0000 </r>
       <r>     1.1136     0.0000   184.0000 </r>
       <r>     1.2195     0.0000   184.0000 </r>
       <r>     1.3254     0.0000   184.0000 </r>
       <r>     1.4313     0.0000   184.0000 </r>
       <r>     1.5372     0.0000   184.0000 </r>
       <r>     1.6431     0.0000   184.0000 </r>
      </set>
     </set>
    </array>
   </total>
  </dos>
 </calculation>
 <structure name="finalpos" >
  <crystal>
   <varray name="basis" >
    <v>      15.00000000       0.00000000       0.00000000 </v>
    <v>       0.00000000      15.00000000       0.00000000 </v>
    <v>       0.00000000       0.00000000      15.00000000 </v>
   </varray>
   <i name="volume">   3375.00000000 </i>
   <varray name="rec_basis" >
    <v>       0.06666667       0.00000000       0.00000000 </v>
    <v>       0.00000000       0.06666667       0.00000000 </v>
    <v>       0.00000000       0.00000000       0.06666667 </v>
   </varray>
  </crystal>
  <varray name="positions" >
   <v>       0.29043333       0.41659667       0.55809267 </v>
   <v>       0.37641533       0.54621733       0.49648533 </v>
   <v>       0.38870133       0.28939000       0.55987667 </v>
   <v>       0.52978867       0.50629133       0.47853733 </v>
   <v>       0.55081333       0.35077733       0.53061667 </v>
   <v>       0.45207933       0.44062267       0.60859733 </v>
   <v>       0.42091867       0.39503800       0.44594267 </v>
   <v>       0.22327267       0.56135533       0.55707800 </v>
   <v>       0.33389867       0.54865467       0.66121867 </v>
   <v>       0.34646467       0.68341333       0.56957400 </v>
   <v>       0.48513533       0.66262733       0.47450533 </v>
   <v>       0.63096733       0.48952933       0.59903733 </v>
   <v>       0.48689400       0.58876800       0.61132867 </v>
   <v>       0.74550000       0.50733800       0.64167733 </v>
   <v>       0.81728667       0.51275067       0.66922667 </v>
  </varray>
 </structure>
</modeling>
