<?xml version="1.0" encoding="ISO-8859-1"?>
<modeling>
 <generator>
  <i name="program" type="string">vasp </i>
  <i name="version" type="string">5.4.4.18Apr17-6-g9f103f2a35  </i>
  <i name="subversion" type="string">(build May 08 2019 13:49:07) complex            parallel </i>
  <i name="platform" type="string">LinuxIFC </i>
  <i name="date" type="string">2019 11 13 </i>
  <i name="time" type="string">12:14:00 </i>
 </generator>
 <incar>
  <i type="string" name="SYSTEM"> CuCO</i>
  <i type="int" name="ISTART">     0</i>
  <i type="string" name="PREC">accurate</i>
  <i type="string" name="ALGO"> Fast</i>
  <i type="int" name="ISPIN">     2</i>
  <i type="int" name="INIWAV">     1</i>
  <i type="int" name="NELM">   300</i>
  <i type="int" name="NELMIN">     3</i>
  <i type="int" name="IBRION">    -1</i>
  <i name="EDIFF">      0.00000010</i>
  <i name="EDIFFG">     -0.00100000</i>
  <i type="int" name="NSW">     0</i>
  <i type="int" name="ISYM">     0</i>
  <i name="ENCUT">    600.00000000</i>
  <i name="NUPDOWN">      1.00000000</i>
  <i type="logical" name="LREAL"> F  </i>
  <i type="int" name="ISMEAR">     1</i>
  <i name="SIGMA">      0.10000000</i>
  <i name="KSPACING">      0.50000000</i>
  <i type="logical" name="KGAMMA"> F  </i>
  <i type="logical" name="LWAVE"> F  </i>
  <i type="logical" name="LCHARG"> F  </i>
  <v type="int" name="KPOINT_BSE">    -1     0     0     0</v>
  <i type="int" name="NELM">   300</i>
  <i type="string" name="GGA"> PE</i>
 </incar>
 <structure name="primitive_cell" >
  <crystal>
   <varray name="basis" >
    <v>      15.00000000       0.00000000       0.00000000 </v>
    <v>       0.00000000      15.00000000       0.00000000 </v>
    <v>       0.00000000       0.00000000      15.00000000 </v>
   </varray>
   <i name="volume">   3375.00000000 </i>
   <varray name="rec_basis" >
    <v>       0.06666667       0.00000000       0.00000000 </v>
    <v>       0.00000000       0.06666667       0.00000000 </v>
    <v>       0.00000000       0.00000000       0.06666667 </v>
   </varray>
  </crystal>
  <varray name="positions" >
   <v>       0.29211933       0.41789200      -0.44244600 </v>
   <v>       0.38901333       0.29556800      -0.44285933 </v>
   <v>       0.22826400      -0.43741400      -0.44522000 </v>
   <v>       0.33480667      -0.45497800      -0.34022600 </v>
   <v>       0.37607600      -0.44897667       0.49457600 </v>
   <v>       0.44938200       0.43517267      -0.38127667 </v>
   <v>       0.41938000       0.40147133       0.44136000 </v>
   <v>       0.48400467      -0.40860467      -0.38684667 </v>
   <v>      -0.46509333      -0.49292933       0.47679933 </v>
   <v>      -0.44942667       0.34074333      -0.47316667 </v>
   <v>       0.35106667      -0.31261333      -0.42881133 </v>
   <v>       0.47999933      -0.33706733       0.47966867 </v>
   <v>      -0.37401333       0.48580467      -0.39929867 </v>
   <v>      -0.25470000       0.49214067      -0.36110067 </v>
   <v>      -0.18175333      -0.49487400      -0.33409933 </v>
  </varray>
 </structure>
 <varray name="primitive_index" >
  <v type="int" >        1 </v>
  <v type="int" >        3 </v>
  <v type="int" >        8 </v>
  <v type="int" >        9 </v>
  <v type="int" >        2 </v>
  <v type="int" >        6 </v>
  <v type="int" >        7 </v>
  <v type="int" >       13 </v>
  <v type="int" >        4 </v>
  <v type="int" >        5 </v>
  <v type="int" >       10 </v>
  <v type="int" >       11 </v>
  <v type="int" >       12 </v>
  <v type="int" >       14 </v>
  <v type="int" >       15 </v>
 </varray>
 <kpoints>
  <generation param="Monkhorst-Pack">
   <v type="int" name="divisions">       1        1        1 </v>
   <v name="usershift">      0.00000000       0.00000000       0.00000000 </v>
   <v name="genvec1">      1.00000000       0.00000000       0.00000000 </v>
   <v name="genvec2">      0.00000000       1.00000000       0.00000000 </v>
   <v name="genvec3">      0.00000000       0.00000000       1.00000000 </v>
   <v name="shift">      0.00000000       0.00000000       0.00000000 </v>
  </generation>
  <varray name="kpointlist" >
   <v>       0.00000000       0.00000000       0.00000000 </v>
  </varray>
  <varray name="weights" >
   <v>       1.00000000 </v>
  </varray>
 </kpoints>
 <parameters>
  <separator name="general" >
   <i type="string" name="SYSTEM">CuCO</i>
   <i type="logical" name="LCOMPAT"> F  </i>
  </separator>
  <separator name="electronic" >
   <i type="string" name="PREC">accura</i>
   <i name="ENMAX">    600.00000000</i>
   <i name="ENAUG">    644.87300000</i>
   <i name="EDIFF">      0.00000010</i>
   <i type="int" name="IALGO">    68</i>
   <i type="int" name="IWAVPR">    10</i>
   <i type="int" name="NBANDS">    92</i>
   <i name="NELECT">    153.00000000</i>
   <i type="int" name="TURBO">     0</i>
   <i type="int" name="IRESTART">     0</i>
   <i type="int" name="NREBOOT">     0</i>
   <i type="int" name="NMIN">     0</i>
   <i name="EREF">      0.00000000</i>
   <separator name="electronic smearing" >
    <i type="int" name="ISMEAR">     1</i>
    <i name="SIGMA">      0.10000000</i>
    <i name="KSPACING">      0.50000000</i>
    <i type="logical" name="KGAMMA"> F  </i>
   </separator>
   <separator name="electronic projectors" >
    <i type="logical" name="LREAL"> F  </i>
    <v name="ROPT">      0.00000000      0.00000000      0.00000000</v>
    <i type="int" name="LMAXPAW">  -100</i>
    <i type="int" name="LMAXMIX">     2</i>
    <i type="logical" name="NLSPLINE"> F  </i>
   </separator>
   <separator name="electronic startup" >
    <i type="int" name="ISTART">     0</i>
    <i type="int" name="ICHARG">     2</i>
    <i type="int" name="INIWAV">     1</i>
   </separator>
   <separator name="electronic spin" >
    <i type="int" name="ISPIN">     2</i>
    <i type="logical" name="LNONCOLLINEAR"> F  </i>
    <v name="MAGMOM">      0.06666667      0.06666667      0.06666667      0.06666667      0.06666667      0.06666667      0.06666667      0.06666667      0.06666667      0.06666667      0.06666667      0.06666667      0.06666667      0.06666667      0.06666667</v>
    <i name="NUPDOWN">      1.00000000</i>
    <i type="logical" name="LSORBIT"> F  </i>
    <v name="SAXIS">      0.00000000      0.00000000      1.00000000</v>
    <i type="logical" name="LSPIRAL"> F  </i>
    <v name="QSPIRAL">      0.00000000      0.00000000      0.00000000</v>
    <i type="logical" name="LZEROZ"> F  </i>
   </separator>
   <separator name="electronic exchange-correlation" >
    <i type="logical" name="LASPH"> F  </i>
    <i type="logical" name="LMETAGGA"> F  </i>
   </separator>
   <separator name="electronic convergence" >
    <i type="int" name="NELM">   300</i>
    <i type="int" name="NELMDL">    -5</i>
    <i type="int" name="NELMIN">     3</i>
    <i name="ENINI">    600.00000000</i>
    <separator name="electronic convergence detail" >
     <i type="logical" name="LDIAG"> T  </i>
     <i type="logical" name="LSUBROT"> F  </i>
     <i name="WEIMIN">      0.00000000</i>
     <i name="EBREAK">      0.00000000</i>
     <i name="DEPER">      0.30000000</i>
     <i type="int" name="NRMM">     4</i>
     <i name="TIME">      0.40000000</i>
    </separator>
   </separator>
   <separator name="electronic mixer" >
    <i name="AMIX">      0.40000000</i>
    <i name="BMIX">      1.00000000</i>
    <i name="AMIN">      0.10000000</i>
    <i name="AMIX_MAG">      1.60000000</i>
    <i name="BMIX_MAG">      1.00000000</i>
    <separator name="electronic mixer details" >
     <i type="int" name="IMIX">     4</i>
     <i type="logical" name="MIXFIRST"> F  </i>
     <i type="int" name="MAXMIX">   -45</i>
     <i name="WC">    100.00000000</i>
     <i type="int" name="INIMIX">     1</i>
     <i type="int" name="MIXPRE">     1</i>
     <i type="int" name="MREMOVE">     5</i>
    </separator>
   </separator>
   <separator name="electronic dipolcorrection" >
    <i type="logical" name="LDIPOL"> F  </i>
    <i type="logical" name="LMONO"> F  </i>
    <i type="int" name="IDIPOL">     0</i>
    <i name="EPSILON">      1.00000000</i>
    <v name="DIPOL">   -100.00000000   -100.00000000   -100.00000000</v>
    <i name="EFIELD">      0.00000000</i>
   </separator>
  </separator>
  <separator name="grids" >
   <i type="int" name="NGX">   120</i>
   <i type="int" name="NGY">   120</i>
   <i type="int" name="NGZ">   120</i>
   <i type="int" name="NGXF">   240</i>
   <i type="int" name="NGYF">   240</i>
   <i type="int" name="NGZF">   240</i>
   <i type="logical" name="ADDGRID"> F  </i>
  </separator>
  <separator name="ionic" >
   <i type="int" name="NSW">     0</i>
   <i type="int" name="IBRION">    -1</i>
   <i type="int" name="MDALGO">     0</i>
   <i type="int" name="ISIF">     2</i>
   <i name="PSTRESS">      0.00000000</i>
   <i name="EDIFFG">     -0.00100000</i>
   <i type="int" name="NFREE">     0</i>
   <i name="POTIM">      0.50000000</i>
   <i name="SMASS">     -3.00000000</i>
   <i name="SCALEE">      1.00000000</i>
  </separator>
  <separator name="ionic md" >
   <i name="TEBEG">      0.00010000</i>
   <i name="TEEND">      0.00010000</i>
   <i type="int" name="NBLOCK">     1</i>
   <i type="int" name="KBLOCK">     1</i>
   <i type="int" name="NPACO">   256</i>
   <i name="APACO">     16.00000000</i>
  </separator>
  <separator name="symmetry" >
   <i type="int" name="ISYM">     0</i>
   <i name="SYMPREC">      0.00001000</i>
  </separator>
  <separator name="dos" >
   <i type="int" name="LORBIT">     0</i>
   <v name="RWIGS">     -1.00000000     -1.00000000     -1.00000000</v>
   <i type="int" name="NEDOS">   301</i>
   <i name="EMIN">     10.00000000</i>
   <i name="EMAX">    -10.00000000</i>
   <i name="EFERMI">      0.00000000</i>
  </separator>
  <separator name="writing" >
   <i type="int" name="NWRITE">     2</i>
   <i type="logical" name="LWAVE"> F  </i>
   <i type="logical" name="LDOWNSAMPLE"> F  </i>
   <i type="logical" name="LCHARG"> F  </i>
   <i type="logical" name="LPARD"> F  </i>
   <i type="logical" name="LVTOT"> F  </i>
   <i type="logical" name="LVHAR"> F  </i>
   <i type="logical" name="LELF"> F  </i>
   <i type="logical" name="LOPTICS"> F  </i>
   <v name="STM">      0.00000000      0.00000000      0.00000000      0.00000000      0.00000000      0.00000000      0.00000000</v>
  </separator>
  <separator name="performance" >
   <i type="int" name="NPAR">     4</i>
   <i type="int" name="NSIM">     4</i>
   <i type="int" name="NBLK">    -1</i>
   <i type="logical" name="LPLANE"> T  </i>
   <i type="logical" name="LSCALAPACK"> T  </i>
   <i type="logical" name="LSCAAWARE"> F  </i>
   <i type="logical" name="LSCALU"> F  </i>
   <i type="logical" name="LASYNC"> F  </i>
   <i type="logical" name="LORBITALREAL"> F  </i>
  </separator>
  <separator name="miscellaneous" >
   <i type="int" name="IDIOT">     3</i>
   <i type="int" name="ISPECIAL">     0</i>
   <i type="logical" name="LMUSIC"> F  </i>
   <v name="POMASS">     63.54600000     12.01100000     16.00000000</v>
   <v name="DARWINR">      0.00000000      0.00000000      0.00000000</v>
   <v name="DARWINV">      1.00000000      1.00000000      1.00000000</v>
   <i type="logical" name="LCORR"> T  </i>
  </separator>
  <i type="logical" name="GGA_COMPAT"> T  </i>
  <i type="logical" name="LBERRY"> F  </i>
  <i type="int" name="ICORELEVEL">     0</i>
  <i type="logical" name="LDAU"> F  </i>
  <i type="int" name="I_CONSTRAINED_M">     0</i>
  <separator name="electronic exchange-correlation" >
   <i type="string" name="GGA">PE</i>
   <i type="int" name="VOSKOWN">     0</i>
   <i type="logical" name="LHFCALC"> F  </i>
   <i type="string" name="PRECFOCK"></i>
   <i type="logical" name="LSYMGRAD"> F  </i>
   <i type="logical" name="LHFONE"> F  </i>
   <i type="logical" name="LRHFCALC"> F  </i>
   <i type="logical" name="LTHOMAS"> F  </i>
   <i type="logical" name="LMODELHF"> F  </i>
   <i name="ENCUT4O">     -1.00000000</i>
   <i type="int" name="EXXOEP">     0</i>
   <i type="int" name="FOURORBIT">     0</i>
   <i name="AEXX">      0.00000000</i>
   <i name="HFALPHA">      0.00000000</i>
   <i name="MCALPHA">      0.00000000</i>
   <i name="ALDAX">      1.00000000</i>
   <i name="AGGAX">      1.00000000</i>
   <i name="ALDAC">      1.00000000</i>
   <i name="AGGAC">      1.00000000</i>
   <i type="int" name="NKREDX">     1</i>
   <i type="int" name="NKREDY">     1</i>
   <i type="int" name="NKREDZ">     1</i>
   <i type="logical" name="SHIFTRED"> F  </i>
   <i type="logical" name="ODDONLY"> F  </i>
   <i type="logical" name="EVENONLY"> F  </i>
   <i type="int" name="LMAXFOCK">     0</i>
   <i type="int" name="NMAXFOCKAE">     0</i>
   <i type="logical" name="LFOCKAEDFT"> F  </i>
   <i name="HFSCREEN">      0.00000000</i>
   <i name="HFSCREENC">      0.00000000</i>
   <i type="int" name="NBANDSGWLOW">     0</i>
  </separator>
  <separator name="vdW DFT" >
   <i type="logical" name="LUSE_VDW"> F  </i>
   <i name="Zab_VDW">     -0.84910000</i>
   <i name="PARAM1">      0.12340000</i>
   <i name="PARAM2">      1.00000000</i>
   <i name="PARAM3">      0.00000000</i>
  </separator>
  <separator name="model GW" >
   <i type="int" name="MODEL_GW">     0</i>
   <i name="MODEL_EPS0">    135.00000000</i>
   <i name="MODEL_ALPHA">      1.00000000</i>
  </separator>
  <separator name="linear response parameters" >
   <i type="logical" name="LEPSILON"> F  </i>
   <i type="logical" name="LRPA"> F  </i>
   <i type="logical" name="LNABLA"> F  </i>
   <i type="logical" name="LVEL"> F  </i>
   <i type="int" name="KINTER">     0</i>
   <i name="CSHIFT">      0.10000000</i>
   <i name="OMEGAMAX">     -1.00000000</i>
   <i name="DEG_THRESHOLD">      0.00200000</i>
   <i name="RTIME">     -0.10000000</i>
   <i name="WPLASMAI">      0.00000000</i>
   <v name="DFIELD">      0.00000000      0.00000000      0.00000000</v>
   <v name="WPLASMA">      0.00000000      0.00000000      0.00000000      0.00000000      0.00000000      0.00000000      0.00000000      0.00000000      0.00000000</v>
  </separator>
  <separator name="orbital magnetization" >
   <i type="logical" name="NUCIND"> F  </i>
   <v name="MAGPOS">      0.00000000      0.00000000      0.00000000</v>
   <i type="logical" name="LNICSALL"> T  </i>
   <i type="logical" name="ORBITALMAG"> F  </i>
   <i type="logical" name="LMAGBLOCH"> F  </i>
   <i type="logical" name="LCHIMAG"> F  </i>
   <i type="logical" name="LGAUGE"> T  </i>
   <i type="int" name="MAGATOM">     0</i>
   <v name="MAGDIPOL">      0.00000000      0.00000000      0.00000000</v>
   <v name="AVECCONST">      0.00000000      0.00000000      0.00000000</v>
  </separator>
  <separator name="response functions" >
   <i type="logical" name="LADDER"> F  </i>
   <i type="logical" name="LRPAFORCE"> F  </i>
   <i type="logical" name="LFXC"> F  </i>
   <i type="logical" name="LHARTREE"> T  </i>
   <i type="int" name="IBSE">     0</i>
   <v type="int" name="KPOINT">    -1     0     0     0</v>
   <i type="logical" name="LTCTE"> F  </i>
   <i type="logical" name="LTETE"> F  </i>
   <i type="logical" name="LTRIPLET"> F  </i>
   <i type="logical" name="LFXCEPS"> F  </i>
   <i type="logical" name="LFXHEG"> F  </i>
   <i type="int" name="NATURALO">     2</i>
   <i type="logical" name="L2ORDER"> F  </i>
   <i type="logical" name="LMP2LT"> F  </i>
   <i type="logical" name="LUSEW"> F  </i>
   <i name="ENCUTGW">     -2.00000000</i>
   <i name="ENCUTGWSOFT">     -2.00000000</i>
   <i name="ENCUTLF">     -1.00000000</i>
   <i type="int" name="LMAXMP2">    -1</i>
   <i name="SCISSOR">      0.00000000</i>
   <i type="int" name="NOMEGA">     0</i>
   <i type="int" name="NOMEGAR">     0</i>
   <i type="int" name="NBANDSGW">    -1</i>
   <i type="int" name="NBANDSO">    -1</i>
   <i type="int" name="NBANDSV">    -1</i>
   <i type="int" name="NELM">   300</i>
   <i type="int" name="NELMHF">     1</i>
   <i type="int" name="DIM">     3</i>
   <i type="int" name="ANTIRES">     0</i>
   <i name="OMEGAMAX">    -30.00000000</i>
   <i name="OMEGAMIN">    -30.00000000</i>
   <i name="OMEGATL">   -200.00000000</i>
   <i type="int" name="OMEGAGRID">   140</i>
   <i name="CSHIFT">     -0.10000000</i>
   <i type="logical" name="SELFENERGY"> F  </i>
   <i type="logical" name="LSPECTRAL"> F  </i>
   <i type="logical" name="LSPECTRALGW"> F  </i>
   <i type="logical" name="LSINGLES"> F  </i>
   <i type="logical" name="LFERMIGW"> F  </i>
   <i type="logical" name="ODDONLYGW"> F  </i>
   <i type="logical" name="EVENONLYGW"> F  </i>
   <i type="int" name="NKREDLFX">     1</i>
   <i type="int" name="NKREDLFY">     1</i>
   <i type="int" name="NKREDLFZ">     1</i>
   <i type="int" name="MAXMEM">  2800</i>
   <i type="int" name="TELESCOPE">     0</i>
   <i type="int" name="TAUPAR">     1</i>
   <i type="int" name="OMEGAPAR">    -1</i>
   <i name="LAMBDA">      1.00000000</i>
  </separator>
  <separator name="External order field" >
   <i name="OFIELD_KAPPA">      0.00000000</i>
   <v name="OFIELD_K">      0.00000000      0.00000000      0.00000000</v>
   <i name="OFIELD_Q6_NEAR">      0.00000000</i>
   <i name="OFIELD_Q6_FAR">      0.00000000</i>
   <i name="OFIELD_A">      0.00000000</i>
  </separator>
 </parameters>
 <atominfo>
  <atoms>      15 </atoms>
  <types>       3 </types>
  <array name="atoms" >
   <dimension dim="1">ion</dimension>
   <field type="string">element</field>
   <field type="int">atomtype</field>
   <set>
    <rc><c>Cu</c><c>   1</c></rc>
    <rc><c>Cu</c><c>   1</c></rc>
    <rc><c>Cu</c><c>   1</c></rc>
    <rc><c>Cu</c><c>   1</c></rc>
    <rc><c>Cu</c><c>   1</c></rc>
    <rc><c>Cu</c><c>   1</c></rc>
    <rc><c>Cu</c><c>   1</c></rc>
    <rc><c>Cu</c><c>   1</c></rc>
    <rc><c>Cu</c><c>   1</c></rc>
    <rc><c>Cu</c><c>   1</c></rc>
    <rc><c>Cu</c><c>   1</c></rc>
    <rc><c>Cu</c><c>   1</c></rc>
    <rc><c>Cu</c><c>   1</c></rc>
    <rc><c>C </c><c>   2</c></rc>
    <rc><c>O </c><c>   3</c></rc>
   </set>
  </array>
  <array name="atomtypes" >
   <dimension dim="1">type</dimension>
   <field type="int">atomspertype</field>
   <field type="string">element</field>
   <field>mass</field>
   <field>valence</field>
   <field type="string">pseudopotential</field>
   <set>
    <rc><c>  13</c><c>Cu</c><c>     63.54600000</c><c>     11.00000000</c><c>  PAW_PBE Cu 22Jun2005                  </c></rc>
    <rc><c>   1</c><c>C </c><c>     12.01100000</c><c>      4.00000000</c><c>  PAW_PBE C 08Apr2002                   </c></rc>
    <rc><c>   1</c><c>O </c><c>     16.00000000</c><c>      6.00000000</c><c>  PAW_PBE O 08Apr2002                   </c></rc>
   </set>
  </array>
 </atominfo>
 <structure name="initialpos" >
  <crystal>
   <varray name="basis" >
    <v>      15.00000000       0.00000000       0.00000000 </v>
    <v>       0.00000000      15.00000000       0.00000000 </v>
    <v>       0.00000000       0.00000000      15.00000000 </v>
   </varray>
   <i name="volume">   3375.00000000 </i>
   <varray name="rec_basis" >
    <v>       0.06666667       0.00000000       0.00000000 </v>
    <v>       0.00000000       0.06666667       0.00000000 </v>
    <v>       0.00000000       0.00000000       0.06666667 </v>
   </varray>
  </crystal>
  <varray name="positions" >
   <v>       0.29211933       0.41789200       0.55755400 </v>
   <v>       0.37607600       0.55102333       0.49457600 </v>
   <v>       0.38901333       0.29556800       0.55714067 </v>
   <v>       0.53490667       0.50707067       0.47679933 </v>
   <v>       0.55057333       0.34074333       0.52683333 </v>
   <v>       0.44938200       0.43517267       0.61872333 </v>
   <v>       0.41938000       0.40147133       0.44136000 </v>
   <v>       0.22826400       0.56258600       0.55478000 </v>
   <v>       0.33480667       0.54502200       0.65977400 </v>
   <v>       0.35106667       0.68738667       0.57118867 </v>
   <v>       0.47999933       0.66293267       0.47966867 </v>
   <v>       0.62598667       0.48580467       0.60070133 </v>
   <v>       0.48400467       0.59139533       0.61315333 </v>
   <v>       0.74530000       0.49214067       0.63889933 </v>
   <v>       0.81824667       0.50512600       0.66590067 </v>
  </varray>
 </structure>
 <calculation>
  <scstep>
   <time name="dav">    7.44    7.47</time>
   <time name="total">    8.60    8.63</time>
   <energy>
    <i name="alphaZ">     41.16232785 </i>
    <i name="ewald">  16250.40812081 </i>
    <i name="hartreedc"> -33276.55039577 </i>
    <i name="XCdc">    623.21776508 </i>
    <i name="pawpsdc">  16421.75059358 </i>
    <i name="pawaedc"> -17800.06104309 </i>
    <i name="eentropy">      0.01545896 </i>
    <i name="bandstr">    193.52774046 </i>
    <i name="atom">  18662.21924712 </i>
    <i name="e_fr_energy">   1115.68981500 </i>
    <i name="e_wo_entrp">   1115.67435604 </i>
    <i name="e_0_energy">   1115.68466201 </i>
   </energy>
  </scstep>
  <scstep>
   <time name="dav">    7.31    7.34</time>
   <time name="total">    7.31    7.34</time>
   <energy>
    <i name="e_fr_energy">     87.27479415 </i>
    <i name="e_wo_entrp">     87.26898385 </i>
    <i name="e_0_energy">     87.27285739 </i>
   </energy>
  </scstep>
  <scstep>
   <time name="dav">   11.64   11.69</time>
   <time name="total">   11.64   11.69</time>
   <energy>
    <i name="e_fr_energy">    -33.42896251 </i>
    <i name="e_wo_entrp">    -33.43935594 </i>
    <i name="e_0_energy">    -33.43242699 </i>
   </energy>
  </scstep>
  <scstep>
   <time name="dav">   10.31   10.35</time>
   <time name="total">   10.31   10.35</time>
   <energy>
    <i name="e_fr_energy">    -55.29199671 </i>
    <i name="e_wo_entrp">    -55.30144283 </i>
    <i name="e_0_energy">    -55.29514542 </i>
   </energy>
  </scstep>
  <scstep>
   <time name="dav">   12.20   12.25</time>
   <time name="total">   12.96   13.00</time>
   <energy>
    <i name="e_fr_energy">    -56.87047251 </i>
    <i name="e_wo_entrp">    -56.88328702 </i>
    <i name="e_0_energy">    -56.87474401 </i>
   </energy>
  </scstep>
  <scstep>
   <time name="diag">    1.13    1.14</time>
   <time name="diis">    6.93    6.95</time>
   <time name="orth">    0.05    0.06</time>
   <time name="total">    9.94    9.98</time>
   <energy>
    <i name="e_fr_energy">    -56.50862389 </i>
    <i name="e_wo_entrp">    -56.51784056 </i>
    <i name="e_0_energy">    -56.51169611 </i>
   </energy>
  </scstep>
  <scstep>
   <time name="diag">    1.13    1.14</time>
   <time name="diis">    7.16    7.18</time>
   <time name="orth">    0.05    0.05</time>
   <time name="total">   10.22   10.25</time>
   <energy>
    <i name="e_fr_energy">    -49.04338044 </i>
    <i name="e_wo_entrp">    -49.05271569 </i>
    <i name="e_0_energy">    -49.04649219 </i>
   </energy>
  </scstep>
  <scstep>
   <time name="diag">    1.13    1.14</time>
   <time name="diis">    6.93    6.96</time>
   <time name="orth">    0.05    0.05</time>
   <time name="total">    9.98   10.01</time>
   <energy>
    <i name="e_fr_energy">    -48.77081966 </i>
    <i name="e_wo_entrp">    -48.78016327 </i>
    <i name="e_0_energy">    -48.77393420 </i>
   </energy>
  </scstep>
  <scstep>
   <time name="diag">    1.13    1.14</time>
   <time name="diis">    6.97    6.99</time>
   <time name="orth">    0.05    0.05</time>
   <time name="total">   10.02   10.06</time>
   <energy>
    <i name="e_fr_energy">    -48.71403712 </i>
    <i name="e_wo_entrp">    -48.72333655 </i>
    <i name="e_0_energy">    -48.71713693 </i>
   </energy>
  </scstep>
  <scstep>
   <time name="diag">    1.13    1.13</time>
   <time name="diis">    7.01    7.03</time>
   <time name="orth">    0.05    0.05</time>
   <time name="total">   10.05   10.09</time>
   <energy>
    <i name="e_fr_energy">    -48.64362076 </i>
    <i name="e_wo_entrp">    -48.65292308 </i>
    <i name="e_0_energy">    -48.64672154 </i>
   </energy>
  </scstep>
  <scstep>
   <time name="diag">    1.13    1.13</time>
   <time name="diis">    6.94    6.97</time>
   <time name="orth">    0.05    0.05</time>
   <time name="total">    9.98   10.01</time>
   <energy>
    <i name="e_fr_energy">    -48.63034366 </i>
    <i name="e_wo_entrp">    -48.63969045 </i>
    <i name="e_0_energy">    -48.63345926 </i>
   </energy>
  </scstep>
  <scstep>
   <time name="diag">    1.13    1.13</time>
   <time name="diis">    6.93    6.95</time>
   <time name="orth">    0.05    0.05</time>
   <time name="total">    9.97   10.00</time>
   <energy>
    <i name="e_fr_energy">    -48.62825558 </i>
    <i name="e_wo_entrp">    -48.63758243 </i>
    <i name="e_0_energy">    -48.63136453 </i>
   </energy>
  </scstep>
  <scstep>
   <time name="diag">    1.13    1.13</time>
   <time name="diis">    6.67    6.70</time>
   <time name="orth">    0.05    0.05</time>
   <time name="total">    9.72    9.75</time>
   <energy>
    <i name="e_fr_energy">    -48.62697568 </i>
    <i name="e_wo_entrp">    -48.63630478 </i>
    <i name="e_0_energy">    -48.63008538 </i>
   </energy>
  </scstep>
  <scstep>
   <time name="diag">    1.13    1.13</time>
   <time name="diis">    6.90    6.92</time>
   <time name="orth">    0.05    0.05</time>
   <time name="total">    9.94    9.98</time>
   <energy>
    <i name="e_fr_energy">    -48.62821542 </i>
    <i name="e_wo_entrp">    -48.63754215 </i>
    <i name="e_0_energy">    -48.63132433 </i>
   </energy>
  </scstep>
  <scstep>
   <time name="diag">    1.13    1.13</time>
   <time name="diis">    6.75    6.77</time>
   <time name="orth">    0.05    0.05</time>
   <time name="total">    9.80    9.83</time>
   <energy>
    <i name="e_fr_energy">    -48.62946517 </i>
    <i name="e_wo_entrp">    -48.63879128 </i>
    <i name="e_0_energy">    -48.63257387 </i>
   </energy>
  </scstep>
  <scstep>
   <time name="diag">    1.13    1.13</time>
   <time name="diis">    6.84    6.88</time>
   <time name="orth">    0.05    0.05</time>
   <time name="total">    9.90    9.94</time>
   <energy>
    <i name="e_fr_energy">    -48.63100763 </i>
    <i name="e_wo_entrp">    -48.64034088 </i>
    <i name="e_0_energy">    -48.63411871 </i>
   </energy>
  </scstep>
  <scstep>
   <time name="diag">    1.13    1.13</time>
   <time name="diis">    6.49    6.52</time>
   <time name="orth">    0.05    0.05</time>
   <time name="total">    9.55    9.58</time>
   <energy>
    <i name="e_fr_energy">    -48.63256923 </i>
    <i name="e_wo_entrp">    -48.64190290 </i>
    <i name="e_0_energy">    -48.63568045 </i>
   </energy>
  </scstep>
  <scstep>
   <time name="diag">    1.13    1.13</time>
   <time name="diis">    6.94    6.96</time>
   <time name="orth">    0.05    0.05</time>
   <time name="total">    9.99   10.03</time>
   <energy>
    <i name="e_fr_energy">    -48.63348623 </i>
    <i name="e_wo_entrp">    -48.64281901 </i>
    <i name="e_0_energy">    -48.63659716 </i>
   </energy>
  </scstep>
  <scstep>
   <time name="diag">    1.13    1.13</time>
   <time name="diis">    7.21    7.23</time>
   <time name="orth">    0.05    0.05</time>
   <time name="total">   10.27   10.30</time>
   <energy>
    <i name="e_fr_energy">    -48.63423121 </i>
    <i name="e_wo_entrp">    -48.64356358 </i>
    <i name="e_0_energy">    -48.63734200 </i>
   </energy>
  </scstep>
  <scstep>
   <time name="diag">    1.13    1.13</time>
   <time name="diis">    6.72    6.75</time>
   <time name="orth">    0.05    0.05</time>
   <time name="total">    9.78    9.82</time>
   <energy>
    <i name="e_fr_energy">    -48.63476668 </i>
    <i name="e_wo_entrp">    -48.64409860 </i>
    <i name="e_0_energy">    -48.63787732 </i>
   </energy>
  </scstep>
  <scstep>
   <time name="diag">    1.13    1.13</time>
   <time name="diis">    6.71    6.73</time>
   <time name="orth">    0.05    0.05</time>
   <time name="total">    9.77    9.80</time>
   <energy>
    <i name="e_fr_energy">    -48.63510712 </i>
    <i name="e_wo_entrp">    -48.64443884 </i>
    <i name="e_0_energy">    -48.63821770 </i>
   </energy>
  </scstep>
  <scstep>
   <time name="diag">    1.13    1.13</time>
   <time name="diis">    6.32    6.37</time>
   <time name="orth">    0.05    0.05</time>
   <time name="total">    9.38    9.44</time>
   <energy>
    <i name="e_fr_energy">    -48.63539367 </i>
    <i name="e_wo_entrp">    -48.64472596 </i>
    <i name="e_0_energy">    -48.63850443 </i>
   </energy>
  </scstep>
  <scstep>
   <time name="diag">    1.13    1.13</time>
   <time name="diis">    6.50    6.52</time>
   <time name="orth">    0.05    0.05</time>
   <time name="total">    9.56    9.59</time>
   <energy>
    <i name="e_fr_energy">    -48.63551743 </i>
    <i name="e_wo_entrp">    -48.64484963 </i>
    <i name="e_0_energy">    -48.63862816 </i>
   </energy>
  </scstep>
  <scstep>
   <time name="diag">    1.13    1.13</time>
   <time name="diis">    6.58    6.60</time>
   <time name="orth">    0.05    0.05</time>
   <time name="total">    9.64    9.68</time>
   <energy>
    <i name="e_fr_energy">    -48.63561979 </i>
    <i name="e_wo_entrp">    -48.64495200 </i>
    <i name="e_0_energy">    -48.63873053 </i>
   </energy>
  </scstep>
  <scstep>
   <time name="diag">    1.13    1.13</time>
   <time name="diis">    6.64    6.66</time>
   <time name="orth">    0.05    0.05</time>
   <time name="total">    9.71    9.74</time>
   <energy>
    <i name="e_fr_energy">    -48.63568696 </i>
    <i name="e_wo_entrp">    -48.64501907 </i>
    <i name="e_0_energy">    -48.63879766 </i>
   </energy>
  </scstep>
  <scstep>
   <time name="diag">    1.13    1.13</time>
   <time name="diis">    6.44    6.46</time>
   <time name="orth">    0.05    0.05</time>
   <time name="total">    9.50    9.54</time>
   <energy>
    <i name="e_fr_energy">    -48.63572695 </i>
    <i name="e_wo_entrp">    -48.64505908 </i>
    <i name="e_0_energy">    -48.63883766 </i>
   </energy>
  </scstep>
  <scstep>
   <time name="diag">    1.13    1.13</time>
   <time name="diis">    5.14    5.16</time>
   <time name="orth">    0.05    0.05</time>
   <time name="total">    8.21    8.23</time>
   <energy>
    <i name="e_fr_energy">    -48.63574000 </i>
    <i name="e_wo_entrp">    -48.64507210 </i>
    <i name="e_0_energy">    -48.63885070 </i>
   </energy>
  </scstep>
  <scstep>
   <time name="diag">    1.13    1.13</time>
   <time name="diis">    4.51    4.53</time>
   <time name="orth">    0.05    0.05</time>
   <time name="total">    7.59    7.61</time>
   <energy>
    <i name="e_fr_energy">    -48.63574797 </i>
    <i name="e_wo_entrp">    -48.64508012 </i>
    <i name="e_0_energy">    -48.63885869 </i>
   </energy>
  </scstep>
  <scstep>
   <time name="diag">    1.13    1.13</time>
   <time name="diis">    4.32    4.34</time>
   <time name="orth">    0.05    0.05</time>
   <time name="total">    7.39    7.43</time>
   <energy>
    <i name="e_fr_energy">    -48.63575232 </i>
    <i name="e_wo_entrp">    -48.64508446 </i>
    <i name="e_0_energy">    -48.63886303 </i>
   </energy>
  </scstep>
  <scstep>
   <time name="diag">    1.13    1.13</time>
   <time name="diis">    4.53    4.54</time>
   <time name="orth">    0.05    0.05</time>
   <time name="total">    7.61    7.64</time>
   <energy>
    <i name="e_fr_energy">    -48.63575405 </i>
    <i name="e_wo_entrp">    -48.64508620 </i>
    <i name="e_0_energy">    -48.63886477 </i>
   </energy>
  </scstep>
  <scstep>
   <time name="diag">    1.13    1.13</time>
   <time name="diis">    4.49    4.51</time>
   <time name="orth">    0.05    0.05</time>
   <time name="total">    7.58    7.61</time>
   <energy>
    <i name="e_fr_energy">    -48.63575477 </i>
    <i name="e_wo_entrp">    -48.64508692 </i>
    <i name="e_0_energy">    -48.63886549 </i>
   </energy>
  </scstep>
  <scstep>
   <time name="diag">    1.12    1.13</time>
   <time name="diis">    4.26    4.27</time>
   <time name="orth">    0.05    0.05</time>
   <time name="total">    7.36    7.38</time>
   <energy>
    <i name="e_fr_energy">    -48.63575552 </i>
    <i name="e_wo_entrp">    -48.64508767 </i>
    <i name="e_0_energy">    -48.63886623 </i>
   </energy>
  </scstep>
  <scstep>
   <time name="diag">    1.13    1.13</time>
   <time name="diis">    4.22    4.24</time>
   <time name="orth">    0.05    0.05</time>
   <time name="total">    7.33    7.36</time>
   <energy>
    <i name="e_fr_energy">    -48.63575604 </i>
    <i name="e_wo_entrp">    -48.64508819 </i>
    <i name="e_0_energy">    -48.63886675 </i>
   </energy>
  </scstep>
  <scstep>
   <time name="diag">    1.13    1.13</time>
   <time name="diis">    4.02    4.04</time>
   <time name="orth">    0.05    0.05</time>
   <time name="total">    7.14    7.17</time>
   <energy>
    <i name="e_fr_energy">    -48.63575640 </i>
    <i name="e_wo_entrp">    -48.64508855 </i>
    <i name="e_0_energy">    -48.63886712 </i>
   </energy>
  </scstep>
  <scstep>
   <time name="diag">    1.13    1.13</time>
   <time name="diis">    3.93    3.95</time>
   <time name="orth">    0.05    0.05</time>
   <time name="total">    7.06    7.08</time>
   <energy>
    <i name="e_fr_energy">    -48.63575665 </i>
    <i name="e_wo_entrp">    -48.64508880 </i>
    <i name="e_0_energy">    -48.63886736 </i>
   </energy>
  </scstep>
  <scstep>
   <time name="diag">    1.13    1.13</time>
   <time name="diis">    3.52    3.53</time>
   <time name="orth">    0.05    0.05</time>
   <time name="total">    6.65    6.67</time>
   <energy>
    <i name="e_fr_energy">    -48.63575682 </i>
    <i name="e_wo_entrp">    -48.64508897 </i>
    <i name="e_0_energy">    -48.63886754 </i>
   </energy>
  </scstep>
  <scstep>
   <time name="diag">    1.13    1.13</time>
   <time name="diis">    3.31    3.32</time>
   <time name="orth">    0.05    0.05</time>
   <time name="total">    6.43    6.46</time>
   <energy>
    <i name="e_fr_energy">    -48.63575692 </i>
    <i name="e_wo_entrp">    -48.64508907 </i>
    <i name="e_0_energy">    -48.63886764 </i>
   </energy>
  </scstep>
  <scstep>
   <time name="diag">    1.13    1.13</time>
   <time name="diis">    3.24    3.24</time>
   <time name="orth">    0.05    0.05</time>
   <time name="total">    5.57    5.59</time>
   <energy>
    <i name="alphaZ">     41.16232785 </i>
    <i name="ewald">  16250.40812081 </i>
    <i name="hartreedc"> -33231.94722310 </i>
    <i name="XCdc">    615.18970292 </i>
    <i name="pawpsdc">  17593.33574005 </i>
    <i name="pawaedc"> -18991.83974772 </i>
    <i name="eentropy">      0.00933215 </i>
    <i name="bandstr">   -987.17325703 </i>
    <i name="atom">  18662.21924712 </i>
    <i name="e_fr_energy">    -48.63575695 </i>
    <i name="e_wo_entrp">    -48.64508910 </i>
    <i name="e_0_energy">    -48.63886767 </i>
   </energy>
  </scstep>
  <structure>
   <crystal>
    <varray name="basis" >
     <v>      15.00000000       0.00000000       0.00000000 </v>
     <v>       0.00000000      15.00000000       0.00000000 </v>
     <v>       0.00000000       0.00000000      15.00000000 </v>
    </varray>
    <i name="volume">   3375.00000000 </i>
    <varray name="rec_basis" >
     <v>       0.06666667       0.00000000       0.00000000 </v>
     <v>       0.00000000       0.06666667       0.00000000 </v>
     <v>       0.00000000       0.00000000       0.06666667 </v>
    </varray>
   </crystal>
   <varray name="positions" >
    <v>       0.29211933       0.41789200       0.55755400 </v>
    <v>       0.37607600       0.55102333       0.49457600 </v>
    <v>       0.38901333       0.29556800       0.55714067 </v>
    <v>       0.53490667       0.50707067       0.47679933 </v>
    <v>       0.55057333       0.34074333       0.52683333 </v>
    <v>       0.44938200       0.43517267       0.61872333 </v>
    <v>       0.41938000       0.40147133       0.44136000 </v>
    <v>       0.22826400       0.56258600       0.55478000 </v>
    <v>       0.33480667       0.54502200       0.65977400 </v>
    <v>       0.35106667       0.68738667       0.57118867 </v>
    <v>       0.47999933       0.66293267       0.47966867 </v>
    <v>       0.62598667       0.48580467       0.60070133 </v>
    <v>       0.48400467       0.59139533       0.61315333 </v>
    <v>       0.74530000       0.49214067       0.63889933 </v>
    <v>       0.81824667       0.50512600       0.66590067 </v>
   </varray>
  </structure>
  <varray name="forces" >
   <v>       0.19317971       0.18218702      -0.06201457 </v>
   <v>      -0.42271024      -0.76483412      -0.08387699 </v>
   <v>       0.41309600      -0.27728373       0.09612412 </v>
   <v>      -0.26877155      -0.14385292       0.06783201 </v>
   <v>      -0.33777946       0.64678128       0.04276002 </v>
   <v>       0.33091047      -0.23583150      -0.67934583 </v>
   <v>      -0.03959584       0.05293074       0.57356980 </v>
   <v>      -0.65356676       0.49227221      -0.39295354 </v>
   <v>       0.57134367      -0.04394930       0.11632184 </v>
   <v>      -0.24115393      -0.12674405       0.26304818 </v>
   <v>       0.57013009       0.70909901      -0.62470904 </v>
   <v>       0.31239408      -0.25530372       0.16919796 </v>
   <v>       0.33028865      -0.26753928       0.50527507 </v>
   <v>       1.70530351       0.51859015       1.13035000 </v>
   <v>      -2.46306838      -0.48652178      -1.12157902 </v>
  </varray>
  <varray name="stress" >
   <v>      -2.16594629      -0.39078876      -0.00442832 </v>
   <v>      -0.39078876      -0.05083382      -0.57009821 </v>
   <v>      -0.00442832      -0.57009822      -0.32599102 </v>
  </varray>
  <energy>
   <i name="e_fr_energy">    -48.63575695 </i>
   <i name="e_wo_entrp">    -48.63886767 </i>
   <i name="e_0_energy">      0.00933215 </i>
  </energy>
  <time name="totalsc">  354.08  355.39</time>
  <eigenvalues>
   <array>
    <dimension dim="1">band</dimension>
    <dimension dim="2">kpoint</dimension>
    <dimension dim="3">spin</dimension>
    <field>eigene</field>
    <field>occ</field>
    <set>
     <set comment="spin 1">
      <set comment="kpoint 1">
       <r>  -28.1476    1.0000 </r>
       <r>  -13.8943    1.0000 </r>
       <r>  -11.0775    1.0000 </r>
       <r>  -10.9723    1.0000 </r>
       <r>  -10.9139    1.0000 </r>
       <r>  -10.1134    1.0000 </r>
       <r>   -8.5386    1.0000 </r>
       <r>   -8.2510    1.0000 </r>
       <r>   -7.6831    1.0000 </r>
       <r>   -7.5475    1.0000 </r>
       <r>   -7.4324    1.0000 </r>
       <r>   -7.2623    1.0000 </r>
       <r>   -7.2185    1.0000 </r>
       <r>   -7.0611    1.0000 </r>
       <r>   -7.0362    1.0000 </r>
       <r>   -6.8774    1.0000 </r>
       <r>   -6.8358    1.0000 </r>
       <r>   -6.7657    1.0000 </r>
       <r>   -6.6840    1.0000 </r>
       <r>   -6.6451    1.0000 </r>
       <r>   -6.5610    1.0000 </r>
       <r>   -6.5277    1.0000 </r>
       <r>   -6.4905    1.0000 </r>
       <r>   -6.4718    1.0000 </r>
       <r>   -6.4395    1.0000 </r>
       <r>   -6.3738    1.0000 </r>
       <r>   -6.3559    1.0000 </r>
       <r>   -6.3300    1.0000 </r>
       <r>   -6.2804    1.0000 </r>
       <r>   -6.2399    1.0000 </r>
       <r>   -6.1577    1.0000 </r>
       <r>   -6.1424    1.0000 </r>
       <r>   -6.0882    1.0000 </r>
       <r>   -6.0220    1.0000 </r>
       <r>   -5.9573    1.0000 </r>
       <r>   -5.9009    1.0000 </r>
       <r>   -5.8214    1.0000 </r>
       <r>   -5.7075    1.0000 </r>
       <r>   -5.6572    1.0000 </r>
       <r>   -5.6146    1.0000 </r>
       <r>   -5.6018    1.0000 </r>
       <r>   -5.5787    1.0000 </r>
       <r>   -5.5148    1.0000 </r>
       <r>   -5.4724    1.0000 </r>
       <r>   -5.4434    1.0000 </r>
       <r>   -5.4231    1.0000 </r>
       <r>   -5.3871    1.0000 </r>
       <r>   -5.3810    1.0000 </r>
       <r>   -5.3500    1.0000 </r>
       <r>   -5.3138    1.0000 </r>
       <r>   -5.3065    1.0000 </r>
       <r>   -5.2503    1.0000 </r>
       <r>   -5.2182    1.0000 </r>
       <r>   -5.2118    1.0000 </r>
       <r>   -5.1881    1.0000 </r>
       <r>   -5.1682    1.0000 </r>
       <r>   -5.1554    1.0000 </r>
       <r>   -5.1463    1.0000 </r>
       <r>   -5.1268    1.0000 </r>
       <r>   -5.0802    1.0000 </r>
       <r>   -5.0501    1.0000 </r>
       <r>   -5.0099    1.0000 </r>
       <r>   -5.0008    1.0000 </r>
       <r>   -4.9787    1.0000 </r>
       <r>   -4.9356    1.0000 </r>
       <r>   -4.9101    1.0000 </r>
       <r>   -4.8929    1.0000 </r>
       <r>   -4.8795    1.0000 </r>
       <r>   -4.8596    1.0000 </r>
       <r>   -4.8344    1.0000 </r>
       <r>   -4.8207    1.0000 </r>
       <r>   -4.7674    1.0000 </r>
       <r>   -4.7121    1.0000 </r>
       <r>   -4.5452    1.0000 </r>
       <r>   -4.1768    1.0000 </r>
       <r>   -4.1434    1.0000 </r>
       <r>   -3.5160    1.0000 </r>
       <r>   -3.0685   -0.0000 </r>
       <r>   -2.9862   -0.0000 </r>
       <r>   -2.5525   -0.0000 </r>
       <r>   -2.4325   -0.0000 </r>
       <r>   -2.0475   -0.0000 </r>
       <r>   -1.9210   -0.0000 </r>
       <r>   -1.7482   -0.0000 </r>
       <r>   -1.5104   -0.0000 </r>
       <r>   -1.0664   -0.0000 </r>
       <r>   -0.9445   -0.0000 </r>
       <r>   -0.7053   -0.0000 </r>
       <r>   -0.3712    0.0000 </r>
       <r>   -0.2883    0.0000 </r>
       <r>   -0.1366    0.0000 </r>
       <r>    0.0713    0.0000 </r>
      </set>
     </set>
     <set comment="spin 2">
      <set comment="kpoint 1">
       <r>  -28.1268    1.0000 </r>
       <r>  -13.8526    1.0000 </r>
       <r>  -11.0486    1.0000 </r>
       <r>  -10.9292    1.0000 </r>
       <r>  -10.8726    1.0000 </r>
       <r>  -10.0691    1.0000 </r>
       <r>   -8.5178    1.0000 </r>
       <r>   -8.2041    1.0000 </r>
       <r>   -7.6336    1.0000 </r>
       <r>   -7.5195    1.0000 </r>
       <r>   -7.3986    1.0000 </r>
       <r>   -7.2145    1.0000 </r>
       <r>   -7.1868    1.0000 </r>
       <r>   -7.0313    1.0000 </r>
       <r>   -7.0069    1.0000 </r>
       <r>   -6.8438    1.0000 </r>
       <r>   -6.8110    1.0000 </r>
       <r>   -6.7364    1.0000 </r>
       <r>   -6.6531    1.0000 </r>
       <r>   -6.6186    1.0000 </r>
       <r>   -6.5384    1.0000 </r>
       <r>   -6.5064    1.0000 </r>
       <r>   -6.4625    1.0000 </r>
       <r>   -6.4436    1.0000 </r>
       <r>   -6.4152    1.0000 </r>
       <r>   -6.3493    1.0000 </r>
       <r>   -6.3290    1.0000 </r>
       <r>   -6.2950    1.0000 </r>
       <r>   -6.2565    1.0000 </r>
       <r>   -6.2165    1.0000 </r>
       <r>   -6.1310    1.0000 </r>
       <r>   -6.1185    1.0000 </r>
       <r>   -6.0646    1.0000 </r>
       <r>   -5.9947    1.0000 </r>
       <r>   -5.9301    1.0000 </r>
       <r>   -5.8729    1.0000 </r>
       <r>   -5.7967    1.0000 </r>
       <r>   -5.6834    1.0000 </r>
       <r>   -5.6358    1.0000 </r>
       <r>   -5.5911    1.0000 </r>
       <r>   -5.5783    1.0000 </r>
       <r>   -5.5511    1.0000 </r>
       <r>   -5.4909    1.0000 </r>
       <r>   -5.4447    1.0000 </r>
       <r>   -5.4219    1.0000 </r>
       <r>   -5.3859    1.0000 </r>
       <r>   -5.3646    1.0000 </r>
       <r>   -5.3530    1.0000 </r>
       <r>   -5.3221    1.0000 </r>
       <r>   -5.2918    1.0000 </r>
       <r>   -5.2706    1.0000 </r>
       <r>   -5.2327    1.0000 </r>
       <r>   -5.1992    1.0000 </r>
       <r>   -5.1910    1.0000 </r>
       <r>   -5.1648    1.0000 </r>
       <r>   -5.1408    1.0000 </r>
       <r>   -5.1363    1.0000 </r>
       <r>   -5.1257    1.0000 </r>
       <r>   -5.1042    1.0000 </r>
       <r>   -5.0476    1.0000 </r>
       <r>   -5.0282    1.0000 </r>
       <r>   -4.9892    1.0000 </r>
       <r>   -4.9803    1.0000 </r>
       <r>   -4.9483    1.0000 </r>
       <r>   -4.9126    1.0000 </r>
       <r>   -4.8805    1.0000 </r>
       <r>   -4.8591    1.0000 </r>
       <r>   -4.8519    1.0000 </r>
       <r>   -4.8319    1.0000 </r>
       <r>   -4.7981    1.0000 </r>
       <r>   -4.7859    1.0000 </r>
       <r>   -4.7418    1.0000 </r>
       <r>   -4.6766    1.0000 </r>
       <r>   -4.5031    1.0000 </r>
       <r>   -4.1295    1.0351 </r>
       <r>   -4.0834    0.9649 </r>
       <r>   -3.3103   -0.0000 </r>
       <r>   -3.0169   -0.0000 </r>
       <r>   -2.9392   -0.0000 </r>
       <r>   -2.4809   -0.0000 </r>
       <r>   -2.3495   -0.0000 </r>
       <r>   -2.0211   -0.0000 </r>
       <r>   -1.8463   -0.0000 </r>
       <r>   -1.6900   -0.0000 </r>
       <r>   -1.3934   -0.0000 </r>
       <r>   -0.9294    0.0000 </r>
       <r>   -0.8707    0.0000 </r>
       <r>   -0.6324    0.0000 </r>
       <r>   -0.2704    0.0000 </r>
       <r>   -0.2568    0.0000 </r>
       <r>   -0.0593    0.0000 </r>
       <r>    0.1206    0.0000 </r>
      </set>
     </set>
    </set>
   </array>
  </eigenvalues>
  <separator name="orbital magnetization" >
   <v name="MAGDIPOLOUT">      0.00000000      0.00000000      0.00000000</v>
  </separator>
  <dos>
   <i name="efermi">     -4.01191511 </i>
   <total>
    <array>
     <dimension dim="1">gridpoints</dimension>
     <dimension dim="2">spin</dimension>
     <field>energy</field>
     <field>total</field>
     <field>integrated</field>
     <set>
      <set comment="spin 1">
       <r>   -29.5610     0.0000     0.0000 </r>
       <r>   -29.4574     0.0000     0.0000 </r>
       <r>   -29.3537     0.0000     0.0000 </r>
       <r>   -29.2501     0.0000     0.0000 </r>
       <r>   -29.1464     0.0000     0.0000 </r>
       <r>   -29.0428    -0.0000    -0.0000 </r>
       <r>   -28.9391    -0.0000    -0.0000 </r>
       <r>   -28.8355    -0.0000    -0.0000 </r>
       <r>   -28.7318    -0.0000    -0.0000 </r>
       <r>   -28.6282    -0.0000    -0.0000 </r>
       <r>   -28.5245    -0.0000    -0.0000 </r>
       <r>   -28.4209    -0.0074    -0.0008 </r>
       <r>   -28.3172    -0.3537    -0.0374 </r>
       <r>   -28.2136     1.4231     0.1101 </r>
       <r>   -28.1099    14.2827     1.5905 </r>
       <r>   -28.0063     4.5544     2.0625 </r>
       <r>   -27.9026    -0.5755     2.0029 </r>
       <r>   -27.7990    -0.0278     2.0000 </r>
       <r>   -27.6953    -0.0001     2.0000 </r>
       <r>   -27.5917    -0.0000     2.0000 </r>
       <r>   -27.4880    -0.0000     2.0000 </r>
       <r>   -27.3844     0.0000     2.0000 </r>
       <r>   -27.2807     0.0000     2.0000 </r>
       <r>   -27.1771     0.0000     2.0000 </r>
       <r>   -27.0734     0.0000     2.0000 </r>
       <r>   -26.9698     0.0000     2.0000 </r>
       <r>   -26.8661     0.0000     2.0000 </r>
       <r>   -26.7625     0.0000     2.0000 </r>
       <r>   -26.6588     0.0000     2.0000 </r>
       <r>   -26.5552     0.0000     2.0000 </r>
       <r>   -26.4515     0.0000     2.0000 </r>
       <r>   -26.3479     0.0000     2.0000 </r>
       <r>   -26.2442     0.0000     2.0000 </r>
       <r>   -26.1406     0.0000     2.0000 </r>
       <r>   -26.0369     0.0000     2.0000 </r>
       <r>   -25.9333     0.0000     2.0000 </r>
       <r>   -25.8296     0.0000     2.0000 </r>
       <r>   -25.7260     0.0000     2.0000 </r>
       <r>   -25.6223     0.0000     2.0000 </r>
       <r>   -25.5187     0.0000     2.0000 </r>
       <r>   -25.4150     0.0000     2.0000 </r>
       <r>   -25.3114     0.0000     2.0000 </r>
       <r>   -25.2077     0.0000     2.0000 </r>
       <r>   -25.1041     0.0000     2.0000 </r>
       <r>   -25.0004     0.0000     2.0000 </r>
       <r>   -24.8968     0.0000     2.0000 </r>
       <r>   -24.7931     0.0000     2.0000 </r>
       <r>   -24.6895     0.0000     2.0000 </r>
       <r>   -24.5858     0.0000     2.0000 </r>
       <r>   -24.4822     0.0000     2.0000 </r>
       <r>   -24.3785     0.0000     2.0000 </r>
       <r>   -24.2749     0.0000     2.0000 </r>
       <r>   -24.1712     0.0000     2.0000 </r>
       <r>   -24.0676     0.0000     2.0000 </r>
       <r>   -23.9639     0.0000     2.0000 </r>
       <r>   -23.8603     0.0000     2.0000 </r>
       <r>   -23.7566     0.0000     2.0000 </r>
       <r>   -23.6530     0.0000     2.0000 </r>
       <r>   -23.5493     0.0000     2.0000 </r>
       <r>   -23.4457     0.0000     2.0000 </r>
       <r>   -23.3420     0.0000     2.0000 </r>
       <r>   -23.2384     0.0000     2.0000 </r>
       <r>   -23.1347     0.0000     2.0000 </r>
       <r>   -23.0311     0.0000     2.0000 </r>
       <r>   -22.9274     0.0000     2.0000 </r>
       <r>   -22.8238     0.0000     2.0000 </r>
       <r>   -22.7201     0.0000     2.0000 </r>
       <r>   -22.6165     0.0000     2.0000 </r>
       <r>   -22.5128     0.0000     2.0000 </r>
       <r>   -22.4092     0.0000     2.0000 </r>
       <r>   -22.3055     0.0000     2.0000 </r>
       <r>   -22.2019     0.0000     2.0000 </r>
       <r>   -22.0982     0.0000     2.0000 </r>
       <r>   -21.9946     0.0000     2.0000 </r>
       <r>   -21.8909     0.0000     2.0000 </r>
       <r>   -21.7873     0.0000     2.0000 </r>
       <r>   -21.6836     0.0000     2.0000 </r>
       <r>   -21.5800     0.0000     2.0000 </r>
       <r>   -21.4763     0.0000     2.0000 </r>
       <r>   -21.3727     0.0000     2.0000 </r>
       <r>   -21.2690     0.0000     2.0000 </r>
       <r>   -21.1654     0.0000     2.0000 </r>
       <r>   -21.0617     0.0000     2.0000 </r>
       <r>   -20.9581     0.0000     2.0000 </r>
       <r>   -20.8544     0.0000     2.0000 </r>
       <r>   -20.7508     0.0000     2.0000 </r>
       <r>   -20.6471     0.0000     2.0000 </r>
       <r>   -20.5435     0.0000     2.0000 </r>
       <r>   -20.4398     0.0000     2.0000 </r>
       <r>   -20.3362     0.0000     2.0000 </r>
       <r>   -20.2325     0.0000     2.0000 </r>
       <r>   -20.1289     0.0000     2.0000 </r>
       <r>   -20.0252     0.0000     2.0000 </r>
       <r>   -19.9216     0.0000     2.0000 </r>
       <r>   -19.8179     0.0000     2.0000 </r>
       <r>   -19.7143     0.0000     2.0000 </r>
       <r>   -19.6106     0.0000     2.0000 </r>
       <r>   -19.5070     0.0000     2.0000 </r>
       <r>   -19.4033     0.0000     2.0000 </r>
       <r>   -19.2997     0.0000     2.0000 </r>
       <r>   -19.1960     0.0000     2.0000 </r>
       <r>   -19.0924     0.0000     2.0000 </r>
       <r>   -18.9887     0.0000     2.0000 </r>
       <r>   -18.8851     0.0000     2.0000 </r>
       <r>   -18.7814     0.0000     2.0000 </r>
       <r>   -18.6778     0.0000     2.0000 </r>
       <r>   -18.5741     0.0000     2.0000 </r>
       <r>   -18.4704     0.0000     2.0000 </r>
       <r>   -18.3668     0.0000     2.0000 </r>
       <r>   -18.2631     0.0000     2.0000 </r>
       <r>   -18.1595     0.0000     2.0000 </r>
       <r>   -18.0558     0.0000     2.0000 </r>
       <r>   -17.9522     0.0000     2.0000 </r>
       <r>   -17.8485     0.0000     2.0000 </r>
       <r>   -17.7449     0.0000     2.0000 </r>
       <r>   -17.6412     0.0000     2.0000 </r>
       <r>   -17.5376     0.0000     2.0000 </r>
       <r>   -17.4339     0.0000     2.0000 </r>
       <r>   -17.3303     0.0000     2.0000 </r>
       <r>   -17.2266     0.0000     2.0000 </r>
       <r>   -17.1230     0.0000     2.0000 </r>
       <r>   -17.0193     0.0000     2.0000 </r>
       <r>   -16.9157     0.0000     2.0000 </r>
       <r>   -16.8120     0.0000     2.0000 </r>
       <r>   -16.7084     0.0000     2.0000 </r>
       <r>   -16.6047     0.0000     2.0000 </r>
       <r>   -16.5011     0.0000     2.0000 </r>
       <r>   -16.3974     0.0000     2.0000 </r>
       <r>   -16.2938     0.0000     2.0000 </r>
       <r>   -16.1901     0.0000     2.0000 </r>
       <r>   -16.0865     0.0000     2.0000 </r>
       <r>   -15.9828     0.0000     2.0000 </r>
       <r>   -15.8792     0.0000     2.0000 </r>
       <r>   -15.7755     0.0000     2.0000 </r>
       <r>   -15.6719     0.0000     2.0000 </r>
       <r>   -15.5682     0.0000     2.0000 </r>
       <r>   -15.4646     0.0000     2.0000 </r>
       <r>   -15.3609     0.0000     2.0000 </r>
       <r>   -15.2573     0.0000     2.0000 </r>
       <r>   -15.1536     0.0000     2.0000 </r>
       <r>   -15.0500     0.0000     2.0000 </r>
       <r>   -14.9463     0.0000     2.0000 </r>
       <r>   -14.8427     0.0000     2.0000 </r>
       <r>   -14.7390    -0.0000     2.0000 </r>
       <r>   -14.6354    -0.0000     2.0000 </r>
       <r>   -14.5317    -0.0000     2.0000 </r>
       <r>   -14.4281    -0.0000     2.0000 </r>
       <r>   -14.3244    -0.0000     2.0000 </r>
       <r>   -14.2208    -0.0004     2.0000 </r>
       <r>   -14.1171    -0.0685     1.9929 </r>
       <r>   -14.0135    -0.6119     1.9294 </r>
       <r>   -13.9098     7.8251     2.7405 </r>
       <r>   -13.8062    12.3056     4.0160 </r>
       <r>   -13.7025     0.0453     4.0207 </r>
       <r>   -13.5989    -0.1971     4.0002 </r>
       <r>   -13.4952    -0.0023     4.0000 </r>
       <r>   -13.3916    -0.0000     4.0000 </r>
       <r>   -13.2879    -0.0000     4.0000 </r>
       <r>   -13.1843    -0.0000     4.0000 </r>
       <r>   -13.0806     0.0000     4.0000 </r>
       <r>   -12.9770     0.0000     4.0000 </r>
       <r>   -12.8733     0.0000     4.0000 </r>
       <r>   -12.7697     0.0000     4.0000 </r>
       <r>   -12.6660     0.0000     4.0000 </r>
       <r>   -12.5624     0.0000     4.0000 </r>
       <r>   -12.4587     0.0000     4.0000 </r>
       <r>   -12.3551     0.0000     4.0000 </r>
       <r>   -12.2514     0.0000     4.0000 </r>
       <r>   -12.1478     0.0000     4.0000 </r>
       <r>   -12.0441     0.0000     4.0000 </r>
       <r>   -11.9405    -0.0000     4.0000 </r>
       <r>   -11.8368    -0.0000     4.0000 </r>
       <r>   -11.7332    -0.0000     4.0000 </r>
       <r>   -11.6295    -0.0000     4.0000 </r>
       <r>   -11.5259    -0.0000     4.0000 </r>
       <r>   -11.4222    -0.0001     4.0000 </r>
       <r>   -11.3186    -0.0329     3.9966 </r>
       <r>   -11.2149    -0.6298     3.9313 </r>
       <r>   -11.1113     4.3378     4.3809 </r>
       <r>   -11.0076    18.7613     6.3255 </r>
       <r>   -10.9040    26.8467     9.1082 </r>
       <r>   -10.8003     9.6088    10.1041 </r>
       <r>   -10.6967    -0.9130    10.0095 </r>
       <r>   -10.5930    -0.0913    10.0001 </r>
       <r>   -10.4894    -0.0006    10.0000 </r>
       <r>   -10.3857    -0.0078     9.9992 </r>
       <r>   -10.2821    -0.3612     9.9618 </r>
       <r>   -10.1784     1.5003    10.1173 </r>
       <r>   -10.0748    14.3299    11.6026 </r>
       <r>    -9.9711     4.4310    12.0618 </r>
       <r>    -9.8675    -0.5698    12.0028 </r>
       <r>    -9.7638    -0.0267    12.0000 </r>
       <r>    -9.6602    -0.0001    12.0000 </r>
       <r>    -9.5565    -0.0000    12.0000 </r>
       <r>    -9.4529    -0.0000    12.0000 </r>
       <r>    -9.3492    -0.0000    12.0000 </r>
       <r>    -9.2456    -0.0000    12.0000 </r>
       <r>    -9.1419    -0.0000    12.0000 </r>
       <r>    -9.0383    -0.0000    12.0000 </r>
       <r>    -8.9346    -0.0000    12.0000 </r>
       <r>    -8.8310    -0.0027    11.9997 </r>
       <r>    -8.7273    -0.2151    11.9774 </r>
       <r>    -8.6237     0.1786    11.9959 </r>
       <r>    -8.5200    12.6452    13.3066 </r>
       <r>    -8.4164     6.9761    14.0297 </r>
       <r>    -8.3127     1.1746    14.1514 </r>
       <r>    -8.2091    14.4155    15.6456 </r>
       <r>    -8.1054     3.9896    16.0591 </r>
       <r>    -8.0018    -0.5479    16.0023 </r>
       <r>    -7.8981    -0.1146    15.9904 </r>
       <r>    -7.7945    -0.5752    15.9308 </r>
       <r>    -7.6908     8.4538    16.8071 </r>
       <r>    -7.5872    15.1076    18.3730 </r>
       <r>    -7.4835    16.9371    20.1285 </r>
       <r>    -7.3799    15.0764    21.6912 </r>
       <r>    -7.2762    12.4774    22.9845 </r>
       <r>    -7.1726    25.0759    25.5836 </r>
       <r>    -7.0689    17.4725    27.3946 </r>
       <r>    -6.9653    23.8544    29.8671 </r>
       <r>    -6.8616    18.7521    31.8108 </r>
       <r>    -6.7580    32.0383    35.1316 </r>
       <r>    -6.6543    29.9990    38.2410 </r>
       <r>    -6.5507    35.9738    41.9697 </r>
       <r>    -6.4470    57.4465    47.9240 </r>
       <r>    -6.3434    55.8474    53.7126 </r>
       <r>    -6.2397    48.3008    58.7190 </r>
       <r>    -6.1361    39.3094    62.7934 </r>
       <r>    -6.0324    38.1050    66.7430 </r>
       <r>    -5.9288    31.7555    70.0345 </r>
       <r>    -5.8251    27.1824    72.8519 </r>
       <r>    -5.7215    18.4438    74.7636 </r>
       <r>    -5.6178    46.0848    79.5403 </r>
       <r>    -5.5142    54.9028    85.2310 </r>
       <r>    -5.4105    63.6046    91.8236 </r>
       <r>    -5.3069    76.4972    99.7526 </r>
       <r>    -5.2032    78.5087   107.8900 </r>
       <r>    -5.0996    95.6540   117.8046 </r>
       <r>    -4.9959    68.7832   124.9340 </r>
       <r>    -4.8923    83.6645   133.6058 </r>
       <r>    -4.7886    81.6646   142.0703 </r>
       <r>    -4.6850    33.7106   145.5644 </r>
       <r>    -4.5813     9.3171   146.5302 </r>
       <r>    -4.4777    13.2764   147.9063 </r>
       <r>    -4.3740     1.0335   148.0134 </r>
       <r>    -4.2704    -1.1301   147.8962 </r>
       <r>    -4.1667    18.2385   149.7867 </r>
       <r>    -4.0631    21.8359   152.0500 </r>
       <r>    -3.9594    -0.1476   152.0347 </r>
       <r>    -3.8558    -0.3306   152.0004 </r>
       <r>    -3.7521    -0.0444   151.9958 </r>
       <r>    -3.6485    -0.6176   151.9318 </r>
       <r>    -3.5448     5.8025   152.5332 </r>
       <r>    -3.4412    13.6778   153.9509 </r>
       <r>    -3.3375     0.7545   154.0291 </r>
       <r>    -3.2339    -0.6990   153.9567 </r>
       <r>    -3.1302     1.2356   154.0847 </r>
       <r>    -3.0266    18.6785   156.0208 </r>
       <r>    -2.9229    18.3986   157.9278 </r>
       <r>    -2.8193     1.0933   158.0411 </r>
       <r>    -2.7156    -0.8099   157.9572 </r>
       <r>    -2.6120     1.7206   158.1355 </r>
       <r>    -2.5083    15.2466   159.7158 </r>
       <r>    -2.4047    17.2961   161.5086 </r>
       <r>    -2.3010     5.4062   162.0689 </r>
       <r>    -2.1974    -1.1633   161.9483 </r>
       <r>    -2.0937     3.0821   162.2678 </r>
       <r>    -1.9901    15.7417   163.8994 </r>
       <r>    -1.8864    15.7142   165.5282 </r>
       <r>    -1.7828     9.5393   166.5169 </r>
       <r>    -1.6791    13.1337   167.8783 </r>
       <r>    -1.5755     2.6420   168.1521 </r>
       <r>    -1.4718    14.0014   169.6034 </r>
       <r>    -1.3682     4.4217   170.0617 </r>
       <r>    -1.2645    -0.7327   169.9857 </r>
       <r>    -1.1609    -0.3040   169.9542 </r>
       <r>    -1.0572    10.9353   171.0876 </r>
       <r>    -0.9536    17.6110   172.9130 </r>
       <r>    -0.8499    10.3550   173.9863 </r>
       <r>    -0.7463     3.8347   174.3838 </r>
       <r>    -0.6426    14.2677   175.8626 </r>
       <r>    -0.5390     1.3158   175.9990 </r>
       <r>    -0.4353     0.6634   176.0678 </r>
       <r>    -0.3317    17.9927   177.9327 </r>
       <r>    -0.2280    18.7436   179.8755 </r>
       <r>    -0.1244    13.0896   181.2322 </r>
       <r>    -0.0207     7.8042   182.0411 </r>
       <r>     0.0829    11.2213   183.2042 </r>
       <r>     0.1866     8.3454   184.0692 </r>
       <r>     0.2902    -0.5882   184.0083 </r>
       <r>     0.3939    -0.0792   184.0000 </r>
       <r>     0.4975    -0.0005   184.0000 </r>
       <r>     0.6012    -0.0000   184.0000 </r>
       <r>     0.7048    -0.0000   184.0000 </r>
       <r>     0.8085     0.0000   184.0000 </r>
       <r>     0.9121     0.0000   184.0000 </r>
       <r>     1.0158     0.0000   184.0000 </r>
       <r>     1.1194     0.0000   184.0000 </r>
       <r>     1.2231     0.0000   184.0000 </r>
       <r>     1.3267     0.0000   184.0000 </r>
       <r>     1.4304     0.0000   184.0000 </r>
       <r>     1.5340     0.0000   184.0000 </r>
      </set>
      <set comment="spin 2">
       <r>   -29.5610     0.0000     0.0000 </r>
       <r>   -29.4574     0.0000     0.0000 </r>
       <r>   -29.3537     0.0000     0.0000 </r>
       <r>   -29.2501     0.0000     0.0000 </r>
       <r>   -29.1464     0.0000     0.0000 </r>
       <r>   -29.0428     0.0000     0.0000 </r>
       <r>   -28.9391    -0.0000    -0.0000 </r>
       <r>   -28.8355    -0.0000    -0.0000 </r>
       <r>   -28.7318    -0.0000    -0.0000 </r>
       <r>   -28.6282    -0.0000    -0.0000 </r>
       <r>   -28.5245    -0.0000    -0.0000 </r>
       <r>   -28.4209    -0.0025    -0.0003 </r>
       <r>   -28.3172    -0.2049    -0.0215 </r>
       <r>   -28.2136     0.1022    -0.0109 </r>
       <r>   -28.1099    12.4619     1.2808 </r>
       <r>   -28.0063     7.6220     2.0708 </r>
       <r>   -27.9026    -0.6175     2.0068 </r>
       <r>   -27.7990    -0.0652     2.0000 </r>
       <r>   -27.6953    -0.0003     2.0000 </r>
       <r>   -27.5917    -0.0000     2.0000 </r>
       <r>   -27.4880    -0.0000     2.0000 </r>
       <r>   -27.3844     0.0000     2.0000 </r>
       <r>   -27.2807     0.0000     2.0000 </r>
       <r>   -27.1771     0.0000     2.0000 </r>
       <r>   -27.0734     0.0000     2.0000 </r>
       <r>   -26.9698     0.0000     2.0000 </r>
       <r>   -26.8661     0.0000     2.0000 </r>
       <r>   -26.7625     0.0000     2.0000 </r>
       <r>   -26.6588     0.0000     2.0000 </r>
       <r>   -26.5552     0.0000     2.0000 </r>
       <r>   -26.4515     0.0000     2.0000 </r>
       <r>   -26.3479     0.0000     2.0000 </r>
       <r>   -26.2442     0.0000     2.0000 </r>
       <r>   -26.1406     0.0000     2.0000 </r>
       <r>   -26.0369     0.0000     2.0000 </r>
       <r>   -25.9333     0.0000     2.0000 </r>
       <r>   -25.8296     0.0000     2.0000 </r>
       <r>   -25.7260     0.0000     2.0000 </r>
       <r>   -25.6223     0.0000     2.0000 </r>
       <r>   -25.5187     0.0000     2.0000 </r>
       <r>   -25.4150     0.0000     2.0000 </r>
       <r>   -25.3114     0.0000     2.0000 </r>
       <r>   -25.2077     0.0000     2.0000 </r>
       <r>   -25.1041     0.0000     2.0000 </r>
       <r>   -25.0004     0.0000     2.0000 </r>
       <r>   -24.8968     0.0000     2.0000 </r>
       <r>   -24.7931     0.0000     2.0000 </r>
       <r>   -24.6895     0.0000     2.0000 </r>
       <r>   -24.5858     0.0000     2.0000 </r>
       <r>   -24.4822     0.0000     2.0000 </r>
       <r>   -24.3785     0.0000     2.0000 </r>
       <r>   -24.2749     0.0000     2.0000 </r>
       <r>   -24.1712     0.0000     2.0000 </r>
       <r>   -24.0676     0.0000     2.0000 </r>
       <r>   -23.9639     0.0000     2.0000 </r>
       <r>   -23.8603     0.0000     2.0000 </r>
       <r>   -23.7566     0.0000     2.0000 </r>
       <r>   -23.6530     0.0000     2.0000 </r>
       <r>   -23.5493     0.0000     2.0000 </r>
       <r>   -23.4457     0.0000     2.0000 </r>
       <r>   -23.3420     0.0000     2.0000 </r>
       <r>   -23.2384     0.0000     2.0000 </r>
       <r>   -23.1347     0.0000     2.0000 </r>
       <r>   -23.0311     0.0000     2.0000 </r>
       <r>   -22.9274     0.0000     2.0000 </r>
       <r>   -22.8238     0.0000     2.0000 </r>
       <r>   -22.7201     0.0000     2.0000 </r>
       <r>   -22.6165     0.0000     2.0000 </r>
       <r>   -22.5128     0.0000     2.0000 </r>
       <r>   -22.4092     0.0000     2.0000 </r>
       <r>   -22.3055     0.0000     2.0000 </r>
       <r>   -22.2019     0.0000     2.0000 </r>
       <r>   -22.0982     0.0000     2.0000 </r>
       <r>   -21.9946     0.0000     2.0000 </r>
       <r>   -21.8909     0.0000     2.0000 </r>
       <r>   -21.7873     0.0000     2.0000 </r>
       <r>   -21.6836     0.0000     2.0000 </r>
       <r>   -21.5800     0.0000     2.0000 </r>
       <r>   -21.4763     0.0000     2.0000 </r>
       <r>   -21.3727     0.0000     2.0000 </r>
       <r>   -21.2690     0.0000     2.0000 </r>
       <r>   -21.1654     0.0000     2.0000 </r>
       <r>   -21.0617     0.0000     2.0000 </r>
       <r>   -20.9581     0.0000     2.0000 </r>
       <r>   -20.8544     0.0000     2.0000 </r>
       <r>   -20.7508     0.0000     2.0000 </r>
       <r>   -20.6471     0.0000     2.0000 </r>
       <r>   -20.5435     0.0000     2.0000 </r>
       <r>   -20.4398     0.0000     2.0000 </r>
       <r>   -20.3362     0.0000     2.0000 </r>
       <r>   -20.2325     0.0000     2.0000 </r>
       <r>   -20.1289     0.0000     2.0000 </r>
       <r>   -20.0252     0.0000     2.0000 </r>
       <r>   -19.9216     0.0000     2.0000 </r>
       <r>   -19.8179     0.0000     2.0000 </r>
       <r>   -19.7143     0.0000     2.0000 </r>
       <r>   -19.6106     0.0000     2.0000 </r>
       <r>   -19.5070     0.0000     2.0000 </r>
       <r>   -19.4033     0.0000     2.0000 </r>
       <r>   -19.2997     0.0000     2.0000 </r>
       <r>   -19.1960     0.0000     2.0000 </r>
       <r>   -19.0924     0.0000     2.0000 </r>
       <r>   -18.9887     0.0000     2.0000 </r>
       <r>   -18.8851     0.0000     2.0000 </r>
       <r>   -18.7814     0.0000     2.0000 </r>
       <r>   -18.6778     0.0000     2.0000 </r>
       <r>   -18.5741     0.0000     2.0000 </r>
       <r>   -18.4704     0.0000     2.0000 </r>
       <r>   -18.3668     0.0000     2.0000 </r>
       <r>   -18.2631     0.0000     2.0000 </r>
       <r>   -18.1595     0.0000     2.0000 </r>
       <r>   -18.0558     0.0000     2.0000 </r>
       <r>   -17.9522     0.0000     2.0000 </r>
       <r>   -17.8485     0.0000     2.0000 </r>
       <r>   -17.7449     0.0000     2.0000 </r>
       <r>   -17.6412     0.0000     2.0000 </r>
       <r>   -17.5376     0.0000     2.0000 </r>
       <r>   -17.4339     0.0000     2.0000 </r>
       <r>   -17.3303     0.0000     2.0000 </r>
       <r>   -17.2266     0.0000     2.0000 </r>
       <r>   -17.1230     0.0000     2.0000 </r>
       <r>   -17.0193     0.0000     2.0000 </r>
       <r>   -16.9157     0.0000     2.0000 </r>
       <r>   -16.8120     0.0000     2.0000 </r>
       <r>   -16.7084     0.0000     2.0000 </r>
       <r>   -16.6047     0.0000     2.0000 </r>
       <r>   -16.5011     0.0000     2.0000 </r>
       <r>   -16.3974     0.0000     2.0000 </r>
       <r>   -16.2938     0.0000     2.0000 </r>
       <r>   -16.1901     0.0000     2.0000 </r>
       <r>   -16.0865     0.0000     2.0000 </r>
       <r>   -15.9828     0.0000     2.0000 </r>
       <r>   -15.8792     0.0000     2.0000 </r>
       <r>   -15.7755     0.0000     2.0000 </r>
       <r>   -15.6719     0.0000     2.0000 </r>
       <r>   -15.5682     0.0000     2.0000 </r>
       <r>   -15.4646     0.0000     2.0000 </r>
       <r>   -15.3609     0.0000     2.0000 </r>
       <r>   -15.2573     0.0000     2.0000 </r>
       <r>   -15.1536     0.0000     2.0000 </r>
       <r>   -15.0500     0.0000     2.0000 </r>
       <r>   -14.9463     0.0000     2.0000 </r>
       <r>   -14.8427     0.0000     2.0000 </r>
       <r>   -14.7390    -0.0000     2.0000 </r>
       <r>   -14.6354    -0.0000     2.0000 </r>
       <r>   -14.5317    -0.0000     2.0000 </r>
       <r>   -14.4281    -0.0000     2.0000 </r>
       <r>   -14.3244    -0.0000     2.0000 </r>
       <r>   -14.2208    -0.0000     2.0000 </r>
       <r>   -14.1171    -0.0113     1.9988 </r>
       <r>   -14.0135    -0.4255     1.9547 </r>
       <r>   -13.9098     2.2234     2.1852 </r>
       <r>   -13.8062    14.6060     3.6991 </r>
       <r>   -13.7025     3.4364     4.0553 </r>
       <r>   -13.5989    -0.5144     4.0020 </r>
       <r>   -13.4952    -0.0189     4.0000 </r>
       <r>   -13.3916    -0.0001     4.0000 </r>
       <r>   -13.2879    -0.0000     4.0000 </r>
       <r>   -13.1843    -0.0000     4.0000 </r>
       <r>   -13.0806     0.0000     4.0000 </r>
       <r>   -12.9770     0.0000     4.0000 </r>
       <r>   -12.8733     0.0000     4.0000 </r>
       <r>   -12.7697     0.0000     4.0000 </r>
       <r>   -12.6660     0.0000     4.0000 </r>
       <r>   -12.5624     0.0000     4.0000 </r>
       <r>   -12.4587     0.0000     4.0000 </r>
       <r>   -12.3551     0.0000     4.0000 </r>
       <r>   -12.2514     0.0000     4.0000 </r>
       <r>   -12.1478     0.0000     4.0000 </r>
       <r>   -12.0441     0.0000     4.0000 </r>
       <r>   -11.9405    -0.0000     4.0000 </r>
       <r>   -11.8368    -0.0000     4.0000 </r>
       <r>   -11.7332    -0.0000     4.0000 </r>
       <r>   -11.6295    -0.0000     4.0000 </r>
       <r>   -11.5259    -0.0000     4.0000 </r>
       <r>   -11.4222    -0.0000     4.0000 </r>
       <r>   -11.3186    -0.0087     3.9991 </r>
       <r>   -11.2149    -0.3843     3.9593 </r>
       <r>   -11.1113     1.4089     4.1053 </r>
       <r>   -11.0076    14.3645     5.5942 </r>
       <r>   -10.9040    22.9204     7.9699 </r>
       <r>   -10.8003    19.6597    10.0076 </r>
       <r>   -10.6967     0.2830    10.0369 </r>
       <r>   -10.5930    -0.3508    10.0006 </r>
       <r>   -10.4894    -0.0056    10.0000 </r>
       <r>   -10.3857    -0.0007     9.9999 </r>
       <r>   -10.2821    -0.0984     9.9897 </r>
       <r>   -10.1784    -0.5245     9.9354 </r>
       <r>   -10.0748     9.3391    10.9034 </r>
       <r>    -9.9711    11.0209    12.0457 </r>
       <r>    -9.8675    -0.2943    12.0152 </r>
       <r>    -9.7638    -0.1452    12.0001 </r>
       <r>    -9.6602    -0.0013    12.0000 </r>
       <r>    -9.5565    -0.0000    12.0000 </r>
       <r>    -9.4529    -0.0000    12.0000 </r>
       <r>    -9.3492    -0.0000    12.0000 </r>
       <r>    -9.2456    -0.0000    12.0000 </r>
       <r>    -9.1419    -0.0000    12.0000 </r>
       <r>    -9.0383    -0.0000    12.0000 </r>
       <r>    -8.9346    -0.0000    12.0000 </r>
       <r>    -8.8310    -0.0008    11.9999 </r>
       <r>    -8.7273    -0.1110    11.9884 </r>
       <r>    -8.6237    -0.4716    11.9395 </r>
       <r>    -8.5200     9.8589    12.9614 </r>
       <r>    -8.4164    10.4298    14.0425 </r>
       <r>    -8.3127    -0.8951    13.9497 </r>
       <r>    -8.2091     9.3183    14.9155 </r>
       <r>    -8.1054    10.9195    16.0473 </r>
       <r>    -8.0018    -0.3135    16.0148 </r>
       <r>    -7.8981    -0.1532    15.9990 </r>
       <r>    -7.7945    -0.4337    15.9540 </r>
       <r>    -7.6908     1.8828    16.1492 </r>
       <r>    -7.5872    15.6721    17.7736 </r>
       <r>    -7.4835    17.7954    19.6181 </r>
       <r>    -7.3799    16.3732    21.3151 </r>
       <r>    -7.2762     8.4802    22.1941 </r>
       <r>    -7.1726    25.0063    24.7860 </r>
       <r>    -7.0689    18.2146    26.6740 </r>
       <r>    -6.9653    26.4356    29.4140 </r>
       <r>    -6.8616    14.9912    30.9679 </r>
       <r>    -6.7580    32.0806    34.2930 </r>
       <r>    -6.6543    29.1432    37.3137 </r>
       <r>    -6.5507    34.9358    40.9348 </r>
       <r>    -6.4470    52.7760    46.4051 </r>
       <r>    -6.3434    55.4681    52.1543 </r>
       <r>    -6.2397    53.1489    57.6632 </r>
       <r>    -6.1361    39.4040    61.7475 </r>
       <r>    -6.0324    40.1407    65.9081 </r>
       <r>    -5.9288    31.2062    69.1426 </r>
       <r>    -5.8251    30.0995    72.2624 </r>
       <r>    -5.7215    19.1218    74.2444 </r>
       <r>    -5.6178    37.5847    78.1400 </r>
       <r>    -5.5142    56.5160    83.9979 </r>
       <r>    -5.4105    55.3297    89.7328 </r>
       <r>    -5.3069    78.0224    97.8199 </r>
       <r>    -5.2032    77.5036   105.8531 </r>
       <r>    -5.0996    96.8657   115.8933 </r>
       <r>    -4.9959    71.0203   123.2546 </r>
       <r>    -4.8923    74.5454   130.9812 </r>
       <r>    -4.7886    86.8474   139.9829 </r>
       <r>    -4.6850    47.6194   144.9187 </r>
       <r>    -4.5813    11.7873   146.1405 </r>
       <r>    -4.4777    12.4703   147.4330 </r>
       <r>    -4.3740     6.1129   148.0666 </r>
       <r>    -4.2704    -1.4319   147.9182 </r>
       <r>    -4.1667     4.8317   148.4190 </r>
       <r>    -4.0631    27.1142   151.2294 </r>
       <r>    -3.9594     8.4759   152.1079 </r>
       <r>    -3.8558    -0.9766   152.0067 </r>
       <r>    -3.7521    -0.0642   152.0000 </r>
       <r>    -3.6485    -0.0005   152.0000 </r>
       <r>    -3.5448    -0.0432   151.9955 </r>
       <r>    -3.4412    -0.6221   151.9310 </r>
       <r>    -3.3375     6.0439   152.5575 </r>
       <r>    -3.2339    13.4491   153.9515 </r>
       <r>    -3.1302    -0.1133   153.9397 </r>
       <r>    -3.0266     8.5402   154.8249 </r>
       <r>    -2.9229    23.9393   157.3062 </r>
       <r>    -2.8193     7.5415   158.0879 </r>
       <r>    -2.7156    -0.8224   158.0027 </r>
       <r>    -2.6120    -0.7027   157.9298 </r>
       <r>    -2.5083     5.5741   158.5076 </r>
       <r>    -2.4047    15.9942   160.1654 </r>
       <r>    -2.3010    15.3056   161.7518 </r>
       <r>    -2.1974     2.6067   162.0220 </r>
       <r>    -2.0937     0.3844   162.0618 </r>
       <r>    -1.9901    13.2722   163.4375 </r>
       <r>    -1.8864     9.5389   164.4262 </r>
       <r>    -1.7828    13.6592   165.8420 </r>
       <r>    -1.6791    13.3134   167.2219 </r>
       <r>    -1.5755     7.9152   168.0423 </r>
       <r>    -1.4718    -0.0559   168.0365 </r>
       <r>    -1.3682    13.2689   169.4119 </r>
       <r>    -1.2645     6.3470   170.0697 </r>
       <r>    -1.1609    -0.6779   169.9995 </r>
       <r>    -1.0572    -0.9037   169.9058 </r>
       <r>    -0.9536     6.7880   170.6094 </r>
       <r>    -0.8499    26.0778   173.3124 </r>
       <r>    -0.7463     6.9140   174.0290 </r>
       <r>    -0.6426     7.7752   174.8349 </r>
       <r>    -0.5390    11.5541   176.0325 </r>
       <r>    -0.4353    -0.8349   175.9459 </r>
       <r>    -0.3317     2.4145   176.1962 </r>
       <r>    -0.2280    27.7956   179.0772 </r>
       <r>    -0.1244    11.2313   180.2414 </r>
       <r>    -0.0207    12.5915   181.5465 </r>
       <r>     0.0829     8.9235   182.4714 </r>
       <r>     0.1866    13.7126   183.8927 </r>
       <r>     0.2902     1.3964   184.0374 </r>
       <r>     0.3939    -0.3538   184.0008 </r>
       <r>     0.4975    -0.0074   184.0000 </r>
       <r>     0.6012    -0.0000   184.0000 </r>
       <r>     0.7048    -0.0000   184.0000 </r>
       <r>     0.8085    -0.0000   184.0000 </r>
       <r>     0.9121     0.0000   184.0000 </r>
       <r>     1.0158     0.0000   184.0000 </r>
       <r>     1.1194     0.0000   184.0000 </r>
       <r>     1.2231     0.0000   184.0000 </r>
       <r>     1.3267     0.0000   184.0000 </r>
       <r>     1.4304     0.0000   184.0000 </r>
       <r>     1.5340     0.0000   184.0000 </r>
      </set>
     </set>
    </array>
   </total>
  </dos>
 </calculation>
 <structure name="finalpos" >
  <crystal>
   <varray name="basis" >
    <v>      15.00000000       0.00000000       0.00000000 </v>
    <v>       0.00000000      15.00000000       0.00000000 </v>
    <v>       0.00000000       0.00000000      15.00000000 </v>
   </varray>
   <i name="volume">   3375.00000000 </i>
   <varray name="rec_basis" >
    <v>       0.06666667       0.00000000       0.00000000 </v>
    <v>       0.00000000       0.06666667       0.00000000 </v>
    <v>       0.00000000       0.00000000       0.06666667 </v>
   </varray>
  </crystal>
  <varray name="positions" >
   <v>       0.29211933       0.41789200       0.55755400 </v>
   <v>       0.37607600       0.55102333       0.49457600 </v>
   <v>       0.38901333       0.29556800       0.55714067 </v>
   <v>       0.53490667       0.50707067       0.47679933 </v>
   <v>       0.55057333       0.34074333       0.52683333 </v>
   <v>       0.44938200       0.43517267       0.61872333 </v>
   <v>       0.41938000       0.40147133       0.44136000 </v>
   <v>       0.22826400       0.56258600       0.55478000 </v>
   <v>       0.33480667       0.54502200       0.65977400 </v>
   <v>       0.35106667       0.68738667       0.57118867 </v>
   <v>       0.47999933       0.66293267       0.47966867 </v>
   <v>       0.62598667       0.48580467       0.60070133 </v>
   <v>       0.48400467       0.59139533       0.61315333 </v>
   <v>       0.74530000       0.49214067       0.63889933 </v>
   <v>       0.81824667       0.50512600       0.66590067 </v>
  </varray>
 </structure>
</modeling>
