-46.3971 1.144498
-46.2971 0.129271
-46.1971 0.10943
-46.0971 0.119372
-45.9971 0.06956999999999999
-45.8971 0.059693
-45.7971 0.009951
-45.6971 0.049765
-45.5971 0.099469
-45.4971 0.049724
-45.3971 0.059671
-45.2971 0.039762000000000006
-45.1971 0.029852
-45.0971 0.009947
-44.9971 0.0
-44.8971 0.00994
-44.7971 0.0
-44.6971 0.0
-44.5971 0.0
-44.4971 0.0
-44.3971 0.0
-44.2971 0.0
-44.1971 0.0
-44.0971 0.0
-43.9971 0.0
-43.8971 0.0
-43.7971 0.0
-43.6971 0.0
-43.5971 0.0
-43.4971 0.0
-43.3971 0.0
-43.2971 0.0
-43.1971 0.0
-43.0971 0.0
-42.9971 0.0
-42.8971 0.0
-42.7971 0.0
-42.6971 0.0
-42.5971 0.0
-42.4971 0.0
-42.3971 0.0
-42.2971 0.0
-42.1971 0.0
-42.0971 0.0
-41.9971 0.0
-41.8971 0.0
-41.7971 0.0
-41.6971 0.0
-41.5971 0.0
-41.4971 0.0
-41.3971 0.0
-41.2971 0.0
-41.1971 0.0
-41.0971 0.0
-40.9971 0.0
-40.8971 0.0
-40.7971 0.0
-40.6971 0.0
-40.5971 0.0
-40.4971 0.0
-40.3971 0.0
-40.2971 0.0
-40.1971 0.0
-40.0971 0.0
-39.9971 0.0
-39.8971 0.0
-39.7971 0.0
-39.6971 0.0
-39.5971 0.0
-39.4971 0.0
-39.3971 0.0
-39.2971 0.0
-39.1971 0.0
-39.0971 0.0
-38.9971 0.0
-38.8971 0.0
-38.7971 0.0
-38.6971 0.0
-38.5971 0.0
-38.4971 0.0
-38.3971 0.0
-38.2971 0.0
-38.1971 0.0
-38.0971 0.0
-37.9971 0.0
-37.8971 0.0
-37.7971 0.0
-37.6971 0.0
-37.5971 0.0
-37.4971 0.0
-37.3971 0.0
-37.2971 0.0
-37.1971 0.0
-37.0971 0.0
-36.9971 0.0
-36.8971 0.0
-36.7971 0.0
-36.6971 0.0
-36.5971 0.0
-36.4971 0.0
-36.3971 0.0
-36.2971 0.0
-36.1971 0.0
-36.0971 0.0
-35.9971 0.0
-35.8971 0.0
-35.7971 0.0
-35.6971 0.0
-35.5971 0.0
-35.4971 0.0
-35.3971 0.0
-35.2971 0.0
-35.1971 0.0
-35.0971 0.0
-34.9971 0.0
-34.8971 0.0
-34.7971 0.0
-34.6971 0.0
-34.5971 0.0
-34.4971 0.0
-34.3971 0.0
-34.2971 0.0
-34.1971 0.0
-34.0971 0.0
-33.9971 0.0
-33.8971 0.0
-33.7971 0.0
-33.6971 0.0
-33.5971 0.0
-33.4971 0.0
-33.3971 0.0
-33.2971 0.0
-33.1971 0.0
-33.0971 0.0
-32.9971 0.0
-32.8971 0.0
-32.7971 0.0
-32.6971 0.0
-32.5971 0.0
-32.4971 0.0
-32.3971 0.0
-32.2971 0.0
-32.1971 0.0
-32.0971 0.0
-31.9971 0.0
-31.8971 0.0
-31.7971 0.0
-31.6971 0.0
-31.5971 0.0
-31.4971 0.0
-31.3971 0.0
-31.2971 0.0
-31.1971 0.0
-31.0971 0.0
-30.9971 0.0
-30.8971 0.009633
-30.7971 0.019263
-30.6971 0.0
-30.5971 0.019319000000000003
-30.4971 0.0
-30.3971 0.028786000000000003
-30.2971 0.057919
-30.1971 0.057544
-30.0971 0.048461000000000004
-29.9971 0.057818999999999995
-29.8971 0.105935
-29.7971 0.067288
-29.6971 0.10534699999999998
-29.5971 0.164217
-29.4971 0.19226600000000002
-29.3971 0.135422
-29.2971 0.202013
-29.1971 0.15416299999999997
-29.0971 0.048226000000000005
-28.9971 0.077162
-28.8971 0.08681299999999999
-28.7971 0.057995000000000005
-28.6971 0.05792
-28.5971 0.057283
-28.4971 0.057802
-28.3971 0.036982
-28.2971 0.055151
-28.1971 0.07421900000000001
-28.0971 0.08297800000000001
-27.9971 0.054516
-27.8971 0.10884100000000001
-27.7971 0.15425600000000003
-27.6971 0.136095
-27.5971 0.154043
-27.4971 0.21768800000000002
-27.3971 0.181241
-27.2971 0.19943699999999998
-27.1971 0.20792199999999997
-27.0971 0.235578
-26.9971 0.25295799999999996
-26.8971 0.189642
-26.7971 0.18972600000000003
-26.6971 0.162455
-26.5971 0.207717
-26.4971 0.11697899999999999
-26.3971 0.144592
-26.2971 0.16218
-26.1971 0.081089
-26.0971 0.152742
-25.9971 0.143763
-25.8971 0.125023
-25.7971 0.18761899999999998
-25.6971 0.23228300000000004
-25.5971 0.241251
-25.4971 0.401678
-25.3971 0.58885
-25.2971 0.597887
-25.1971 0.8388509999999999
-25.0971 1.1249900000000002
-24.9971 1.241997
-24.8971 1.2419940000000003
-24.7971 1.44808
-24.6971 1.725894
-24.5971 1.6182770000000002
-24.4971 1.735916
-24.3971 1.7001169999999999
-24.2971 1.485431
-24.1971 1.6925670000000002
-24.0971 1.3435489999999999
-23.9971 1.18241
-23.8971 1.2468550000000003
-23.7971 1.086762
-23.6971 0.915146
-23.5971 0.595904
-23.4971 0.550149
-23.3971 0.44423999999999997
-23.2971 0.370198
-23.1971 0.33425900000000003
-23.0971 0.37341100000000005
-22.9971 0.326839
-22.8971 0.325944
-22.7971 0.39854300000000004
-22.6971 0.512229
-22.5971 0.5938209999999999
-22.4971 0.8149649999999999
-22.3971 0.954274
-22.2971 1.2091779999999999
-22.1971 1.685803
-22.0971 1.809009
-21.9971 1.926906
-21.8971 2.474292
-21.7971 2.584583
-21.6971 2.755903
-21.5971 3.2698590000000003
-21.4971 3.307205
-21.3971 3.16944
-21.2971 3.082016
-21.1971 3.012868
-21.0971 3.116837
-20.9971 2.632604
-20.8971 2.441898
-20.7971 2.153778
-20.6971 1.7616469999999997
-20.5971 1.5484710000000002
-20.4971 1.34403
-20.3971 1.254385
-20.2971 0.9894499999999998
-20.1971 0.849735
-20.0971 0.547333
-19.9971 0.42172699999999996
-19.8971 0.304232
-19.7971 0.29234
-19.6971 0.11051999999999998
-19.5971 0.17476
-19.4971 0.11097
-19.3971 0.035982
-19.2971 0.037193
-19.1971 0.01862
-19.0971 0.009231
-18.9971 0.018411
-18.8971 0.036664999999999996
-18.7971 0.0
-18.6971 0.009229
-18.5971 0.008990000000000001
-18.4971 0.009221
-18.3971 0.036364
-18.2971 0.0
-18.1971 0.018095
-18.0971 0.063443
-17.9971 0.03612800000000001
-17.8971 0.009028
-17.7971 0.03638400000000001
-17.6971 0.036385
-17.5971 0.04537600000000001
-17.4971 0.06367600000000001
-17.3971 0.090626
-17.2971 0.036302999999999995
-17.1971 0.08157900000000001
-17.0971 0.036294
-16.9971 0.018227
-16.8971 0.0
-16.7971 0.027399999999999997
-16.6971 0.054599999999999996
-16.5971 0.00908
-16.4971 0.009126
-16.3971 0.035436999999999996
-16.2971 0.052573
-16.1971 0.06254399999999999
-16.0971 0.06047
-15.9971 0.06627300000000001
-15.8971 0.103922
-15.7971 0.097122
-15.6971 0.232848
-15.5971 0.33689300000000005
-15.4971 0.45902499999999996
-15.3971 0.641554
-15.2971 0.8891379999999998
-15.1971 0.9219010000000001
-15.0971 1.325499
-14.9971 1.49166
-14.8971 1.5093910000000001
-14.7971 1.6688319999999999
-14.6971 1.71709
-14.5971 1.8605040000000002
-14.4971 1.677903
-14.3971 1.5821679999999998
-14.2971 1.464412
-14.1971 1.2169900000000002
-14.0971 1.010328
-13.9971 0.80794
-13.8971 0.646259
-13.7971 0.678247
-13.6971 0.46035899999999996
-13.5971 0.27522800000000003
-13.4971 0.39422
-13.3971 0.23210399999999998
-13.2971 0.33024299999999995
-13.1971 0.412295
-13.0971 0.441133
-12.9971 0.547556
-12.8971 0.8738530000000001
-12.7971 0.959517
-12.6971 1.170462
-12.5971 1.4999900000000002
-12.4971 1.854575
-12.3971 1.817454
-12.2971 2.00736
-12.1971 2.1500280000000003
-12.0971 1.7743309999999999
-11.9971 1.7497399999999999
-11.8971 1.7001530000000002
-11.7971 1.682499
-11.6971 1.311511
-11.5971 1.183862
-11.4971 1.028829
-11.3971 0.7632560000000002
-11.2971 0.758965
-11.1971 0.75724
-11.0971 0.5557270000000001
-10.9971 0.794161
-10.8971 0.7368569999999999
-10.7971 1.03322
-10.6971 1.287408
-10.5971 1.540196
-10.4971 1.761177
-10.3971 2.0425989999999996
-10.2971 2.3259630000000002
-10.1971 2.329686
-10.0971 2.4967110000000003
-9.99713 2.652006
-9.89713 2.750911
-9.79713 3.0603670000000003
-9.69713 2.9582689999999996
-9.59713 3.243532
-9.49713 3.294781
-9.39713 3.0878459999999994
-9.29713 3.132879
-9.19713 2.882684
-9.09713 2.7708269999999997
-8.99713 2.3916260000000005
-8.89713 1.95847
-8.79713 1.8473149999999998
-8.69713 1.477885
-8.59713 1.362199
-8.49713 1.1686
-8.39713 0.91445
-8.29713 0.7844150000000001
-8.19713 1.016085
-8.09713 0.883247
-7.99713 1.0184939999999998
-7.89713 1.4075919999999997
-7.79713 1.472534
-7.69713 1.875022
-7.59713 2.146468
-7.49713 2.567351
-7.39713 3.173263
-7.29713 3.1005860000000003
-7.19713 3.275669
-7.09713 3.5167209999999995
-6.99713 3.829452
-6.89713 4.048148
-6.79713 3.968279
-6.69713 4.302946
-6.59713 4.614145
-6.49713 4.19377
-6.39713 4.599638999999999
-6.29713 4.342293000000001
-6.19713 4.480586000000001
-6.09713 4.1506479999999994
-5.99713 4.238225
-5.89713 4.005576
-5.79713 4.0683419999999995
-5.69713 4.279585
-5.59713 4.400684000000001
-5.49713 4.251305000000001
-5.39713 4.61514
-5.29713 4.831551
-5.19713 4.953423
-5.09713 5.234807
-4.99713 5.331159999999999
-4.89713 5.752476
-4.79713 5.568039
-4.69713 5.770389999999999
-4.59713 5.637945
-4.49713 5.734851
-4.39713 5.671745
-4.29713 5.785077
-4.19713 5.629354999999999
-4.09713 5.814686
-3.99713 5.409622
-3.89713 5.670691000000001
-3.79713 5.408772
-3.69713 5.245429
-3.59713 5.506676000000001
-3.49713 5.502149
-3.39713 5.757693
-3.29713 5.436406999999999
-3.19713 5.374481
-3.09713 5.430795
-2.99713 5.338966999999999
-2.89713 5.133
-2.79713 4.974603
-2.69713 5.077006999999999
-2.59713 4.888727
-2.49713 4.92473
-2.39713 4.829388
-2.29713 4.425953
-2.19713 4.250274
-2.09713 4.428697
-1.99713 4.45594
-1.89713 4.761721
-1.79713 4.917846000000001
-1.69713 5.298594
-1.59713 5.489214
-1.49713 5.510859000000001
-1.39713 5.932732000000001
-1.29713 5.8194859999999995
-1.19713 5.960657000000001
-1.09713 6.034226
-0.997128 5.673754
-0.897128 5.321493
-0.797128 4.804670000000001
-0.697128 4.261979999999999
-0.597128 3.8831360000000004
-0.497128 3.192062
-0.397128 2.8063990000000003
-0.297128 2.0480899999999997
-0.197128 1.8613709999999999
-0.097128 1.3672279999999999
0.002872 1.081573
0.102872 0.81808
0.202872 0.569082
0.302872 0.27067499999999994
0.402872 0.208268
0.502872 0.135521
0.602872 0.09012300000000001
0.702872 0.044381000000000004
0.802872 0.009046000000000002
0.902872 0.01851
1.00287 0.02835
1.10287 0.036500000000000005
1.20287 0.0
1.30287 0.0
1.40287 0.0
1.50287 0.0
1.60287 0.0
1.70287 0.0
1.80287 0.0
1.90287 0.0
2.00287 0.0
2.10287 0.0
2.20287 0.0
2.30287 0.0
2.40287 0.0
2.50287 0.0
2.60287 0.0
2.70287 0.0
2.80287 0.0
2.90287 0.0
3.00287 0.0
3.10287 0.0
3.20287 0.0
3.30287 0.0
3.40287 0.0
3.50287 0.0
3.60287 0.0
3.70287 0.0
3.80287 0.0
3.90287 0.0
4.00287 0.0
4.10287 0.0
4.20287 0.009079
4.30287 0.0
4.40287 0.0
4.50287 0.0
4.60287 0.0
4.70287 0.008752000000000001
4.80287 0.009101999999999999
4.90287 0.017357
5.00287 0.008805000000000002
5.10287 0.03519800000000001
5.20287 0.051014
5.30287 0.016444999999999998
5.40287 0.051785
5.50287 0.10839399999999999
5.60287 0.14294800000000002
5.70287 0.122878
5.80287 0.136127
5.90287 0.174253
6.00287 0.366355
6.10287 0.374824
6.20287 0.5664359999999999
6.30287 0.71132
6.40287 0.858511
6.50287 1.0687459999999998
6.60287 1.212187
6.70287 1.5188840000000001
6.80287 1.740426
6.90287 1.758162
7.00287 1.973446
7.10287 2.210209
7.20287 2.2487330000000005
7.30287 2.390507
7.40287 2.097869
7.50287 2.300934
7.60287 2.124499
7.70287 2.05544
7.80287 1.89968
7.90287 1.855063
8.00287 1.978607
8.10287 1.7394989999999997
8.20287 1.538437
8.30287 1.5809980000000003
8.40287 1.5086880000000003
8.50287 1.410433
8.60287 1.363856
8.70287 1.3185740000000001
8.80287 1.217335
8.90287 1.207776
9.00287 1.184442
9.10287 1.161615
9.20287 1.3287000000000002
9.30287 1.3168729999999997
9.40287 1.3859929999999998
9.50287 1.500944
9.60287 1.4796370000000003
9.70287 1.630525
9.80287 1.73093
9.90287 1.777806
10.0029 1.8368499999999999
10.1029 1.942578
10.2029 2.011047
10.3029 2.081513
10.4029 2.1398659999999996
10.5029 2.144506
10.6029 2.1608870000000002
10.7029 2.22341
10.8029 2.1686720000000004
10.9029 2.1971890000000003
11.0029 2.29233
11.1029 2.300888
11.2029 2.316375
11.3029 2.3078600000000002
11.4029 2.3355040000000002
11.5029 2.458964
11.6029 2.308085
11.7029 2.3986630000000004
11.8029 2.38023
11.9029 2.43748
12.0029 2.5048550000000005
12.1029 2.4095969999999998
12.2029 2.46334
12.3029 2.489602
12.4029 2.4686250000000003
12.5029 2.456769
12.6029 2.518313
12.7029 2.459567
12.8029 2.385111
12.9029 2.360979
13.0029 2.473605
13.1029 2.336926
13.2029 2.3755750000000004
13.3029 2.348444
13.4029 2.2326729999999997
13.5029 2.310368
13.6029 2.154805
13.7029 2.259649
13.8029 2.1615210000000005
13.9029 2.1862690000000002
14.0029 2.1800589999999995
14.1029 2.1058010000000005
14.2029 2.10648
14.3029 2.172078
14.4029 2.1381289999999997
14.5029 2.154908
14.6029 2.0348179999999996
14.7029 2.0839899999999996
14.8029 2.089816
14.9029 2.09088
15.0029 2.0623769999999997
15.1029 2.118846
15.2029 2.0985579999999997
15.3029 2.119923
15.4029 2.114822
15.5029 2.139863
15.6029 2.15471
15.7029 2.126501
15.8029 2.282764
15.9029 2.215939
16.0029 2.329391
16.1029 2.2858
16.2029 2.277891
16.3029 2.433925
16.4029 2.329421
16.5029 2.404891
16.6029 2.382094
16.7029 2.4019850000000003
16.8029 2.4445360000000003
16.9029 2.4417440000000004
17.0029 2.413456
17.1029 2.3739329999999996
17.2029 2.401893
17.3029 2.2903939999999996
17.4029 2.372296
17.5029 2.301984
17.6029 2.339318
17.7029 2.232393
17.8029 2.3455589999999997
17.9029 2.2152849999999997
18.0029 2.328505
18.1029 2.213097
18.2029 2.123505
18.3029 2.190598
18.4029 2.124529
18.5029 2.082401
18.6029 2.0691369999999996
18.7029 2.123363
18.8029 2.130364
18.9029 1.9736449999999999
19.0029 2.116879
19.1029 1.975012
19.2029 2.1013340000000005
19.3029 2.045164
19.4029 1.993076
19.5029 2.108897
19.6029 1.963497
19.7029 2.143117
19.8029 2.045048
19.9029 2.044242
20.0029 2.074922
20.1029 1.9956450000000001
20.2029 2.090132
20.3029 2.046275
20.4029 2.1109929999999997
20.5029 2.051898
20.6029 2.115731
20.7029 2.038117
20.8029 2.037749
20.9029 2.1029709999999997
21.0029 2.043623
21.1029 2.097177
21.2029 2.069435
21.3029 2.0094939999999997
21.4029 1.974744
21.5029 2.0048030000000003
21.6029 2.067985
21.7029 1.9790709999999998
21.8029 2.034413
21.9029 1.96185
22.0029 2.0176730000000003
22.1029 2.022696
22.2029 1.9400199999999999
22.3029 1.969482
22.4029 1.9641770000000003
22.5029 1.9017509999999997
22.6029 1.9019590000000004
22.7029 1.8964720000000002
22.8029 2.004546
22.9029 1.9112799999999999
23.0029 1.948391
23.1029 1.9439370000000002
23.2029 1.951865
23.3029 1.8955219999999997
23.4029 1.9321069999999998
23.5029 1.9372040000000001
23.6029 1.9278819999999999
23.7029 2.010935
23.8029 1.8566159999999998
23.9029 1.9734289999999999
24.0029 1.9776460000000002
24.1029 1.9056950000000001
24.2029 2.054351
24.3029 1.902173
24.4029 2.099151
24.5029 1.9595479999999998
24.6029 2.021196
24.7029 1.971827
24.8029 1.935238
24.9029 2.024941
25.0029 1.9217529999999998
25.1029 2.0193589999999997
25.2029 2.0305190000000004
25.3029 2.1412419999999996
25.4029 1.952748
25.5029 2.110163
25.6029 2.041424
25.7029 2.071725
25.8029 2.0625500000000003
25.9029 2.006793
26.0029 2.148974
26.1029 2.123674
26.2029 2.0486660000000003
26.3029 2.144661
26.4029 2.059037
26.5029 2.101341
26.6029 2.11454
26.7029 2.203839
26.8029 2.084031
26.9029 2.164976
27.0029 2.152203
27.1029 2.103265
27.2029 2.122331
27.3029 2.109326
27.4029 2.161317
27.5029 2.050985
27.6029 2.196153
27.7029 2.122639
27.8029 2.1216169999999996
27.9029 2.138226
28.0029 2.1807849999999998
28.1029 2.1276820000000005
28.2029 2.123348
28.3029 2.16825
28.4029 2.183541
28.5029 2.076618
28.6029 2.086657
28.7029 2.148674
28.8029 2.166744
28.9029 2.17817
29.0029 2.0678400000000003
29.1029 2.191259
29.2029 2.0423070000000005
29.3029 2.2035449999999996
29.4029 2.0928919999999995
29.5029 2.067252
29.6029 2.204571
29.7029 2.104281
29.8029 2.2079159999999995
29.9029 2.113143
30.0029 2.051808
30.1029 2.305183
30.2029 1.9736479999999998
30.3029 2.144375
30.4029 2.050947
30.5029 2.2332259999999997
30.6029 2.0916989999999998
30.7029 2.093261
30.8029 2.062532
30.9029 2.0741899999999998
31.0029 2.057767
31.1029 2.120904
31.2029 2.146944
31.3029 2.0219720000000003
31.4029 2.123605
31.5029 1.9691150000000002
31.6029 2.079682
31.7029 2.146765
31.8029 1.9666219999999999
31.9029 2.0438250000000004
32.0029 1.9878490000000002
32.1029 2.0883
32.2029 2.060473
32.3029 1.995628
32.4029 1.997227
32.5029 1.9988869999999999
32.6029 1.9931690000000002
32.7029 1.961464
32.8029 1.999334
32.9029 2.0273879999999997
33.0029 1.9460140000000001
33.1029 1.980641
33.2029 1.9723160000000002
33.3029 1.8026449999999998
33.4029 2.025141
33.5029 1.937067
33.6029 1.901049
33.7029 1.9113620000000002
33.8029 1.883567
33.9029 1.93899
34.0029 1.9152360000000002
34.1029 1.8639949999999998
34.2029 1.867851
34.3029 1.8875189999999997
34.4029 1.7653059999999998
34.5029 1.9592350000000003
34.6029 1.8103010000000002
34.7029 1.847111
34.8029 1.845426
34.9029 1.8615510000000002
35.0029 1.8241370000000001
35.1029 1.869925
35.2029 1.775574
35.3029 1.855166
35.4029 1.813059
35.5029 1.861131
35.6029 1.946515
35.7029 1.696241
35.8029 1.8341949999999998
35.9029 1.783123
36.0029 1.8671030000000004
36.1029 1.764039
36.2029 1.78289
36.3029 1.7382140000000001
36.4029 1.7858619999999996
36.5029 1.809296
36.6029 1.723485
36.7029 1.8212749999999998
36.8029 1.7343040000000003
36.9029 1.801729
37.0029 1.7281050000000002
37.1029 1.7716349999999998
37.2029 1.720209
37.3029 1.7837749999999999
37.4029 1.735886
37.5029 1.727753
37.6029 1.765116
37.7029 1.726754
37.8029 1.649919
37.9029 1.7296420000000001
38.0029 1.7922319999999998
38.1029 1.677741
38.2029 1.770834
38.3029 1.7280110000000002
38.4029 1.7218170000000002
38.5029 1.6341970000000001
38.6029 1.7159219999999997
38.7029 1.7147670000000002
38.8029 1.6986289999999997
38.9029 1.697924
39.0029 1.6931139999999998
39.1029 1.63446
39.2029 1.6595870000000001
39.3029 1.683193
39.4029 1.708049
39.5029 1.646797
39.6029 1.618659
39.7029 1.647351
39.8029 1.643693
39.9029 1.62658
40.0029 1.60924
40.1029 1.6208680000000002
40.2029 1.6649239999999996
40.3029 1.596117
40.4029 1.6434520000000001
40.5029 1.588828
40.6029 1.5937860000000001
40.7029 1.5913100000000002
40.8029 1.5804090000000002
40.9029 1.564705
41.0029 1.537165
41.1029 1.5744990000000003
41.2029 1.5400559999999999
41.3029 1.5225739999999999
41.4029 1.495267
41.5029 1.5201980000000002
41.6029 1.5390530000000002
41.7029 1.4874500000000004
41.8029 1.5054850000000002
41.9029 1.4112609999999999
42.0029 1.460868
42.1029 1.468869
42.2029 1.432958
42.3029 1.4983310000000003
42.4029 1.499336
42.5029 1.387463
42.6029 1.3938779999999997
42.7029 1.402314
42.8029 1.399935
42.9029 1.3981929999999998
43.0029 1.478887
43.1029 1.355362
43.2029 1.347215
43.3029 1.3731170000000001
43.4029 1.3775649999999997
43.5029 1.3385449999999999
43.6029 1.3284740000000002
43.7029 1.2970460000000001
43.8029 1.3146179999999998
43.9029 1.3588079999999998
44.0029 1.291304
44.1029 1.3008639999999998
44.2029 1.3049829999999998
44.3029 1.289511
44.4029 1.271657
44.5029 1.282586
44.6029 1.281505
44.7029 1.283126
44.8029 1.2019099999999998
44.9029 1.2979729999999998
45.0029 1.2763399999999998
45.1029 1.2199220000000002
45.2029 1.2451229999999998
45.3029 1.213466
45.4029 1.284342
45.5029 1.249811
45.6029 1.2223469999999999
45.7029 1.251046
45.8029 1.2729899999999998
45.9029 1.187556
46.0029 1.1977309999999999
46.1029 1.249299
46.2029 1.203523
46.3029 1.2877109999999998
46.4029 1.1665709999999998
46.5029 1.2332079999999999
46.6029 1.20621
46.7029 1.21968
46.8029 1.2115319999999998
46.9029 1.202531
47.0029 1.161382
47.1029 1.2409240000000001
47.2029 1.196193
47.3029 1.1761220000000001
47.4029 1.207527
47.5029 1.1833870000000002
47.6029 1.157388
47.7029 1.238589
47.8029 1.1741920000000001
47.9029 1.183824
48.0029 1.1682139999999999
48.1029 1.25068
48.2029 1.143209
48.3029 1.1746500000000002
48.4029 1.224095
48.5029 1.1643199999999998
48.6029 1.160712
48.7029 1.2111679999999998
48.8029 1.1974779999999998
48.9029 1.1659089999999999
49.0029 1.2181129999999998
49.1029 1.1705280000000002
49.2029 1.1874759999999998
49.3029 1.1670800000000001
49.4029 1.174931
49.5029 1.1765060000000003
49.6029 1.151195
49.7029 1.1874299999999998
49.8029 1.1638140000000001
49.9029 1.1540920000000001
50.0029 1.195196
50.1029 1.1735700000000002
50.2029 1.1241759999999998
50.3029 1.200516
50.4029 1.1403400000000001
50.5029 1.142463
50.6029 1.1795170000000001
50.7029 1.1867889999999999
50.8029 1.1532879999999999
50.9029 1.1456340000000003
51.0029 1.155715
51.1029 1.1793909999999999
51.2029 1.1997609999999999
51.3029 1.15713
51.4029 1.168398
51.5029 1.147549
51.6029 1.153504
51.7029 1.185276
51.8029 1.162282
51.9029 1.185092
52.0029 1.155761
52.1029 1.1442539999999999
52.2029 1.199255
52.3029 1.206099
52.4029 1.18994
52.5029 1.173848
52.6029 1.176131
52.7029 1.1751620000000003
52.8029 1.238389
52.9029 1.1857099999999998
53.0029 1.1980069999999998
53.1029 1.1885309999999998
53.2029 1.230902
53.3029 1.1652379999999998
53.4029 1.207447
53.5029 1.1718270000000002
53.6029 1.2260109999999997
53.7029 1.1950889999999998
53.8029 1.2601349999999998
53.9029 1.162104
54.0029 1.194047
54.1029 1.2248679999999998
54.2029 1.17644
54.3029 1.269724
54.4029 1.131592
54.5029 1.184393
54.6029 1.2003380000000001
54.7029 1.188286
54.8029 1.217223
54.9029 1.140947
55.0029 1.2495169999999998
55.1029 1.1413870000000002
55.2029 1.17782
55.3029 1.189822
55.4029 1.180382
55.5029 1.1892060000000002
55.6029 1.1892639999999999
55.7029 1.177649
55.8029 1.172879
55.9029 1.216059
56.0029 1.163305
56.1029 1.218994
56.2029 1.1869839999999998
56.3029 1.162435
56.4029 1.162206
56.5029 1.1945629999999998
56.6029 1.1466329999999998
56.7029 1.201182
56.8029 1.1858549999999997
56.9029 1.183948
57.0029 1.145726
57.1029 1.187607
57.2029 1.275277
57.3029 1.15406
57.4029 1.240556
57.5029 1.228651
57.6029 1.2196369999999999
57.7029 1.158698
57.8029 1.24638
57.9029 1.19191
58.0029 1.2307
58.1029 1.280665
58.2029 1.2409280000000003
58.3029 1.245495
58.4029 1.2191900000000002
58.5029 1.287488
58.6029 1.2667030000000001
58.7029 1.2469
58.8029 1.250708
58.9029 1.286826
59.0029 1.3019290000000001
59.1029 1.2386329999999999
59.2029 1.269863
59.3029 1.368474
59.4029 1.245763
59.5029 1.3125360000000001
59.6029 1.3454850000000003
59.7029 1.330052
59.8029 1.3075499999999998
59.9029 1.3660480000000002
60.0029 1.296381
60.1029 1.303779
60.2029 1.3634959999999998
60.3029 1.376684
60.4029 1.313097
60.5029 1.3196599999999998
60.6029 1.398228
60.7029 1.34961
60.8029 1.4055539999999997
60.9029 1.337724
61.0029 1.389068
61.1029 1.322326
61.2029 1.398979
61.3029 1.380909
61.4029 1.327229
61.5029 1.3680790000000003
61.6029 1.3588350000000002
61.7029 1.3509490000000002
61.8029 1.3855259999999998
61.9029 1.4083809999999999
62.0029 1.354361
62.1029 1.4160299999999997
62.2029 1.405097
62.3029 1.379479
62.4029 1.393201
62.5029 1.419435
62.6029 1.454234
62.7029 1.373039
62.8029 1.3843200000000002
62.9029 1.456893
63.0029 1.3416309999999998
63.1029 1.465656
63.2029 1.4049759999999998
63.3029 1.41688
63.4029 1.482319
63.5029 1.4268699999999999
63.6029 1.457184
63.7029 1.4560199999999999
63.8029 1.4796699999999998
63.9029 1.443969
64.0029 1.449455
64.1029 1.4774600000000002
64.2029 1.4746880000000002
64.3029 1.453346
64.4029 1.5365749999999998
64.5029 1.4618170000000001
64.6029 1.484232
64.7029 1.4683849999999998
64.8029 1.472624
64.9029 1.531066
65.0029 1.4882870000000001
65.1029 1.423568
65.2029 1.561855
65.3029 1.4093930000000001
65.4029 1.4231019999999999
65.5029 1.472796
65.6029 1.3867139999999998
65.7029 1.4974129999999997
65.8029 1.361109
65.9029 1.373584
66.0029 1.498598
66.1029 1.3961720000000002
66.2029 1.3399660000000002
66.3029 1.4246619999999999
66.4029 1.376201
66.5029 1.3588840000000002
66.6029 1.346607
66.7029 1.3580070000000002
66.8029 1.374496
66.9029 1.33589
67.0029 1.3318789999999998
67.1029 1.3657439999999998
67.2029 1.238267
67.3029 1.326323
67.4029 1.314329
67.5029 1.2538360000000002
67.6029 1.3023470000000001
67.7029 1.2464110000000002
67.8029 1.3014040000000002
67.9029 1.234678
68.0029 1.2563320000000002
68.1029 1.226397
68.2029 1.22691
68.3029 1.171133
68.4029 1.165798
68.5029 1.1794460000000002
68.6029 1.1292080000000002
68.7029 1.196201
68.8029 1.081651
68.9029 1.0878050000000001
69.0029 1.1543879999999997
69.1029 1.052066
69.2029 1.096888
69.3029 1.092999
69.4029 1.063726
69.5029 1.013864
69.6029 1.021004
69.7029 1.0311000000000001
69.8029 1.06569
69.9029 1.0080069999999999
70.0029 1.0211720000000002
70.1029 0.978967
70.2029 0.96442
70.3029 0.946824
70.4029 0.9552239999999999
70.5029 0.9963270000000001
70.6029 0.9222699999999999
70.7029 0.986387
70.8029 0.9403079999999999
70.9029 0.9873259999999998
71.0029 0.949189
71.1029 0.924817
71.2029 0.95326
71.3029 0.991985
71.4029 0.93098
71.5029 0.9150760000000001
71.6029 0.910983
71.7029 0.93846
71.8029 0.953299
71.9029 0.92567
72.0029 0.9123349999999999
72.1029 0.9132279999999999
72.2029 0.914177
72.3029 0.8916729999999999
72.4029 0.9184350000000001
72.5029 0.876266
72.6029 0.8945829999999999
72.7029 0.890557
72.8029 0.86589
72.9029 0.871224
73.0029 0.8565140000000001
73.1029 0.856374
73.2029 0.8090629999999999
73.3029 0.847088
73.4029 0.8662299999999999
73.5029 0.830874
73.6029 0.8537050000000002
73.7029 0.7822950000000001
73.8029 0.7833829999999999
73.9029 0.783246
74.0029 0.761703
74.1029 0.777824
74.2029 0.7480100000000002
74.3029 0.6912670000000001
74.4029 0.744125
74.5029 0.714935
74.6029 0.68238
74.7029 0.72853
74.8029 0.700388
74.9029 0.666918
75.0029 0.6888829999999999
75.1029 0.6835070000000001
75.2029 0.628467
75.3029 0.6642920000000001
75.4029 0.641759
75.5029 0.6043
75.6029 0.6177509999999999
75.7029 0.622879
75.8029 0.591388
75.9029 0.5704819999999999
76.0029 0.5641999999999999
76.1029 0.595251
76.2029 0.540028
76.3029 0.559953
76.4029 0.569469
76.5029 0.509341
76.6029 0.517057
76.7029 0.5278479999999999
76.8029 0.49920500000000007
76.9029 0.5710270000000001
77.0029 0.5095339999999999
77.1029 0.5223239999999999
77.2029 0.531973
77.3029 0.51297
77.4029 0.5121249999999999
77.5029 0.53736
77.6029 0.50913
77.7029 0.534412
77.8029 0.56987
77.9029 0.5137180000000001
78.0029 0.534537
78.1029 0.512207
78.2029 0.5459499999999999
78.3029 0.53697
78.4029 0.541112
78.5029 0.5059190000000001
78.6029 0.549548
78.7029 0.548006
78.8029 0.5532900000000001
78.9029 0.568099
79.0029 0.570197
79.1029 0.547543
79.2029 0.5494330000000001
79.3029 0.582766
79.4029 0.5383400000000002
79.5029 0.5857800000000001
79.6029 0.5340029999999999
79.7029 0.569937
79.8029 0.5350579999999999
79.9029 0.543312
80.0029 0.5503589999999999
80.1029 0.5533220000000001
80.2029 0.529447
80.3029 0.5099319999999999
80.4029 0.530002
80.5029 0.524609
80.6029 0.51227
80.7029 0.533066
80.8029 0.49017
80.9029 0.480191
81.0029 0.485464
81.1029 0.450783
81.2029 0.422865
81.3029 0.445482
81.4029 0.45054299999999997
81.5029 0.39271
81.6029 0.435775
81.7029 0.38447400000000004
81.8029 0.40345299999999995
81.9029 0.389642
82.0029 0.379903
82.1029 0.35948700000000006
82.2029 0.314853
82.3029 0.35601299999999997
82.4029 0.29143299999999994
82.5029 0.37271899999999997
82.6029 0.299026
82.7029 0.310509
82.8029 0.326293
82.9029 0.24958300000000003
83.0029 0.28721399999999997
83.1029 0.275745
83.2029 0.228212
83.3029 0.300934
83.4029 0.280039
83.5029 0.247758
83.6029 0.24952999999999997
83.7029 0.247604
83.8029 0.272452
83.9029 0.19798300000000002
84.0029 0.216032
84.1029 0.23813399999999998
84.2029 0.20783600000000002
84.3029 0.23058
84.4029 0.229943
84.5029 0.273279
84.6029 0.23217500000000002
84.7029 0.228202
84.8029 0.24930100000000002
84.9029 0.231166
85.0029 0.299529
85.1029 0.228417
85.2029 0.32402899999999996
85.3029 0.273605
85.4029 0.32729400000000003
85.5029 0.319588
85.6029 0.277441
85.7029 0.28387700000000005
85.8029 0.383258
85.9029 0.391267
86.0029 0.345889
86.1029 0.348557
86.2029 0.39339199999999996
86.3029 0.355165
86.4029 0.34429399999999993
86.5029 0.42979599999999996
86.6029 0.34382999999999997
86.7029 0.397696
86.8029 0.403506
86.9029 0.359139
87.0029 0.39055700000000004
87.1029 0.37329999999999997
87.2029 0.39785099999999995
87.3029 0.35760000000000003
87.4029 0.348477
87.5029 0.360174
87.6029 0.362887
87.7029 0.3166610000000001
87.8029 0.364464
87.9029 0.35009599999999996
88.0029 0.3281840000000001
88.1029 0.32866000000000006
88.2029 0.274375
88.3029 0.29158399999999995
88.4029 0.28225100000000003
88.5029 0.27140900000000007
88.6029 0.281575
88.7029 0.265535
88.8029 0.228074
88.9029 0.28617099999999995
89.0029 0.29364100000000004
89.1029 0.23978000000000002
89.2029 0.218441
89.3029 0.24710300000000004
89.4029 0.245491
89.5029 0.240574
89.6029 0.196256
89.7029 0.242434
89.8029 0.24650000000000002
89.9029 0.234083
90.0029 0.250471
90.1029 0.20590500000000003
90.2029 0.21768099999999999
90.3029 0.23344
90.4029 0.22775700000000001
90.5029 0.258638
90.6029 0.233207
90.7029 0.23510699999999998
90.8029 0.23556700000000003
90.9029 0.255595
91.0029 0.244309
91.1029 0.23823999999999998
91.2029 0.28872499999999995
91.3029 0.229601
91.4029 0.239509
91.5029 0.246218
91.6029 0.2671860000000001
91.7029 0.22127299999999997
91.8029 0.245957
91.9029 0.18908399999999997
92.0029 0.22764199999999998
92.1029 0.193003
92.2029 0.20167299999999996
92.3029 0.24674
92.4029 0.21611000000000002
92.5029 0.168752
92.6029 0.147051
92.7029 0.12964900000000001
92.8029 0.15387800000000001
92.9029 0.16297899999999998
93.0029 0.15193199999999998
93.1029 0.142281
93.2029 0.14179799999999995
93.3029 0.138908
93.4029 0.126657
93.5029 0.12223300000000001
93.6029 0.108609
93.7029 0.0939
93.8029 0.098709
93.9029 0.048979
94.0029 0.076408
94.1029 0.05599
94.2029 0.07213
94.3029 0.07597600000000002
94.4029 0.04243700000000001
94.5029 0.051571000000000006
94.6029 0.028977
94.7029 0.039987
94.8029 0.048732
94.9029 0.023891
95.0029 0.009761999999999998
95.1029 0.013326999999999999
95.2029 0.045467
95.3029 0.038418
95.4029 0.024637000000000003
95.5029 0.033338
95.6029 0.020175000000000002
95.7029 0.00527
95.8029 0.014856999999999999
95.9029 0.015142
96.0029 0.0061340000000000006
96.1029 0.017051999999999998
96.2029 0.011433
96.3029 0.034476
96.4029 0.019219999999999998
96.5029 0.034012
96.6029 0.008282000000000001
96.7029 0.012825
96.8029 0.015536000000000001
96.9029 0.014899
97.0029 0.0
97.1029 0.012739999999999998
97.2029 0.026791
97.3029 0.005352
97.4029 0.016266999999999997
97.5029 0.008754000000000001
97.6029 0.015919000000000003
97.7029 0.020205
97.8029 0.008105
97.9029 0.020912999999999998
98.0029 0.015593
98.1029 0.018151999999999998
98.2029 0.0
98.3029 0.039235
98.4029 0.0
98.5029 0.019444999999999997
98.6029 0.0
98.7029 0.04512700000000001
98.8029 0.023655
98.9029 0.024022
99.0029 0.028949000000000003
99.1029 0.007663
99.2029 0.007861
99.3029 0.034336000000000005
99.4029 0.011337999999999999
99.5029 0.0
99.6029 0.033419
99.7029 0.03585
99.8029 0.035568999999999996
99.9029 0.02175
100.003 0.05105899999999999
100.103 0.059523000000000006
100.203 0.047361
100.303 0.028674
100.403 0.07800800000000001
100.503 0.065509
100.603 0.040983
100.703 0.07414300000000001
100.803 0.06824799999999999
100.903 0.085963
101.003 0.08613499999999999
101.103 0.10387