-46.4951 1.1851969999999998
-46.3951 0.169318
-46.2951 0.219109
-46.1951 0.308707
-46.0951 0.27873499999999996
-45.9951 0.268898
-45.8951 0.28867
-45.7951 0.258797
-45.6951 0.248913
-45.5951 0.199162
-45.4951 0.099478
-45.3951 0.12941
-45.2951 0.099493
-45.1951 0.069674
-45.0951 0.07964299999999999
-44.9951 0.019888
-44.8951 0.03978
-44.7951 0.0199
-44.6951 0.0
-44.5951 0.0
-44.4951 0.0
-44.3951 0.0
-44.2951 0.0
-44.1951 0.0
-44.0951 0.0
-43.9951 0.0
-43.8951 0.0
-43.7951 0.0
-43.6951 0.0
-43.5951 0.0
-43.4951 0.0
-43.3951 0.0
-43.2951 0.0
-43.1951 0.0
-43.0951 0.0
-42.9951 0.0
-42.8951 0.0
-42.7951 0.0
-42.6951 0.0
-42.5951 0.0
-42.4951 0.0
-42.3951 0.0
-42.2951 0.0
-42.1951 0.0
-42.0951 0.0
-41.9951 0.0
-41.8951 0.0
-41.7951 0.0
-41.6951 0.0
-41.5951 0.0
-41.4951 0.0
-41.3951 0.0
-41.2951 0.0
-41.1951 0.0
-41.0951 0.0
-40.9951 0.0
-40.8951 0.0
-40.7951 0.0
-40.6951 0.0
-40.5951 0.0
-40.4951 0.0
-40.3951 0.0
-40.2951 0.0
-40.1951 0.0
-40.0951 0.0
-39.9951 0.0
-39.8951 0.0
-39.7951 0.0
-39.6951 0.0
-39.5951 0.0
-39.4951 0.0
-39.3951 0.0
-39.2951 0.0
-39.1951 0.0
-39.0951 0.0
-38.9951 0.0
-38.8951 0.0
-38.7951 0.0
-38.6951 0.0
-38.5951 0.0
-38.4951 0.0
-38.3951 0.0
-38.2951 0.0
-38.1951 0.0
-38.0951 0.0
-37.9951 0.0
-37.8951 0.0
-37.7951 0.0
-37.6951 0.0
-37.5951 0.0
-37.4951 0.0
-37.3951 0.0
-37.2951 0.0
-37.1951 0.0
-37.0951 0.0
-36.9951 0.0
-36.8951 0.0
-36.7951 0.0
-36.6951 0.0
-36.5951 0.0
-36.4951 0.0
-36.3951 0.0
-36.2951 0.0
-36.1951 0.0
-36.0951 0.0
-35.9951 0.0
-35.8951 0.0
-35.7951 0.0
-35.6951 0.0
-35.5951 0.0
-35.4951 0.0
-35.3951 0.0
-35.2951 0.0
-35.1951 0.0
-35.0951 0.0
-34.9951 0.0
-34.8951 0.0
-34.7951 0.0
-34.6951 0.0
-34.5951 0.0
-34.4951 0.0
-34.3951 0.0
-34.2951 0.0
-34.1951 0.0
-34.0951 0.0
-33.9951 0.0
-33.8951 0.0
-33.7951 0.0
-33.6951 0.0
-33.5951 0.0
-33.4951 0.0
-33.3951 0.0
-33.2951 0.0
-33.1951 0.0
-33.0951 0.0
-32.9951 0.0
-32.8951 0.0
-32.7951 0.0
-32.6951 0.0
-32.5951 0.0
-32.4951 0.0
-32.3951 0.0
-32.2951 0.0
-32.1951 0.0
-32.0951 0.0
-31.9951 0.0
-31.8951 0.0
-31.7951 0.0
-31.6951 0.0
-31.5951 0.0
-31.4951 0.0
-31.3951 0.0
-31.2951 0.0
-31.1951 0.0
-31.0951 0.019103000000000002
-30.9951 0.0
-30.8951 0.009608
-30.7951 0.028975
-30.6951 0.019232
-30.5951 0.06731999999999999
-30.4951 0.086396
-30.3951 0.124964
-30.2951 0.25045100000000003
-30.1951 0.25055099999999997
-30.0951 0.221577
-29.9951 0.327096
-29.8951 0.37566599999999994
-29.7951 0.57756
-29.6951 0.47162899999999996
-29.5951 0.452326
-29.4951 0.30797900000000006
-29.3951 0.41440099999999996
-29.2951 0.23100500000000002
-29.1951 0.30837299999999995
-29.0951 0.288998
-28.9951 0.163824
-28.8951 0.143991
-28.7951 0.096652
-28.6951 0.173164
-28.5951 0.132892
-28.4951 0.197741
-28.3951 0.21392899999999998
-28.2951 0.13795200000000002
-28.1951 0.16416099999999997
-28.0951 0.392499
-27.9951 0.408839
-27.8951 0.507668
-27.7951 0.473074
-27.6951 0.507697
-27.5951 0.706214
-27.4951 0.479435
-27.3951 0.741731
-27.2951 0.7238089999999999
-27.1951 0.7057780000000001
-27.0951 0.58756
-26.9951 0.6326350000000001
-26.8951 0.515721
-26.7951 0.48717299999999997
-26.6951 0.424377
-26.5951 0.46954
-26.4951 0.270953
-26.3951 0.271127
-26.2951 0.243882
-26.1951 0.207315
-26.0951 0.180819
-25.9951 0.161949
-25.8951 0.161113
-25.7951 0.17962999999999998
-25.6951 0.242182
-25.5951 0.250317
-25.4951 0.41193199999999996
-25.3951 0.47351000000000004
-25.2951 0.6969430000000001
-25.1951 0.6083770000000001
-25.0951 1.091561
-24.9951 1.028422
-24.8951 1.261419
-24.7951 1.493988
-24.6951 1.547745
-24.5951 1.942633
-24.4951 1.711821
-24.3951 1.711657
-24.2951 1.237219
-24.1951 1.641953
-24.0951 1.35665
-23.9951 1.340639
-23.8951 1.108151
-23.7951 0.923345
-23.6951 0.73524
-23.5951 0.712229
-23.4951 0.659497
-23.3951 0.5772839999999999
-23.2951 0.506153
-23.1951 0.528226
-23.0951 0.46201
-22.9951 0.49046
-22.8951 0.589907
-22.7951 0.541713
-22.6951 0.5149779999999999
-22.5951 0.702516
-22.4951 0.8419779999999999
-22.3951 0.951882
-22.2951 0.971017
-22.1951 1.4185379999999999
-22.0951 1.840308
-21.9951 2.0394550000000002
-21.8951 2.401992
-21.7951 2.6796710000000004
-21.6951 2.752847
-21.5951 3.179567
-21.4951 3.326339
-21.3951 3.003801
-21.2951 3.318151
-21.1951 2.93597
-21.0951 2.854809
-20.9951 2.564193
-20.8951 2.18888
-20.7951 2.015642
-20.6951 1.9135440000000001
-20.5951 1.3899750000000002
-20.4951 1.21964
-20.3951 1.077995
-20.2951 0.863043
-20.1951 0.8656550000000001
-20.0951 0.717484
-19.9951 0.47817499999999996
-19.8951 0.349585
-19.7951 0.266057
-19.6951 0.21781099999999998
-19.5951 0.21229699999999999
-19.4951 0.14627800000000002
-19.3951 0.092613
-19.2951 0.07260799999999999
-19.1951 0.037119
-19.0951 0.036969
-18.9951 0.036991
-18.8951 0.027701
-18.7951 0.045663999999999996
-18.6951 0.081964
-18.5951 0.027244
-18.4951 0.045548000000000005
-18.3951 0.06344899999999999
-18.2951 0.054425
-18.1951 0.099675
-18.0951 0.10876899999999999
-17.9951 0.10894999999999999
-17.8951 0.154239
-17.7951 0.16314
-17.6951 0.18155500000000002
-17.5951 0.172742
-17.4951 0.190536
-17.3951 0.18176200000000003
-17.2951 0.20039300000000002
-17.1951 0.154741
-17.0951 0.136458
-16.9951 0.145665
-16.8951 0.08206000000000001
-16.7951 0.091111
-16.6951 0.018257000000000002
-16.5951 0.100456
-16.4951 0.027351999999999998
-16.3951 0.045850999999999996
-16.2951 0.018226
-16.1951 0.062975
-16.0951 0.043396000000000004
-15.9951 0.007913
-15.8951 0.02522
-15.7951 0.104429
-15.6951 0.080371
-15.5951 0.24086600000000002
-15.4951 0.42492800000000003
-15.3951 0.5454570000000001
-15.2951 0.690579
-15.1951 0.7389060000000001
-15.0951 1.0274940000000001
-14.9951 1.374098
-14.8951 1.6635309999999999
-14.7951 1.582956
-14.6951 1.759606
-14.5951 1.735954
-14.4951 1.834554
-14.3951 1.4748480000000002
-14.2951 1.3368250000000002
-14.1951 1.2712800000000002
-14.0951 0.989656
-13.9951 0.821681
-13.8951 0.764719
-13.7951 0.6672750000000001
-13.6951 0.557343
-13.5951 0.5090089999999999
-13.4951 0.5516570000000001
-13.3951 0.5032340000000001
-13.2951 0.493811
-13.1951 0.553374
-13.0951 0.714751
-12.9951 0.576585
-12.8951 0.911227
-12.7951 0.8973059999999999
-12.6951 1.212274
-12.5951 1.263114
-12.4951 1.707012
-12.3951 1.971652
-12.2951 2.076039
-12.1951 2.109518
-12.0951 2.127527
-11.9951 2.3610379999999997
-11.8951 2.019564
-11.7951 1.4968510000000002
-11.6951 1.436632
-11.5951 1.159985
-11.4951 0.963025
-11.3951 0.7192310000000001
-11.2951 0.5456650000000001
-11.1951 0.5466099999999999
-11.0951 0.461434
-10.9951 0.6501480000000001
-10.8951 0.706857
-10.7951 1.0530579999999998
-10.6951 1.213513
-10.5951 1.365702
-10.4951 1.8080429999999998
-10.3951 2.1645719999999997
-10.2951 2.408574
-10.1951 2.875725
-10.0951 2.8553569999999997
-9.99509 3.031327
-9.89509 3.3824419999999997
-9.79509 3.693129
-9.6951 3.516263
-9.5951 4.16575
-9.49509 3.8384709999999997
-9.39509 3.564174
-9.29509 3.493046
-9.1951 3.18436
-9.0951 3.0336459999999996
-8.99509 2.598107
-8.89509 2.355128
-8.79509 1.8381839999999998
-8.6951 1.6341070000000002
-8.5951 1.56946
-8.49509 1.195368
-8.39509 0.7249639999999999
-8.29509 0.8263170000000001
-8.1951 0.8639799999999999
-8.0951 0.984323
-7.9951 1.1184859999999999
-7.8951 1.2177330000000002
-7.79509 1.738048
-7.69509 1.993608
-7.59509 2.277233
-7.4951 2.6593310000000003
-7.3951 3.012083
-7.29509 3.065924
-7.19509 3.583172
-7.09509 3.615275
-6.9951 3.989004
-6.8951 4.237506
-6.79509 4.26956
-6.69509 4.628355
-6.59509 4.645949
-6.4951 4.631779
-6.3951 4.838067000000001
-6.29509 4.811541999999999
-6.19509 4.782648
-6.09509 5.016106
-5.9951 4.845536999999999
-5.8951 4.9198249999999994
-5.79509 5.247783
-5.69509 4.979496
-5.59509 5.207806
-5.4951 5.299835
-5.3951 5.412361
-5.29509 5.2706599999999995
-5.1951 5.833347
-5.09509 5.9458459999999995
-4.9951 6.3080430000000005
-4.8951 6.183911999999999
-4.79509 5.910017000000001
-4.6951 5.908764
-4.59509 5.936603999999999
-4.4951 5.6316690000000005
-4.3951 5.649329000000001
-4.29509 5.639585
-4.1951 5.392874000000001
-4.09509 5.128484
-3.9951 5.1783399999999995
-3.89509 5.053342
-3.79509 5.295118
-3.69509 5.131553
-3.5951 5.083057999999999
-3.4951 5.383649
-3.39509 5.323894
-3.29509 5.0637620000000005
-3.19509 4.91869
-3.0951 5.042093
-2.9951 5.189703
-2.89509 5.183381000000001
-2.79509 5.044951
-2.69509 4.8290169999999994
-2.5951 4.7605
-2.4951 4.738822000000001
-2.39509 4.7145969999999995
-2.29509 4.913525000000001
-2.19509 4.862713
-2.0951 4.809807
-1.9951 5.060752
-1.8951 5.217648
-1.7951 5.259219
-1.6951 5.6205620000000005
-1.59509 6.046331
-1.4951 5.762922
-1.3951 5.979954
-1.2951 6.070338
-1.1951 6.074701
-1.09509 5.946189
-0.995095 5.648975
-0.895095 5.554423
-0.795095 4.884892
-0.695095 4.190979
-0.595095 3.6288020000000003
-0.495095 3.1676640000000003
-0.395095 2.557383
-0.295095 1.9497959999999999
-0.195095 1.765174
-0.095095 1.174844
0.004905 0.7992469999999999
0.104905 0.626615
0.204905 0.399196
0.304905 0.271428
0.404905 0.263376
0.504905 0.145224
0.604905 0.12782900000000003
0.704905 0.05386
0.804905 0.054225999999999996
0.904905 0.045283
1.0049 0.035945000000000005
1.10491 0.026958
1.2049 0.03697
1.3049 0.01831
1.40491 0.0
1.5049 0.009116999999999998
1.6049 0.0
1.7049 0.009233
1.8049 0.0
1.90491 0.0
2.0049 0.0
2.10491 0.0
2.20491 0.0
2.30491 0.0
2.4049 0.0
2.5049 0.0
2.60491 0.0
2.70491 0.0
2.80491 0.0
2.9049 0.0
3.0049 0.0
3.10491 0.0
3.20491 0.0
3.30491 0.0
3.4049 0.0
3.5049 0.0
3.60491 0.0
3.70491 0.0
3.80491 0.0
3.9049 0.0
4.0049 0.0
4.1049 0.0
4.20491 0.018223
4.3049 0.0
4.40491 0.0
4.5049 0.018172
4.6049 0.0
4.70491 0.026023
4.8049 0.008752
4.90491 0.035271000000000004
5.0049 0.017240000000000002
5.1049 0.086946
5.20491 0.086733
5.3049 0.151648
5.40491 0.142223
5.5049 0.101539
5.6049 0.285288
5.70491 0.234876
5.80491 0.272739
5.90491 0.39299
6.0049 0.321724
6.1049 0.483886
6.20491 0.535669
6.30491 0.786634
6.40491 0.9512729999999999
6.5049 1.231985
6.6049 1.306792
6.70491 1.503871
6.80491 1.7619669999999998
6.90491 2.0524240000000002
7.0049 2.118395
7.1049 2.377174
7.20491 2.366777
7.30491 2.640079
7.40491 2.6760469999999996
7.5049 2.4517160000000002
7.6049 2.416759
7.70491 2.4888160000000004
7.80491 2.0981270000000003
7.90491 2.077742
8.00491 2.052947
8.10491 1.809649
8.20491 1.848161
8.3049 1.8042129999999998
8.4049 1.719706
8.50491 1.573238
8.60491 1.499266
8.70491 1.360227
8.8049 1.305008
8.9049 1.413437
9.00491 1.3493030000000001
9.10491 1.33368
9.20491 1.378537
9.3049 1.4376730000000002
9.4049 1.4603699999999997
9.50491 1.4960060000000002
9.60491 1.553533
9.70491 1.699724
9.8049 1.721813
9.9049 1.835596
10.0049 1.920429
10.1049 2.057519
10.2049 2.153888
10.3049 2.0992539999999997
10.4049 2.2010769999999997
10.5049 2.328167
10.6049 2.239759
10.7049 2.2767370000000002
10.8049 2.370347
10.9049 2.360421
11.0049 2.318167
11.1049 2.375736
11.2049 2.423995
11.3049 2.4472400000000003
11.4049 2.433451
11.5049 2.486565
11.6049 2.6005480000000003
11.7049 2.5231330000000005
11.8049 2.5541310000000004
11.9049 2.550455
12.0049 2.615728
12.1049 2.552448
12.2049 2.649936
12.3049 2.595863
12.4049 2.6137699999999997
12.5049 2.490849
12.6049 2.563577
12.7049 2.555158
12.8049 2.46755
12.9049 2.448314
13.0049 2.451462
13.1049 2.4523
13.2049 2.41923
13.3049 2.354171
13.4049 2.3556639999999995
13.5049 2.205066
13.6049 2.231377
13.7049 2.1800450000000002
13.8049 2.226959
13.9049 2.041865
14.0049 2.189943
14.1049 2.018835
14.2049 2.088853
14.3049 2.019792
14.4049 2.0611520000000003
14.5049 1.9937209999999999
14.6049 1.984477
14.7049 2.022213
14.8049 2.022717
14.9049 1.9367590000000001
15.0049 1.9858900000000002
15.1049 1.975217
15.2049 1.936463
15.3049 2.051471
15.4049 2.037505
15.5049 2.022897
15.6049 2.049753
15.7049 2.0740209999999997
15.8049 2.0194400000000003
15.9049 2.049821
16.0049 2.163739
16.1049 2.1334709999999997
16.2049 2.2382839999999997
16.3049 2.2502199999999997
16.4049 2.322482
16.5049 2.368063
16.6049 2.418822
16.7049 2.429754
16.8049 2.311603
16.9049 2.559522
17.0049 2.480149
17.1049 2.3955110000000004
17.2049 2.481109
17.3049 2.5104169999999995
17.4049 2.482452
17.5049 2.4948509999999997
17.6049 2.408594
17.7049 2.421953
17.8049 2.33903
17.9049 2.4520670000000004
18.0049 2.257962
18.1049 2.276989
18.2049 2.262387
18.3049 2.2614799999999997
18.4049 2.2559359999999997
18.5049 2.168762
18.6049 2.134766
18.7049 2.176112
18.8049 2.21528
18.9049 2.186179
19.0049 2.1270350000000002
19.1049 2.13687
19.2049 2.051043
19.3049 2.18417
19.4049 2.125618
19.5049 2.170051
19.6049 2.10772
19.7049 2.2459499999999997
19.8049 2.135195
19.9049 2.136143
20.0049 2.138424
20.1049 2.200872
20.2049 2.103553
20.3049 2.202793
20.4049 2.185825
20.5049 2.289178
20.6049 2.196399
20.7049 2.210056
20.8049 2.251334
20.9049 2.189739
21.0049 2.244716
21.1049 2.19912
21.2049 2.193638
21.3049 2.22813
21.4049 2.255221
21.5049 2.126305
21.6049 2.215293
21.7049 2.2361050000000002
21.8049 2.1834429999999996
21.9049 2.181864
22.0049 2.215877
22.1049 2.148546
22.2049 2.138311
22.3049 2.1404799999999997
22.4049 2.190563
22.5049 2.080593
22.6049 2.1716889999999998
22.7049 2.161359
22.8049 2.144251
22.9049 2.17633
23.0049 1.9964659999999999
23.1049 2.169157
23.2049 2.1191169999999997
23.3049 2.139895
23.4049 2.054301
23.5049 2.158845
23.6049 2.160492
23.7049 2.1928289999999997
23.8049 2.077366
23.9049 2.063152
24.0049 2.157692
24.1049 2.149047
24.2049 2.0629489999999997
24.3049 2.1707699999999996
24.4049 2.093812
24.5049 2.163769
24.6049 2.242912
24.7049 2.0601830000000003
24.8049 2.24476
24.9049 2.179288
25.0049 2.048325
25.1049 2.2819920000000002
25.2049 2.1513970000000002
25.3049 2.206528
25.4049 2.248573
25.5049 2.123164
25.6049 2.273574
25.7049 2.257502
25.8049 2.2441139999999997
25.9049 2.2606699999999997
26.0049 2.21866
26.1049 2.149831
26.2049 2.271928
26.3049 2.2542489999999997
26.4049 2.261561
26.5049 2.272158
26.6049 2.209569
26.7049 2.306377
26.8049 2.23448
26.9049 2.2238529999999996
27.0049 2.3258929999999998
27.1049 2.156568
27.2049 2.350614
27.3049 2.239645
27.4049 2.314642
27.5049 2.240631
27.6049 2.287003
27.7049 2.2722919999999998
27.8049 2.286127
27.9049 2.240726
28.0049 2.290674
28.1049 2.126904
28.2049 2.3982449999999997
28.3049 2.207604
28.4049 2.1661829999999997
28.5049 2.271631
28.6049 2.2368900000000003
28.7049 2.2091140000000005
28.8049 2.287438
28.9049 2.2469490000000003
29.0049 2.296267
29.1049 2.234264
29.2049 2.247639
29.3049 2.270508
29.4049 2.210949
29.5049 2.2149870000000003
29.6049 2.233593
29.7049 2.26254
29.8049 2.240096
29.9049 2.2293529999999997
30.0049 2.3159639999999997
30.1049 2.192472
30.2049 2.269398
30.3049 2.1456440000000003
30.4049 2.1844799999999998
30.5049 2.250293
30.6049 2.263023
30.7049 2.1248910000000003
30.8049 2.249379
30.9049 2.1607019999999997
31.0049 2.1032859999999998
31.1049 2.2072179999999997
31.2049 2.215201
31.3049 2.1873319999999996
31.4049 2.120131
31.5049 2.2536419999999997
31.6049 2.100414
31.7049 2.206942
31.8049 2.07335
31.9049 2.095646
32.0049 2.143824
32.1049 2.118779
32.2049 2.065324
32.3049 2.131011
32.4049 2.0574790000000003
32.5049 2.075113
32.6049 2.12501
32.7049 2.106266
32.8049 2.054002
32.9049 2.0099959999999997
33.0049 1.986169
33.1049 2.0193440000000002
33.2049 2.095413
33.3049 1.946205
33.4049 2.083999
33.5049 1.975223
33.6049 2.033188
33.7049 1.9940260000000003
33.8049 1.92442
33.9049 1.965417
34.0049 2.0281580000000003
34.1049 1.9257769999999999
34.2049 1.928364
34.3049 1.9604039999999998
34.4049 1.899601
34.5049 1.936519
34.6049 1.9593219999999998
34.7049 1.901704
34.8049 1.91202
34.9049 1.915082
35.0049 1.93268
35.1049 1.818525
35.2049 1.958906
35.3049 1.86494
35.4049 1.932069
35.5049 1.8595030000000001
35.6049 1.8664759999999998
35.7049 1.917323
35.8049 1.817032
35.9049 1.9064210000000001
36.0049 1.848994
36.1049 1.9609889999999999
36.2049 1.8464880000000001
36.3049 1.81862
36.4049 1.912925
36.5049 1.840768
36.6049 1.825504
36.7049 1.829427
36.8049 1.7985240000000002
36.9049 1.908247
37.0049 1.8717819999999998
37.1049 1.8989129999999999
37.2049 1.871118
37.3049 1.8351520000000001
37.4049 1.790353
37.5049 1.825322
37.6049 1.809646
37.7049 1.9086560000000001
37.8049 1.808618
37.9049 1.76627
38.0049 1.7808950000000001
38.1049 1.8672259999999998
38.2049 1.763976
38.3049 1.779745
38.4049 1.7800660000000001
38.5049 1.784506
38.6049 1.7868439999999999
38.7049 1.762591
38.8049 1.822566
38.9049 1.7578120000000002
39.0049 1.779706
39.1049 1.6851399999999999
39.2049 1.7716790000000002
39.3049 1.768532
39.4049 1.7183039999999998
39.5049 1.786051
39.6049 1.6969729999999998
39.7049 1.656637
39.8049 1.7271280000000002
39.9049 1.730974
40.0049 1.656514
40.1049 1.744542
40.2049 1.6710269999999998
40.3049 1.647677
40.4049 1.676626
40.5049 1.6969680000000003
40.6049 1.672153
40.7049 1.6632740000000001
40.8049 1.577108
40.9049 1.577975
41.0049 1.5738599999999998
41.1049 1.6773369999999999
41.2049 1.5384110000000002
41.3049 1.59098
41.4049 1.5127570000000001
41.5049 1.592505
41.6049 1.5473700000000001
41.7049 1.528829
41.8049 1.517524
41.9049 1.548155
42.0049 1.560918
42.1049 1.443611
42.2049 1.49748
42.3049 1.468991
42.4049 1.447901
42.5049 1.445597
42.6049 1.4548910000000002
42.7049 1.449155
42.8049 1.367685
42.9049 1.38354
43.0049 1.4890269999999999
43.1049 1.343499
43.2049 1.3368499999999999
43.3049 1.4192429999999998
43.4049 1.4154300000000002
43.5049 1.2902429999999998
43.6049 1.348487
43.7049 1.3499160000000001
43.8049 1.319848
43.9049 1.323537
44.0049 1.3757309999999998
44.1049 1.299926
44.2049 1.274022
44.3049 1.284529
44.4049 1.320034
44.5049 1.269631
44.6049 1.234945
44.7049 1.295024
44.8049 1.3229689999999998
44.9049 1.212135
45.0049 1.315872
45.1049 1.2652409999999998
45.2049 1.2578
45.3049 1.190395
45.4049 1.3018569999999998
45.5049 1.2882040000000001
45.6049 1.1787370000000001
45.7049 1.258334
45.8049 1.1973559999999999
45.9049 1.2437809999999998
46.0049 1.2225559999999998
46.1049 1.167953
46.2049 1.2306959999999998
46.3049 1.236434
46.4049 1.208032
46.5049 1.1973880000000001
46.6049 1.237883
46.7049 1.169418
46.8049 1.1670639999999999
46.9049 1.161583
47.0049 1.239678
47.1049 1.1807370000000001
47.2049 1.167925
47.3049 1.2000639999999998
47.4049 1.1717830000000002
47.5049 1.1453840000000002
47.6049 1.21945
47.7049 1.13986
47.8049 1.154963
47.9049 1.2153839999999998
48.0049 1.1486319999999999
48.1049 1.122515
48.2049 1.223823
48.3049 1.140719
48.4049 1.0999109999999999
48.5049 1.230686
48.6049 1.106918
48.7049 1.2312170000000002
48.8049 1.10832
48.9049 1.1604679999999998
49.0049 1.143185
49.1049 1.1338800000000002
49.2049 1.151546
49.3049 1.190196
49.4049 1.170145
49.5049 1.122022
49.6049 1.1223519999999998
49.7049 1.1743780000000001
49.8049 1.123753
49.9049 1.170822
50.0049 1.1465940000000001
50.1049 1.1194160000000002
50.2049 1.18052
50.3049 1.113077
50.4049 1.1655710000000001
50.5049 1.1247770000000001
50.6049 1.145509
50.7049 1.15496
50.8049 1.114045
50.9049 1.135135
51.0049 1.135738
51.1049 1.120078
51.2049 1.1198749999999997
51.3049 1.1324370000000001
51.4049 1.1236069999999998
51.5049 1.136479
51.6049 1.133008
51.7049 1.16513
51.8049 1.0861560000000001
51.9049 1.157905
52.0049 1.0872529999999998
52.1049 1.1457789999999999
52.2049 1.15245
52.3049 1.1295810000000002
52.4049 1.174792
52.5049 1.144693
52.6049 1.156331
52.7049 1.1514980000000001
52.8049 1.1667870000000002
52.9049 1.1951629999999998
53.0049 1.174574
53.1049 1.142896
53.2049 1.170898
53.3049 1.168386
53.4049 1.1657890000000002
53.5049 1.217405
53.6049 1.148015
53.7049 1.1465109999999998
53.8049 1.216512
53.9049 1.146494
54.0049 1.189033
54.1049 1.1406809999999998
54.2049 1.180227
54.3049 1.201503
54.4049 1.1679810000000002
54.5049 1.104589
54.6049 1.192871
54.7049 1.162807
54.8049 1.1112909999999998
54.9049 1.1794000000000002
55.0049 1.1812660000000001
55.1049 1.135809
55.2049 1.147448
55.3049 1.1206759999999998
55.4049 1.166025
55.5049 1.0955059999999999
55.6049 1.188522
55.7049 1.058497
55.8049 1.144187
55.9049 1.1272000000000002
56.0049 1.113535
56.1049 1.104214
56.2049 1.122822
56.3049 1.10099
56.4049 1.1359510000000002
56.5049 1.128604
56.6049 1.141952
56.7049 1.168472
56.8049 1.111067
56.9049 1.151162
57.0049 1.092056
57.1049 1.124695
57.2049 1.1829830000000001
57.3049 1.085511
57.4049 1.171053
57.5049 1.150991
57.6049 1.17537
57.7049 1.1924899999999998
57.8049 1.1470040000000001
57.9049 1.150287
58.0049 1.149189
58.1049 1.1391820000000001
58.2049 1.192933
58.3049 1.178862
58.4049 1.1515669999999998
58.5049 1.162448
58.6049 1.220411
58.7049 1.196435
58.8049 1.190817
58.9049 1.2442680000000002
59.0049 1.180399
59.1049 1.2051029999999998
59.2049 1.212589
59.3049 1.23336
59.4049 1.2067809999999999
59.5049 1.241959
59.6049 1.263211
59.7049 1.216956
59.8049 1.29355
59.9049 1.231476
60.0049 1.292481
60.1049 1.2376439999999997
60.2049 1.296942
60.3049 1.288854
60.4049 1.3024820000000001
60.5049 1.290475
60.6049 1.28045
60.7049 1.333918
60.8049 1.285163
60.9049 1.2939910000000001
61.0049 1.32213
61.1049 1.2526249999999999
61.2049 1.3465480000000003
61.3049 1.350058
61.4049 1.289336
61.5049 1.3694229999999998
61.6049 1.222633
61.7049 1.328253
61.8049 1.32145
61.9049 1.320477
62.0049 1.356276
62.1049 1.307922
62.2049 1.3621409999999998
62.3049 1.3109270000000002
62.4049 1.353137
62.5049 1.288596
62.6049 1.265438
62.7049 1.380837
62.8049 1.3696720000000002
62.9049 1.303405
63.0049 1.4095490000000002
63.1049 1.304182
63.2049 1.343459
63.3049 1.3787340000000001
63.4049 1.36305
63.5049 1.4398490000000002
63.6049 1.3559009999999998
63.7049 1.34454
63.8049 1.411308
63.9049 1.408925
64.0049 1.375825
64.1049 1.459602
64.2049 1.379542
64.3049 1.4038629999999999
64.4049 1.45203
64.5049 1.3873099999999998
64.6049 1.4486249999999998
64.7049 1.4838989999999999
64.8049 1.387221
64.9049 1.443952
65.0049 1.44309
65.1049 1.4811649999999998
65.2049 1.398903
65.3049 1.464537
65.4049 1.38633
65.5049 1.45312
65.6049 1.3902029999999999
65.7049 1.446197
65.8049 1.392889
65.9049 1.385771
66.0049 1.407905
66.1049 1.3687569999999998
66.2049 1.402797
66.3049 1.393758
66.4049 1.3926490000000002
66.5049 1.418884
66.6049 1.3267879999999999
66.7049 1.328156
66.8049 1.3677890000000001
66.9049 1.340227
67.0049 1.3639970000000001
67.1049 1.3358379999999999
67.2049 1.271581
67.3049 1.296139
67.4049 1.270974
67.5049 1.2845670000000002
67.6049 1.2485819999999999
67.7049 1.252688
67.8049 1.242783
67.9049 1.279342
68.0049 1.20038
68.1049 1.233028
68.2049 1.1826630000000002
68.3049 1.19964
68.4049 1.12811
68.5049 1.170258
68.6049 1.1149069999999999
68.7049 1.1355169999999999
68.8049 1.093482
68.9049 1.0798999999999999
69.0049 1.1195339999999998
69.1049 1.041945
69.2049 1.065891
69.3049 1.0167769999999998
69.4049 1.037205
69.5049 1.003633
69.6049 1.038067
69.7049 0.9662360000000001
69.8049 0.9655569999999999
69.9049 0.983545
70.0049 1.003175
70.1049 0.9294389999999999
70.2049 0.896432
70.3049 0.9497380000000001
70.4049 0.922036
70.5049 0.983503
70.6049 0.8934599999999999
70.7049 0.894746
70.8049 0.8914580000000001
70.9049 0.9082509999999999
71.0049 0.95899
71.1049 0.8873840000000001
71.2049 0.8393889999999999
71.3049 0.974105
71.4049 0.906922
71.5049 0.855483
71.6049 0.899844
71.7049 0.885566
71.8049 0.8919969999999999
71.9049 0.8605240000000001
72.0049 0.928476
72.1049 0.838936
72.2049 0.908805
72.3049 0.89046
72.4049 0.8221750000000001
72.5049 0.9233830000000001
72.6049 0.8632189999999998
72.7049 0.8627630000000001
72.8049 0.871847
72.9049 0.91173
73.0049 0.852748
73.1049 0.8219549999999999
73.2049 0.7975470000000001
73.3049 0.8471219999999999
73.4049 0.834329
73.5049 0.80451
73.6049 0.800143
73.7049 0.804446
73.8049 0.7414740000000001
73.9049 0.7923450000000001
74.0049 0.7475539999999999
74.1049 0.740847
74.2049 0.746089
74.3049 0.722579
74.4049 0.704411
74.5049 0.69548
74.6049 0.697226
74.7049 0.707638
74.8049 0.6950689999999999
74.9049 0.6532030000000001
75.0049 0.656095
75.1049 0.6976249999999999
75.2049 0.646308
75.3049 0.6302800000000001
75.4049 0.639092
75.5049 0.630906
75.6049 0.636781
75.7049 0.59045
75.8049 0.5486249999999999
75.9049 0.589589
76.0049 0.567033
76.1049 0.568439
76.2049 0.5659139999999999
76.3049 0.581558
76.4049 0.543428
76.5049 0.495628
76.6049 0.5497299999999999
76.7049 0.49430799999999997
76.8049 0.555836
76.9049 0.483475
77.0049 0.515276
77.1049 0.47520599999999996
77.2049 0.52112
77.3049 0.500163
77.4049 0.524894
77.5049 0.5032530000000001
77.6049 0.508606
77.7049 0.48140700000000003
77.8049 0.528784
77.9049 0.535497
78.0049 0.482821
78.1049 0.547537
78.2049 0.522501
78.3049 0.525532
78.4049 0.5342669999999999
78.5049 0.511806
78.6049 0.524891
78.7049 0.519814
78.8049 0.570832
78.9049 0.52568
79.0049 0.572258
79.1049 0.537629
79.2049 0.530717
79.3049 0.578023
79.4049 0.515309
79.5049 0.56428
79.6049 0.521678
79.7049 0.531213
79.8049 0.526282
79.9049 0.524836
80.0049 0.546544
80.1049 0.49313699999999994
80.2049 0.548333
80.3049 0.493167
80.4049 0.5428160000000001
80.5049 0.492872
80.6049 0.491448
80.7049 0.46469799999999994
80.8049 0.49721200000000004
80.9049 0.482869
81.0049 0.465834
81.1049 0.47006799999999993
81.2049 0.454277
81.3049 0.462205
81.4049 0.41439499999999996
81.5049 0.41241700000000003
81.6049 0.41099399999999997
81.7049 0.437199
81.8049 0.41192900000000005
81.9049 0.391068
82.0049 0.3832
82.1049 0.361313
82.2049 0.364036
82.3049 0.381643
82.4049 0.361302
82.5049 0.3492779999999999
82.6049 0.38486899999999996
82.7049 0.285615
82.8049 0.295956
82.9049 0.34127500000000005
83.0049 0.29639899999999997
83.1049 0.290611
83.2049 0.292043
83.3049 0.301773
83.4049 0.253485
83.5049 0.247152
83.6049 0.228652
83.7049 0.290005
83.8049 0.22903600000000002
83.9049 0.229372
84.0049 0.24244100000000002
84.1049 0.271853
84.2049 0.20502099999999998
84.3049 0.257058
84.4049 0.232708
84.5049 0.24033400000000002
84.6049 0.243342
84.7049 0.21120899999999998
84.8049 0.219359
84.9049 0.31883700000000004
85.0049 0.218885
85.1049 0.317405
85.2049 0.29048699999999994
85.3049 0.272434
85.4049 0.25001700000000004
85.5049 0.29504199999999997
85.6049 0.308418
85.7049 0.33496000000000004
85.8049 0.29046700000000003
85.9049 0.309745
86.0049 0.327219
86.1049 0.300253
86.2049 0.34605
86.3049 0.347451
86.4049 0.359695
86.5049 0.33995
86.6049 0.35647999999999996
86.7049 0.39921900000000005
86.8049 0.34907
86.9049 0.3571059999999999
87.0049 0.37574300000000005
87.1049 0.35449500000000006
87.2049 0.399371
87.3049 0.331192
87.4049 0.37324999999999997
87.5049 0.313903
87.6049 0.32245700000000005
87.7049 0.319392
87.8049 0.280263
87.9049 0.355533
88.0049 0.294781
88.1049 0.34183800000000003
88.2049 0.293016
88.3049 0.308061
88.4049 0.22696799999999998
88.5049 0.266848
88.6049 0.272364
88.7049 0.217875
88.8049 0.22699799999999998
88.9049 0.240041
89.0049 0.26968
89.1049 0.21682200000000001
89.2049 0.250925
89.3049 0.21089599999999997
89.4049 0.195051
89.5049 0.21237799999999998
89.6049 0.214944
89.7049 0.182098
89.8049 0.193426
89.9049 0.222127
90.0049 0.218732
90.1049 0.19588200000000003
90.2049 0.191178
90.3049 0.216157
90.4049 0.21493700000000002
90.5049 0.223148
90.6049 0.23159700000000003
90.7049 0.199767
90.8049 0.251638
90.9049 0.226689
91.0049 0.27333799999999997
91.1049 0.242142
91.2049 0.20726899999999998
91.3049 0.213695
91.4049 0.232089
91.5049 0.251097
91.6049 0.24076700000000004
91.7049 0.23738299999999998
91.8049 0.209126
91.9049 0.235067
92.0049 0.21632
92.1049 0.22172799999999998
92.2049 0.19852399999999998
92.3049 0.17837599999999998
92.4049 0.19048700000000002
92.5049 0.168385
92.6049 0.185434
92.7049 0.154563
92.8049 0.133655
92.9049 0.176048
93.0049 0.126145
93.1049 0.139035
93.2049 0.143992
93.3049 0.143927
93.4049 0.10376899999999999
93.5049 0.118713
93.6049 0.13099
93.7049 0.07696
93.8049 0.067445
93.9049 0.06342199999999999
94.0049 0.06617
94.1049 0.04522299999999999
94.2049 0.046463000000000004
94.3049 0.046061000000000005
94.4049 0.035171
94.5049 0.06586900000000001
94.6049 0.036407
94.7049 0.045487
94.8049 0.024232
94.9049 0.020529
95.0049 0.029175999999999997
95.1049 0.022566
95.2049 0.030776
95.3049 0.014431
95.4049 0.027733
95.5049 0.010141
95.6049 0.017583
95.7049 0.00533
95.8049 0.044791
95.9049 0.028006
96.0049 0.045785
96.1049 0.012968
96.2049 0.023107
96.3049 0.021586
96.4049 0.021243
96.5049 0.030324
96.6049 0.027638
96.7049 0.045705
96.8049 0.042566
96.9049 0.007789
97.0049 0.050071000000000004
97.1049 0.030913
97.2049 0.051324
97.3049 0.06254
97.4049 0.031171
97.5049 0.052173000000000004
97.6049 0.053288
97.7049 0.022941
97.8049 0.061691
97.9049 0.015057999999999998
98.0049 0.038186
98.1049 0.023644000000000002
98.2049 0.055376
98.3049 0.046536
98.4049 0.077831
98.5049 0.030583
98.6049 0.052522000000000006
98.7049 0.03922900000000001
98.8049 0.039252999999999996
98.9049 0.039595
99.0049 0.038239
99.1049 0.046742
99.2049 0.054303000000000004
99.3049 0.105946
99.4049 0.031354
99.5049 0.054718
99.6049 0.074869
99.7049 0.053464
99.8049 0.092717
99.9049 0.052433
100.005 0.10148700000000001
100.105 0.029486
100.205 0.08303
100.305 0.04935500000000001
100.405 0.08162
100.505 0.08963700000000001
100.605 0.055019
100.705 0.055882
100.805 0.061617000000000005
100.905 0.058977
101.005 0.101533
101.105 0.090871
101.205 0.06611700000000001
101.305 0.072835
101.405 0.09222200000000001
101.505 0.11114600000000001
101.605 0.104614
101.705 0.12452200000000001
101.805 0.118518
101.905 0.178679
102.005 0.158345
102.105 0.16259
102.205 0.148701
102.305 0.164007
102.405 0.168963
102.505 0.19954000000000002
102.605 0.15155
102.705 0.17768299999999998
102.805 0.150187
102.905 0.217722
103.005 0.183068
103.105 0.26384300000000005
103.205 0.21345000000000003
103.305 0.231953
103.405 0.224939
