-46.7725 1.20441
-46.6725 0.21901199999999998
-46.5725 0.268765
-46.4725 0.25884599999999997
-46.3725 0.328527
-46.2725 0.308684
-46.1725 0.358393
-46.0725 0.388328
-45.9725 0.418129
-45.8725 0.368325
-45.7725 0.288649
-45.6725 0.278591
-45.5725 0.328383
-45.4725 0.208995
-45.3725 0.179089
-45.2725 0.089495
-45.1725 0.099561
-45.0725 0.13927299999999998
-44.9725 0.039777
-44.8725 0.039798
-44.7725 0.099477
-44.6725 0.019895
-44.5725 0.019897
-44.4725 0.009939
-44.3725 0.009951
-44.2725 0.0
-44.1725 0.0
-44.0725 0.0
-43.9725 0.0
-43.8725 0.0
-43.7725 0.0
-43.6725 0.0
-43.5725 0.0
-43.4725 0.0
-43.3725 0.0
-43.2725 0.0
-43.1725 0.0
-43.0725 0.0
-42.9725 0.0
-42.8725 0.0
-42.7725 0.0
-42.6725 0.0
-42.5725 0.0
-42.4725 0.0
-42.3725 0.0
-42.2725 0.0
-42.1725 0.0
-42.0725 0.0
-41.9725 0.0
-41.8725 0.0
-41.7725 0.0
-41.6725 0.0
-41.5725 0.0
-41.4725 0.0
-41.3725 0.0
-41.2725 0.0
-41.1725 0.0
-41.0725 0.0
-40.9725 0.0
-40.8725 0.0
-40.7725 0.0
-40.6725 0.0
-40.5725 0.0
-40.4725 0.0
-40.3725 0.0
-40.2725 0.0
-40.1725 0.0
-40.0725 0.0
-39.9725 0.0
-39.8725 0.0
-39.7725 0.0
-39.6725 0.0
-39.5725 0.0
-39.4725 0.0
-39.3725 0.0
-39.2725 0.0
-39.1725 0.0
-39.0725 0.0
-38.9725 0.0
-38.8725 0.0
-38.7725 0.0
-38.6725 0.0
-38.5725 0.0
-38.4725 0.0
-38.3725 0.0
-38.2725 0.0
-38.1725 0.0
-38.0725 0.0
-37.9725 0.0
-37.8725 0.0
-37.7725 0.0
-37.6725 0.0
-37.5725 0.0
-37.4725 0.0
-37.3725 0.0
-37.2725 0.0
-37.1725 0.0
-37.0725 0.0
-36.9725 0.0
-36.8725 0.0
-36.7725 0.0
-36.6725 0.0
-36.5725 0.0
-36.4725 0.0
-36.3725 0.0
-36.2725 0.0
-36.1725 0.0
-36.0725 0.0
-35.9725 0.0
-35.8725 0.0
-35.7725 0.0
-35.6725 0.0
-35.5725 0.0
-35.4725 0.0
-35.3725 0.0
-35.2725 0.0
-35.1725 0.0
-35.0725 0.0
-34.9725 0.0
-34.8725 0.0
-34.7725 0.0
-34.6725 0.0
-34.5725 0.0
-34.4725 0.0
-34.3725 0.0
-34.2725 0.0
-34.1725 0.0
-34.0725 0.0
-33.9725 0.0
-33.8725 0.0
-33.7725 0.0
-33.6725 0.0
-33.5725 0.0
-33.4725 0.0
-33.3725 0.0
-33.2725 0.0
-33.1725 0.0
-33.0725 0.0
-32.9725 0.0
-32.8725 0.0
-32.7725 0.0
-32.6725 0.0
-32.5725 0.0
-32.4725 0.0
-32.3725 0.0
-32.2725 0.0
-32.1725 0.0
-32.0725 0.0
-31.9725 0.0
-31.8725 0.0
-31.7725 0.0
-31.6725 0.009594
-31.5725 0.0
-31.4725 0.0
-31.3725 0.019123
-31.2725 0.009722
-31.1725 0.038277
-31.0725 0.038511
-30.9725 0.028820000000000005
-30.8725 0.048093
-30.7725 0.06733900000000001
-30.6725 0.11546200000000001
-30.5725 0.17230700000000002
-30.4725 0.21211000000000002
-30.3725 0.24032199999999998
-30.2725 0.36582299999999995
-30.1725 0.41382700000000006
-30.0725 0.491595
-29.9725 0.530513
-29.8725 0.6746759999999999
-29.7725 0.5885350000000001
-29.6725 0.6954520000000001
-29.5725 0.598264
-29.4725 0.7523400000000001
-29.3725 0.5972479999999999
-29.2725 0.704598
-29.1725 0.511237
-29.0725 0.347753
-28.9725 0.30827999999999994
-28.8725 0.29987400000000003
-28.7725 0.27693799999999996
-28.6725 0.24692
-28.5725 0.223593
-28.4725 0.280214
-28.3725 0.31379300000000004
-28.2725 0.37740300000000004
-28.1725 0.309294
-28.0725 0.5653949999999999
-27.9725 0.6649630000000001
-27.8725 0.808216
-27.7725 0.6160209999999999
-27.6725 0.863156
-27.5725 0.9963599999999999
-27.4725 1.1686779999999999
-27.3725 1.212642
-27.2725 1.1039990000000002
-27.1725 1.139823
-27.0725 1.1296100000000002
-26.9725 0.9227500000000001
-26.8725 0.7141290000000001
-26.7725 0.9042480000000002
-26.6725 0.8767250000000001
-26.5725 0.7678869999999999
-26.4725 0.47884
-26.3725 0.550539
-26.2725 0.280267
-26.1725 0.243583
-26.0725 0.30602100000000004
-25.9725 0.29749099999999995
-25.8725 0.28747100000000003
-25.7725 0.25966100000000003
-25.6725 0.33076700000000003
-25.5725 0.5188910000000001
-25.4725 0.447296
-25.3725 0.670841
-25.2725 0.858981
-25.1725 1.109105
-25.0725 1.324518
-24.9725 1.2630919999999999
-24.8725 1.353194
-24.7725 1.416029
-24.6725 1.3446930000000001
-24.5725 1.408306
-24.4725 1.1941249999999999
-24.3725 1.248593
-24.2725 1.016781
-24.1725 1.091827
-24.0725 1.1493760000000002
-23.9725 0.871647
-23.8725 0.7746259999999999
-23.7725 0.987307
-23.6725 0.7255039999999999
-23.5725 0.765868
-23.4725 0.731184
-23.3725 0.6773839999999999
-23.2725 0.751528
-23.1725 0.632184
-23.0725 0.8174610000000001
-22.9725 0.6666650000000001
-22.8725 0.710315
-22.7725 0.74558
-22.6725 0.9226829999999999
-22.5725 0.945874
-22.4725 1.274631
-22.3725 1.467398
-22.2725 1.3835
-22.1725 1.8419409999999998
-22.0725 2.0787210000000003
-21.9725 2.286463
-21.8725 2.7093629999999997
-21.7725 2.483342
-21.6725 2.7488259999999998
-21.5725 2.8510690000000003
-21.4725 2.613174
-21.3725 2.430124
-21.2725 2.422047
-21.1725 2.1824969999999997
-21.0725 1.974791
-20.9725 2.095294
-20.8725 1.672984
-20.7725 1.5098310000000001
-20.6725 1.478836
-20.5725 1.376245
-20.4725 1.289894
-20.3725 0.867977
-20.2725 0.931776
-20.1725 0.787159
-20.0725 0.56059
-19.9725 0.5050269999999999
-19.8725 0.41531400000000007
-19.7725 0.295202
-19.6725 0.240594
-19.5725 0.166323
-19.4725 0.20345999999999997
-19.3725 0.09242800000000001
-19.2725 0.092745
-19.1725 0.064907
-19.0725 0.018460999999999998
-18.9725 0.036767
-18.8725 0.064502
-18.7725 0.072572
-18.6725 0.018288000000000002
-18.5725 0.09953
-18.4725 0.054655999999999996
-18.3725 0.117851
-18.2725 0.145143
-18.1725 0.190155
-18.0725 0.18102500000000002
-17.9725 0.26324600000000004
-17.8725 0.326267
-17.7725 0.33609800000000006
-17.6725 0.326777
-17.5725 0.21837900000000002
-17.4725 0.25452800000000003
-17.3725 0.282224
-17.2725 0.272983
-17.1725 0.31805700000000003
-17.0725 0.191246
-16.9725 0.24564899999999998
-16.8725 0.227653
-16.7725 0.100201
-16.6725 0.064024
-16.5725 0.063938
-16.4725 0.009147
-16.3725 0.07163299999999999
-16.2725 0.027287999999999996
-16.1725 0.035236
-16.0725 0.017067000000000002
-15.9725 0.081175
-15.8725 0.11240900000000001
-15.7725 0.209858
-15.6725 0.176667
-15.5725 0.377775
-15.4725 0.5702419999999999
-15.3725 0.6988719999999999
-15.2725 0.9078080000000001
-15.1725 1.044737
-15.0725 1.133222
-14.9725 1.229179
-14.8725 1.5705649999999998
-14.7725 1.381575
-14.6725 1.2422549999999999
-14.5725 1.5388020000000002
-14.4725 1.174168
-14.3725 1.1212700000000002
-14.2725 1.003415
-14.1725 0.761998
-14.0725 0.713058
-13.9725 0.8356450000000001
-13.8725 0.587264
-13.7725 0.7261749999999999
-13.6725 0.7346299999999999
-13.5725 0.644605
-13.4725 0.83781
-13.3725 0.682097
-13.2725 0.86356
-13.1725 0.795511
-13.0725 0.9458759999999999
-12.9725 1.176932
-12.8725 1.405651
-12.7725 1.469805
-12.6725 1.5607600000000001
-12.5725 1.656013
-12.4725 1.7276880000000001
-12.3725 1.877719
-12.2725 2.0090220000000003
-12.1725 1.9748199999999998
-12.0725 1.8521300000000003
-11.9725 1.6761000000000001
-11.8725 1.399521
-11.7725 1.277937
-11.6725 1.269802
-11.5725 0.998239
-11.4725 0.9300729999999999
-11.3725 0.722428
-11.2725 0.6198870000000001
-11.1725 0.6595730000000001
-11.0725 0.5503709999999999
-10.9725 0.749498
-10.8725 1.007506
-10.7725 1.142756
-10.6725 1.5856400000000002
-10.5725 1.803324
-10.4725 2.175694
-10.3725 2.376173
-10.2725 2.877809
-10.1725 2.731233
-10.0725 3.2530659999999996
-9.97247 3.605515
-9.87247 3.8518799999999995
-9.77247 4.025514
-9.67247 3.937026
-9.57247 4.054495
-9.47247 4.221842
-9.37247 4.093372
-9.27247 3.6694839999999997
-9.17247 3.354256
-9.07247 2.8529440000000004
-8.97247 2.2170739999999998
-8.87247 2.426076
-8.77247 1.7932810000000001
-8.67247 1.3901910000000002
-8.57247 1.191545
-8.47247 1.210606
-8.37247 0.897237
-8.27247 1.213976
-8.17247 1.106396
-8.07247 1.608903
-7.97247 1.6674879999999999
-7.87247 1.6672049999999998
-7.77247 2.0958870000000003
-7.67247 2.775724
-7.57247 2.5769740000000003
-7.47247 2.925456
-7.37247 3.240332
-7.27247 3.5722289999999997
-7.17247 3.438332
-7.07247 3.759039
-6.97247 3.842152
-6.87247 4.1159669999999995
-6.77247 4.369337
-6.67247 4.487193
-6.57247 4.550631
-6.47247 4.974124
-6.37247 5.319858999999999
-6.27247 5.1292469999999994
-6.17247 5.147347
-6.07247 5.715377999999999
-5.97247 5.6561010000000005
-5.87247 5.722427000000001
-5.77247 5.796873000000001
-5.67247 6.046061
-5.57247 6.1250409999999995
-5.47247 5.961519
-5.37247 6.444075
-5.27247 6.265696999999999
-5.17247 6.508146999999999
-5.07247 6.520849
-4.97247 6.527978999999999
-4.87247 6.163958999999999
-4.77247 6.27489
-4.67247 5.899038000000001
-4.57247 5.787736
-4.47247 5.448081999999999
-4.37247 5.050497
-4.27247 5.096875
-4.17247 4.879681
-4.07247 4.853784
-3.97247 4.488589999999999
-3.87247 4.777942
-3.77247 4.4730929999999995
-3.67247 4.752372
-3.57247 4.467857
-3.47247 4.757258
-3.37247 4.625883
-3.27247 4.667927999999999
-3.17247 4.817113
-3.07247 4.601867
-2.97247 4.437993
-2.87247 4.597982
-2.77247 4.671029000000001
-2.67247 4.741302
-2.57247 4.747078
-2.47247 5.038412
-2.37247 4.911228
-2.27247 5.310871
-2.17247 5.311637
-2.07247 5.466211
-1.97247 5.823015000000001
-1.87247 6.037479
-1.77247 6.013587
-1.67247 6.242051000000001
-1.57247 6.159633
-1.47247 6.1413530000000005
-1.37247 5.788155
-1.27247 5.796489
-1.17247 5.439914000000001
-1.07247 4.822792
-0.972474 4.906735
-0.872474 4.278909
-0.772474 3.7567399999999997
-0.672474 3.0814410000000003
-0.572474 2.772462
-0.472474 2.0927290000000003
-0.372474 1.9808729999999999
-0.272474 1.445474
-0.172474 0.966117
-0.072474 0.8213
0.027526 0.7297910000000001
0.127526 0.440194
0.227526 0.24606899999999998
0.327526 0.176239
0.427526 0.15746100000000002
0.527526 0.11226399999999999
0.627526 0.05537300000000001
0.727526 0.03719
0.827526 0.027711999999999997
0.927526 0.009276999999999999
1.02753 0.009258
1.12753 0.0
1.22753 0.0
1.32753 0.009364
1.42753 0.0
1.52753 0.0
1.62753 0.0
1.72753 0.0
1.82753 0.0
1.92753 0.0
2.02753 0.0
2.12753 0.0
2.22753 0.0
2.32753 0.0
2.42753 0.0
2.52753 0.0
2.62753 0.0
2.72753 0.0
2.82753 0.0
2.92753 0.0
3.02753 0.0
3.12753 0.0
3.22753 0.0
3.32753 0.0
3.42753 0.0
3.52753 0.0
3.62753 0.0
3.72753 0.0
3.82753 0.0
3.92753 0.0
4.02753 0.009071000000000001
4.12753 0.017986
4.22753 0.0
4.32753 0.017189
4.42753 0.008265
4.52753 0.008839999999999999
4.62753 0.035127
4.72753 0.043358
4.82753 0.033942
4.92753 0.09496399999999999
5.02753 0.067782
5.12753 0.12123099999999998
5.22753 0.171057
5.32753 0.224652
5.42753 0.22611599999999998
5.52753 0.40754
5.62753 0.344863
5.72753 0.488468
5.82753 0.5879500000000001
5.92753 0.717184
6.02753 0.75525
6.12753 1.089357
6.22753 1.1955909999999998
6.32753 1.4112890000000002
6.42753 1.747725
6.52753 1.8299090000000002
6.62753 1.724062
6.72753 2.1310979999999997
6.82753 2.2429340000000004
6.92753 2.5137249999999995
7.02753 2.4306130000000006
7.12753 2.419724
7.22753 2.3271640000000002
7.32753 2.459686
7.42753 2.233295
7.52753 2.4584460000000004
7.62753 2.2639400000000003
7.72753 2.335284
7.82753 2.1647100000000004
7.92753 2.046888
8.02753 2.05525
8.12753 1.88784
8.22753 1.709665
8.32753 1.8181850000000002
8.42753 1.732726
8.52753 1.486465
8.62753 1.578772
8.72753 1.603812
8.82753 1.422378
8.92753 1.4465370000000002
9.02753 1.4793029999999998
9.12753 1.3806699999999998
9.22753 1.3870010000000002
9.32753 1.469733
9.42753 1.5563329999999997
9.52753 1.6261240000000001
9.62753 1.71616
9.72753 1.656651
9.82753 1.845029
9.92753 1.809452
10.0275 1.8987749999999999
10.1275 2.012206
10.2275 2.163462
10.3275 2.1965549999999996
10.4275 2.227124
10.5275 2.321449
10.6275 2.3337769999999995
10.7275 2.3630750000000003
10.8275 2.500583
10.9275 2.453032
11.0275 2.471045
11.1275 2.4598539999999995
11.2275 2.5019970000000002
11.3275 2.5962
11.4275 2.590426
11.5275 2.5485249999999997
11.6275 2.544607
11.7275 2.6146289999999994
11.8275 2.6324199999999998
11.9275 2.530868
12.0275 2.635126
12.1275 2.596733
12.2275 2.625909
12.3275 2.597842
12.4275 2.497419
12.5275 2.5414120000000002
12.6275 2.530001
12.7275 2.482585
12.8275 2.5056240000000005
12.9275 2.404569
13.0275 2.379655
13.1275 2.341155
13.2275 2.362632
13.3275 2.272462
13.4275 2.214795
13.5275 2.1811599999999998
13.6275 2.095529
13.7275 2.134882
13.8275 2.013281
13.9275 2.019756
14.0275 1.9945279999999999
14.1275 1.926279
14.2275 1.9922810000000002
14.3275 1.9261609999999998
14.4275 1.928437
14.5275 1.935456
14.6275 1.895627
14.7275 1.8870339999999999
14.8275 1.934737
14.9275 1.860539
15.0275 1.8381550000000002
15.1275 1.812696
15.2275 1.865266
15.3275 1.873459
15.4275 1.8893929999999999
15.5275 1.8465909999999999
15.6275 1.88575
15.7275 1.9574340000000001
15.8275 2.02204
15.9275 1.9604149999999998
16.0275 2.111862
16.1275 2.0536999999999996
16.2275 2.082902
16.3275 2.1752249999999997
16.4275 2.2238350000000002
16.5275 2.289388
16.6275 2.18383
16.7275 2.369574
16.8275 2.308882
16.9275 2.397103
17.0275 2.4311369999999997
17.1275 2.41398
17.2275 2.382355
17.3275 2.376754
17.4275 2.353656
17.5275 2.35374
17.6275 2.389182
17.7275 2.326736
17.8275 2.3343190000000003
17.9275 2.355699
18.0275 2.257501
18.1275 2.29217
18.2275 2.168162
18.3275 2.254732
18.4275 2.24865
18.5275 2.244723
18.6275 2.180037
18.7275 2.183391
18.8275 2.2182980000000003
18.9275 2.1720829999999998
19.0275 2.227325
19.1275 2.194076
19.2275 2.185457
19.3275 2.1844
19.4275 2.1940060000000003
19.5275 2.2355650000000002
19.6275 2.2364610000000003
19.7275 2.204619
19.8275 2.2932340000000004
19.9275 2.261195
20.0275 2.2327739999999996
20.1275 2.275318
20.2275 2.338298
20.3275 2.335734
20.4275 2.224038
20.5275 2.327825
20.6275 2.353029
20.7275 2.298708
20.8275 2.3521739999999998
20.9275 2.360483
21.0275 2.285427
21.1275 2.297305
21.2275 2.351404
21.3275 2.229306
21.4275 2.3310939999999998
21.5275 2.3627469999999997
21.6275 2.265603
21.7275 2.2705390000000003
21.8275 2.2726870000000003
21.9275 2.2998380000000003
22.0275 2.342961
22.1275 2.271554
22.2275 2.2840920000000002
22.3275 2.355069
22.4275 2.186849
22.5275 2.206496
22.6275 2.348432
22.7275 2.2998250000000002
22.8275 2.2366599999999996
22.9275 2.2884320000000002
23.0275 2.3001089999999995
23.1275 2.187565
23.2275 2.2900359999999997
23.3275 2.2419789999999997
23.4275 2.2091179999999997
23.5275 2.31062
23.6275 2.2841720000000003
23.7275 2.180621
23.8275 2.249596
23.9275 2.231707
24.0275 2.307727
24.1275 2.2258999999999998
24.2275 2.28539
24.3275 2.302585
24.4275 2.238814
24.5275 2.341467
24.6275 2.2236420000000003
24.7275 2.2068559999999997
24.8275 2.270458
24.9275 2.366714
25.0275 2.2577230000000004
25.1275 2.2768539999999997
25.2275 2.304796
25.3275 2.409741
25.4275 2.254256
25.5275 2.361997
25.6275 2.3251310000000003
25.7275 2.344599
25.8275 2.251994
25.9275 2.319505
26.0275 2.4236869999999997
26.1275 2.316206
26.2275 2.270852
26.3275 2.388624
26.4275 2.352004
26.5275 2.384835
26.6275 2.377225
26.7275 2.288026
26.8275 2.3563069999999997
26.9275 2.359505
27.0275 2.399741
27.1275 2.364082
27.2275 2.360201
27.3275 2.3321050000000003
27.4275 2.3095429999999997
27.5275 2.397871
27.6275 2.3866140000000002
27.7275 2.2833620000000003
27.8275 2.3148180000000003
27.9275 2.456483
28.0275 2.3101019999999997
28.1275 2.328577
28.2275 2.3305870000000004
28.3275 2.362278
28.4275 2.3807229999999997
28.5275 2.193824
28.6275 2.346033
28.7275 2.298365
28.8275 2.3007299999999997
28.9275 2.345317
29.0275 2.344278
29.1275 2.3825849999999997
29.2275 2.2423640000000002
29.3275 2.3439919999999996
29.4275 2.326744
29.5275 2.271934
29.6275 2.307421
29.7275 2.2980289999999997
29.8275 2.346356
29.9275 2.296655
30.0275 2.2451299999999996
30.1275 2.2839989999999997
30.2275 2.2072920000000003
30.3275 2.25252
30.4275 2.31339
30.5275 2.19502
30.6275 2.302402
30.7275 2.292885
30.8275 2.203304
30.9275 2.2931440000000003
31.0275 2.129189
31.1275 2.2521000000000004
31.2275 2.28357
31.3275 2.119094
31.4275 2.211962
31.5275 2.2032320000000003
31.6275 2.104136
31.7275 2.2321489999999997
31.8275 2.156729
31.9275 2.267804
32.0275 2.1618850000000003
32.1275 2.1602930000000002
32.2275 2.084688
32.3275 2.14589
32.4275 2.124825
32.5275 2.0990610000000003
32.6275 2.155856
32.7275 2.0831880000000003
32.8275 2.05336
32.9275 2.057059
33.0275 2.178525
33.1275 2.066439
33.2275 2.057754
33.3275 1.935425
33.4275 2.05335
33.5275 2.0218559999999997
33.6275 1.9792530000000004
33.7275 2.037146
33.8275 2.011479
33.9275 2.0394530000000004
34.0275 1.9794059999999998
34.1275 2.028713
34.2275 1.9601640000000002
34.3275 1.9854370000000001
34.4275 1.943037
34.5275 2.027593
34.6275 2.008171
34.7275 1.9235589999999998
34.8275 1.986056
34.9275 1.958376
35.0275 1.9913059999999998
35.1275 1.867596
35.2275 1.979442
35.3275 1.9412530000000001
35.4275 1.8480969999999999
35.5275 1.998534
35.6275 1.7795630000000002
35.7275 2.02351
35.8275 1.924643
35.9275 1.9250230000000002
36.0275 1.833111
36.1275 1.939991
36.2275 1.8917609999999998
36.3275 1.9247020000000001
36.4275 1.9464470000000003
36.5275 1.914322
36.6275 1.8624419999999997
36.7275 1.858876
36.8275 1.8697169999999999
36.9275 1.938495
37.0275 1.864045
37.1275 1.917855
37.2275 1.886817
37.3275 1.8278280000000002
37.4275 1.841808
37.5275 1.9383729999999997
37.6275 1.8092039999999998
37.7275 1.8406219999999998
37.8275 1.9002970000000003
37.9275 1.8024580000000001
38.0275 1.8620759999999998
38.1275 1.888813
38.2275 1.840794
38.3275 1.761142
38.4275 1.845202
38.5275 1.868153
38.6275 1.7968369999999998
38.7275 1.76692
38.8275 1.800561
38.9275 1.753901
39.0275 1.799118
39.1275 1.725967
39.2275 1.799619
39.3275 1.775507
39.4275 1.6619879999999998
39.5275 1.7135869999999997
39.6275 1.7453640000000001
39.7275 1.678455
39.8275 1.761394
39.9275 1.681944
40.0275 1.6688759999999998
40.1275 1.6162539999999999
40.2275 1.657815
40.3275 1.619826
40.4275 1.657948
40.5275 1.6495600000000001
40.6275 1.706625
40.7275 1.544367
40.8275 1.630142
40.9275 1.4979429999999998
41.0275 1.623393
41.1275 1.526464
41.2275 1.5646959999999999
41.3275 1.486287
41.4275 1.621564
41.5275 1.508864
41.6275 1.4744760000000001
41.7275 1.4831969999999999
41.8275 1.449493
41.9275 1.4818730000000002
42.0275 1.43351
42.1275 1.4084910000000002
42.2275 1.4275859999999998
42.3275 1.342139
42.4275 1.502056
42.5275 1.325
42.6275 1.339792
42.7275 1.379728
42.8275 1.31926
42.9275 1.309728
43.0275 1.3366609999999999
43.1275 1.347267
43.2275 1.298728
43.3275 1.324962
43.4275 1.2651830000000002
43.5275 1.263657
43.6275 1.2726600000000001
43.7275 1.328036
43.8275 1.2727089999999999
43.9275 1.260094
44.0275 1.2830610000000002
44.1275 1.1922840000000001
44.2275 1.29032
44.3275 1.20293
44.4275 1.2642179999999998
44.5275 1.215044
44.6275 1.208156
44.7275 1.2435930000000002
44.8275 1.18937
44.9275 1.1586379999999998
45.0275 1.198729
45.1275 1.1853660000000001
45.2275 1.2071830000000001
45.3275 1.200097
45.4275 1.233475
45.5275 1.1716720000000003
45.6275 1.1577959999999998
45.7275 1.170959
45.8275 1.201309
45.9275 1.1160210000000002
46.0275 1.227488
46.1275 1.096783
46.2275 1.2261279999999999
46.3275 1.154039
46.4275 1.1026099999999999
46.5275 1.085573
46.6275 1.152735
46.7275 1.167867
46.8275 1.158731
46.9275 1.069325
47.0275 1.123995
47.1275 1.145003
47.2275 1.0965409999999998
47.3275 1.1216279999999998
47.4275 1.0939159999999999
47.5275 1.119326
47.6275 1.081678
47.7275 1.0960590000000001
47.8275 1.059771
47.9275 1.106115
48.0275 1.122826
48.1275 1.0886539999999998
48.2275 1.026203
48.3275 1.112616
48.4275 1.0739219999999998
48.5275 1.122056
48.6275 1.0363
48.7275 1.042184
48.8275 1.1188710000000002
48.9275 1.037254
49.0275 1.077982
49.1275 1.131893
49.2275 1.0890870000000001
49.3275 1.08554
49.4275 1.084162
49.5275 1.063886
49.6275 1.105513
49.7275 1.0573409999999999
49.8275 1.1083260000000001
49.9275 1.044602
50.0275 1.096598
50.1275 1.075239
50.2275 1.046709
50.3275 1.0449380000000001
50.4275 1.0473789999999998
50.5275 1.107295
50.6275 1.081793
50.7275 1.060989
50.8275 1.029992
50.9275 1.0269469999999998
51.0275 1.046022
51.1275 1.088372
51.2275 1.043085
51.3275 1.055014
51.4275 1.031306
51.5275 1.06631
51.6275 1.0771540000000002
51.7275 1.072403
51.8275 1.095968
51.9275 1.075799
52.0275 1.09012
52.1275 1.047897
52.2275 1.078503
52.3275 1.072492
52.4275 1.122188
52.5275 1.079284
52.6275 1.0728529999999998
52.7275 1.0876730000000001
52.8275 1.0630780000000002
52.9275 1.1249619999999998
53.0275 1.0655999999999999
53.1275 1.0919
53.2275 1.077812
53.3275 1.120682
53.4275 1.0942910000000001
53.5275 1.08661
53.6275 1.068272
53.7275 1.043027
53.8275 1.1133570000000002
53.9275 1.091163
54.0275 1.1270850000000001
54.1275 1.085416
54.2275 1.050385
54.3275 1.0611949999999999
54.4275 1.061016
54.5275 1.069688
54.6275 1.103196
54.7275 1.0879329999999998
54.8275 1.048818
54.9275 1.031268
55.0275 1.081041
55.1275 1.0766470000000001
55.2275 1.0505010000000001
55.3275 1.008163
55.4275 1.060239
55.5275 1.021491
55.6275 1.024449
55.7275 1.046747
55.8275 1.0107430000000002
55.9275 1.0291549999999998
56.0275 1.0559839999999998
56.1275 1.0103849999999999
56.2275 1.068489
56.3275 0.9878570000000001
56.4275 1.0517779999999999
56.5275 1.004123
56.6275 1.052019
56.7275 1.0419420000000001
56.8275 1.0248199999999998
56.9275 1.0352089999999998
57.0275 1.013868
57.1275 1.0230199999999998
57.2275 1.03628
57.3275 1.011877
57.4275 1.020562
57.5275 1.036348
57.6275 1.025728
57.7275 1.05982
57.8275 1.003179
57.9275 1.015981
58.0275 1.028905
58.1275 1.021119
58.2275 1.0719580000000002
58.3275 1.067377
58.4275 1.052782
58.5275 1.072731
58.6275 1.065522
58.7275 1.117155
58.8275 1.105561
58.9275 1.100531
59.0275 1.071692
59.1275 1.123902
59.2275 1.127344
59.3275 1.097027
59.4275 1.172317
59.5275 1.1506509999999999
59.6275 1.143592
59.7275 1.1088959999999999
59.8275 1.183977
59.9275 1.179274
60.0275 1.183306
60.1275 1.1692630000000002
60.2275 1.191668
60.3275 1.237113
60.4275 1.1885890000000001
60.5275 1.152484
60.6275 1.237275
60.7275 1.194237
60.8275 1.181249
60.9275 1.21515
61.0275 1.198091
61.1275 1.223848
61.2275 1.181206
61.3275 1.226111
61.4275 1.210239
61.5275 1.200217
61.6275 1.264408
61.7275 1.164366
61.8275 1.2505339999999998
61.9275 1.184616
62.0275 1.221954
62.1275 1.253777
62.2275 1.169001
62.3275 1.263423
62.4275 1.193302
62.5275 1.2427949999999999
62.6275 1.217378
62.7275 1.219129
62.8275 1.218004
62.9275 1.277366
63.0275 1.293479
63.1275 1.221144
63.2275 1.227226
63.3275 1.238361
63.4275 1.244181
63.5275 1.259863
63.6275 1.2574699999999999
63.7275 1.341985
63.8275 1.220397
63.9275 1.312454
64.0275 1.2962120000000001
64.1275 1.330274
64.2275 1.327429
64.3275 1.322314
64.4275 1.272942
64.5275 1.294048
64.6275 1.359406
64.7275 1.2910740000000003
64.8275 1.3680549999999998
64.9275 1.305205
65.0275 1.3382550000000002
65.1275 1.317235
65.2275 1.3164410000000002
65.3275 1.340371
65.4275 1.338531
65.5275 1.326198
65.6275 1.297373
65.7275 1.2866130000000002
65.8275 1.273148
65.9275 1.318305
66.0275 1.255485
66.1275 1.303109
66.2275 1.244064
66.3275 1.243927
66.4275 1.297265
66.5275 1.205938
66.6275 1.286914
66.7275 1.265263
66.8275 1.2493400000000001
66.9275 1.228602
67.0275 1.207716
67.1275 1.214173
67.2275 1.2031880000000001
67.3275 1.1928480000000001
67.4275 1.196096
67.5275 1.1587500000000002
67.6275 1.204918
67.7275 1.139337
67.8275 1.133433
67.9275 1.12585
68.0275 1.0806820000000001
68.1275 1.10272
68.2275 1.097096
68.3275 1.0708330000000001
68.4275 1.050229
68.5275 1.0222360000000001
68.6275 1.035987
68.7275 1.0131729999999999
68.8275 1.0162600000000002
68.9275 0.956317
69.0275 1.017087
69.1275 0.9560770000000001
69.2275 0.9586089999999999
69.3275 0.9005289999999999
69.4275 0.9470169999999999
69.5275 0.9307939999999999
69.6275 0.895857
69.7275 0.958936
69.8275 0.893301
69.9275 0.863822
70.0275 0.913174
70.1275 0.8563949999999999
70.2275 0.904462
70.3275 0.8413649999999999
70.4275 0.880807
70.5275 0.8493809999999999
70.6275 0.885561
70.7275 0.871011
70.8275 0.845501
70.9275 0.822848
71.0275 0.899411
71.1275 0.8612209999999999
71.2275 0.835268
71.3275 0.870657
71.4275 0.850121
71.5275 0.8834780000000001
71.6275 0.865114
71.7275 0.81495
71.8275 0.8667520000000001
71.9275 0.8444219999999999
72.0275 0.8022980000000001
72.1275 0.878491
72.2275 0.9155150000000001
72.3275 0.794143
72.4275 0.8681660000000001
72.5275 0.792218
72.6275 0.785034
72.7275 0.8322649999999999
72.8275 0.7844550000000001
72.9275 0.76542
73.0275 0.7927289999999999
73.1275 0.793706
73.2275 0.756204
73.3275 0.703172
73.4275 0.72054
73.5275 0.711457
73.6275 0.712551
73.7275 0.670042
73.8275 0.640987
73.9275 0.703059
74.0275 0.648775
74.1275 0.7240409999999999
74.2275 0.648801
74.3275 0.7116069999999999
74.4275 0.654925
74.5275 0.632334
74.6275 0.640116
74.7275 0.654874
74.8275 0.6180450000000001
74.9275 0.609508
75.0275 0.613079
75.1275 0.5928789999999999
75.2275 0.5885589999999999
75.3275 0.629764
75.4275 0.56892
75.5275 0.6109180000000001
75.6275 0.5487029999999999
75.7275 0.5524979999999999
75.8275 0.537122
75.9275 0.522019
76.0275 0.527276
76.1275 0.5208699999999999
76.2275 0.5185050000000001
76.3275 0.476987
76.4275 0.5188360000000001
76.5275 0.512362
76.6275 0.493618
76.7275 0.493123
76.8275 0.46829000000000004
76.9275 0.458175
77.0275 0.47726199999999996
77.1275 0.49723300000000004
77.2275 0.493129
77.3275 0.5025510000000001
77.4275 0.490546
77.5275 0.5190380000000001
77.6275 0.483518
77.7275 0.50069
77.8275 0.512663
77.9275 0.476358
78.0275 0.505745
78.1275 0.47357999999999995
78.2275 0.5203450000000001
78.3275 0.519804
78.4275 0.501024
78.5275 0.553089
78.6275 0.5405490000000001
78.7275 0.493902
78.8275 0.513236
78.9275 0.552728
79.0275 0.504503
79.1275 0.49931099999999995
79.2275 0.534513
79.3275 0.474981
79.4275 0.5072059999999999
79.5275 0.478477
79.6275 0.510015
79.7275 0.5171579999999999
79.8275 0.507311
79.9275 0.46699
80.0275 0.528338
80.1275 0.45496000000000003
80.2275 0.48171500000000006
80.3275 0.45373399999999997
80.4275 0.46380400000000005
80.5275 0.448529
80.6275 0.450933
80.7275 0.44963699999999995
80.8275 0.44339199999999995
80.9275 0.415976
81.0275 0.396433
81.1275 0.45311500000000005
81.2275 0.36529900000000004
81.3275 0.375656
81.4275 0.39902699999999997
81.5275 0.36381900000000006
81.6275 0.36
81.7275 0.397374
81.8275 0.382441
81.9275 0.353956
82.0275 0.33624899999999996
82.1275 0.337743
82.2275 0.358764
82.3275 0.34898300000000004
82.4275 0.318893
82.5275 0.32838700000000004
82.6275 0.307924
82.7275 0.303769
82.8275 0.33818899999999996
82.9275 0.276596
83.0275 0.29710800000000004
83.1275 0.27276700000000004
83.2275 0.26747000000000004
83.3275 0.28930799999999995
83.4275 0.253886
83.5275 0.261041
83.6275 0.21380700000000002
83.7275 0.27480200000000005
83.8275 0.27056399999999997
83.9275 0.30461699999999997
84.0275 0.196986
84.1275 0.260395
84.2275 0.239121
84.3275 0.246473
84.4275 0.22321100000000002
84.5275 0.20006699999999997
84.6275 0.27553
84.7275 0.25685399999999997
84.8275 0.28385
84.9275 0.24168
85.0275 0.26439700000000005
85.1275 0.29339600000000005
85.2275 0.291205
85.3275 0.26545599999999997
85.4275 0.304721
85.5275 0.29945200000000005
85.6275 0.30884199999999995
85.7275 0.28274
85.8275 0.33154100000000003
85.9275 0.35266
86.0275 0.317217
86.1275 0.373314
86.2275 0.34110299999999993
86.3275 0.30461499999999997
86.4275 0.333388
86.5275 0.375095
86.6275 0.347479
86.7275 0.32502200000000003
86.8275 0.339944
86.9275 0.343867
87.0275 0.32263100000000006
87.1275 0.297841
87.2275 0.32412199999999997
87.3275 0.39356199999999997
87.4275 0.323899
87.5275 0.223198
87.6275 0.35657
87.7275 0.297233
87.8275 0.270362
87.9275 0.233708
88.0275 0.26361
88.1275 0.23876699999999998
88.2275 0.27280799999999994
88.3275 0.30622000000000005
88.4275 0.195832
88.5275 0.23507
88.6275 0.230936
88.7275 0.203006
88.8275 0.245563
88.9275 0.192798
89.0275 0.20025900000000002
89.1275 0.18049
89.2275 0.168249
89.3275 0.206087
89.4275 0.148436
89.5275 0.202128
89.6275 0.207062
89.7275 0.17716500000000002
89.8275 0.16195500000000002
89.9275 0.14111600000000002
90.0275 0.16164399999999998
90.1275 0.211661
90.2275 0.16062099999999999
90.3275 0.17792800000000003
90.4275 0.23889700000000003
90.5275 0.168041
90.6275 0.185429
90.7275 0.174776
90.8275 0.17196099999999997
90.9275 0.17844499999999996
91.0275 0.23463399999999998
91.1275 0.20308800000000002
91.2275 0.20955600000000002
91.3275 0.20197800000000002
91.4275 0.18807800000000002
91.5275 0.18141600000000002
91.6275 0.183852
91.7275 0.16951800000000003
91.8275 0.22091300000000003
91.9275 0.155276
92.0275 0.168995
92.1275 0.175917
92.2275 0.178418
92.3275 0.18823700000000002
92.4275 0.146445
92.5275 0.13472399999999998
92.6275 0.113076
92.7275 0.158839
92.8275 0.115732
92.9275 0.110049
93.0275 0.112732
93.1275 0.11606300000000001
93.2275 0.07761
93.3275 0.081726
93.4275 0.104776
93.5275 0.081851
93.6275 0.066511
93.7275 0.084267
93.8275 0.077034
93.9275 0.055854
94.0275 0.049894
94.1275 0.054065999999999996
94.2275 0.034009000000000005
94.3275 0.031188
94.4275 0.036982
94.5275 0.027658000000000002
94.6275 0.031058000000000002
94.7275 0.022638000000000002
94.8275 0.019177
94.9275 0.033006
95.0275 0.017842
95.1275 0.017942999999999997
95.2275 0.02531
95.3275 0.059886
95.4275 0.032831000000000006
95.5275 0.021483000000000002
95.6275 0.02199
95.7275 0.037820999999999994
95.8275 0.022056
95.9275 0.00294
96.0275 0.017633999999999997
96.1275 0.04301700000000001
96.2275 0.023354999999999997
96.3275 0.022999000000000002
96.4275 0.046229
96.5275 0.10509500000000001
96.6275 0.068714
96.7275 0.060302
96.8275 0.044666
96.9275 0.06176899999999999
97.0275 0.06029299999999999
97.1275 0.06032
97.2275 0.086655
97.3275 0.06919900000000001
97.4275 0.054872000000000004
97.5275 0.06250800000000001
97.6275 0.11666399999999999
97.7275 0.070349
97.8275 0.08725000000000001
97.9275 0.101301
98.0275 0.11530200000000002
98.1275 0.11040100000000001
98.2275 0.08725
98.3275 0.087825
98.4275 0.127791
98.5275 0.085804
98.6275 0.097072
98.7275 0.10654099999999998
98.8275 0.123895
98.9275 0.071208
99.0275 0.08773
99.1275 0.063725
99.2275 0.095597
99.3275 0.059311
99.4275 0.121412
99.5275 0.047500999999999995
99.6275 0.10299
99.7275 0.053222
99.8275 0.09956699999999999
99.9275 0.088791
100.028 0.090468
100.128 0.08882899999999999
100.228 0.104444
100.328 0.067413
100.428 0.12292399999999999
100.528 0.13014199999999998
100.628 0.084451
100.728 0.08748399999999999
100.828 0.092222
100.928 0.135248
101.028 0.142562
101.128 0.153552
101.228 0.131518
101.328 0.154184
101.428 0.124875
101.528 0.171157
101.628 0.14987499999999998
101.728 0.167025
101.828 0.159925
101.928 0.16018300000000002
102.028 0.174792