-46.6444 1.406058
-46.5444 0.47856899999999997
-46.4444 0.5382129999999999
-46.3444 0.6677059999999999
-46.2444 0.6974959999999999
-46.1444 0.618004
-46.0444 0.557871
-45.9444 0.5479989999999999
-45.8444 0.49816299999999997
-45.7444 0.488059
-45.6444 0.32860300000000003
-45.5444 0.358446
-45.4444 0.219054
-45.3444 0.16928500000000002
-45.2444 0.139423
-45.1444 0.079659
-45.0444 0.099509
-44.9444 0.009955
-44.8444 0.039816
-44.7444 0.009925
-44.6444 0.019905000000000003
-44.5444 0.0
-44.4444 0.0
-44.3444 0.0
-44.2444 0.0
-44.1444 0.0
-44.0444 0.0
-43.9444 0.0
-43.8444 0.0
-43.7444 0.0
-43.6444 0.0
-43.5444 0.0
-43.4444 0.0
-43.3444 0.0
-43.2444 0.0
-43.1444 0.0
-43.0444 0.0
-42.9444 0.0
-42.8444 0.0
-42.7444 0.0
-42.6444 0.0
-42.5444 0.0
-42.4444 0.0
-42.3444 0.0
-42.2444 0.0
-42.1444 0.0
-42.0444 0.0
-41.9444 0.0
-41.8444 0.0
-41.7444 0.0
-41.6444 0.0
-41.5444 0.0
-41.4444 0.0
-41.3444 0.0
-41.2444 0.0
-41.1444 0.0
-41.0444 0.0
-40.9444 0.0
-40.8444 0.0
-40.7444 0.0
-40.6444 0.0
-40.5444 0.0
-40.4444 0.0
-40.3444 0.0
-40.2444 0.0
-40.1444 0.0
-40.0444 0.0
-39.9444 0.0
-39.8444 0.0
-39.7444 0.0
-39.6444 0.0
-39.5444 0.0
-39.4444 0.0
-39.3444 0.0
-39.2444 0.0
-39.1444 0.0
-39.0444 0.0
-38.9444 0.0
-38.8444 0.0
-38.7444 0.0
-38.6444 0.0
-38.5444 0.0
-38.4444 0.0
-38.3444 0.0
-38.2444 0.0
-38.1444 0.0
-38.0444 0.0
-37.9444 0.0
-37.8444 0.0
-37.7444 0.0
-37.6444 0.0
-37.5444 0.0
-37.4444 0.0
-37.3444 0.0
-37.2444 0.0
-37.1444 0.0
-37.0444 0.0
-36.9444 0.0
-36.8444 0.0
-36.7444 0.0
-36.6444 0.0
-36.5444 0.0
-36.4444 0.0
-36.3444 0.0
-36.2444 0.0
-36.1444 0.0
-36.0444 0.0
-35.9444 0.0
-35.8444 0.0
-35.7444 0.0
-35.6444 0.0
-35.5444 0.0
-35.4444 0.0
-35.3444 0.0
-35.2444 0.0
-35.1444 0.0
-35.0444 0.0
-34.9444 0.0
-34.8444 0.0
-34.7444 0.0
-34.6444 0.0
-34.5444 0.0
-34.4444 0.0
-34.3444 0.0
-34.2444 0.0
-34.1444 0.0
-34.0444 0.0
-33.9444 0.0
-33.8444 0.0
-33.7444 0.0
-33.6444 0.0
-33.5444 0.0
-33.4444 0.0
-33.3444 0.0
-33.2444 0.0
-33.1444 0.0
-33.0444 0.0
-32.9444 0.0
-32.8444 0.0
-32.7444 0.0
-32.6444 0.0
-32.5444 0.0
-32.4444 0.0
-32.3444 0.0
-32.2444 0.0
-32.1444 0.0
-32.0444 0.0
-31.9444 0.0
-31.8444 0.0
-31.7444 0.0
-31.6444 0.0
-31.5444 0.0
-31.4444 0.0
-31.3444 0.0
-31.2444 0.0
-31.1444 0.028937000000000004
-31.0444 0.019149000000000003
-30.9444 0.047717999999999997
-30.8444 0.038367
-30.7444 0.144359
-30.6444 0.115429
-30.5444 0.16367999999999996
-30.4444 0.21207199999999998
-30.3444 0.395699
-30.2444 0.386047
-30.1444 0.674636
-30.0444 0.7145
-29.9444 0.7534320000000001
-29.8444 0.9760370000000002
-29.7444 0.928866
-29.6444 0.9678519999999998
-29.5444 1.06413
-29.4444 1.084513
-29.3444 0.862621
-29.2444 1.008302
-29.1444 0.8432099999999999
-29.0444 0.533265
-28.9444 0.49239099999999997
-28.8444 0.36640500000000004
-28.7444 0.315672
-28.6444 0.27780499999999997
-28.5444 0.263433
-28.4444 0.233582
-28.3444 0.275615
-28.2444 0.486017
-28.1444 0.464795
-28.0444 0.6094610000000001
-27.9444 0.883971
-27.8444 1.03599
-27.7444 1.099881
-27.6444 1.472515
-27.5444 1.362354
-27.4444 1.8321569999999998
-27.3444 1.813937
-27.2444 1.5133060000000003
-27.1444 1.8473230000000003
-27.0444 1.647112
-26.9444 1.521229
-26.8444 1.428805
-26.7444 1.3293049999999997
-26.6444 1.2042259999999998
-26.5444 0.8231980000000001
-26.4444 0.705454
-26.3444 0.443767
-26.2444 0.34374399999999994
-26.1444 0.271348
-26.0444 0.243824
-25.9444 0.144321
-25.8444 0.18960700000000003
-25.7444 0.161342
-25.6444 0.180013
-25.5444 0.223492
-25.4444 0.223842
-25.3444 0.384619
-25.2444 0.509402
-25.1444 0.8043870000000001
-25.0444 0.679831
-24.9444 1.064884
-24.8444 1.1194870000000001
-24.7444 1.406984
-24.6444 1.4970700000000001
-24.5444 1.553295
-24.4444 1.3476979999999998
-24.3444 1.2899230000000002
-24.2444 1.2361
-24.1444 1.2341920000000002
-24.0444 1.2914459999999999
-23.9444 0.9329029999999999
-23.8444 1.09103
-23.7444 0.966133
-23.6444 0.911125
-23.5444 1.091201
-23.4444 0.901002
-23.3444 0.8925249999999999
-23.2444 0.874146
-23.1444 0.9500249999999999
-23.0444 0.8279329999999999
-22.9444 0.8246000000000001
-22.8444 0.8140720000000001
-22.7444 0.699546
-22.6444 0.5956899999999999
-22.5444 0.551374
-22.4444 0.668185
-22.3444 0.934274
-22.2444 1.163669
-22.1444 1.3559519999999998
-22.0444 1.587256
-21.9444 1.772143
-21.8444 2.1650549999999997
-21.7444 2.2155500000000004
-21.6444 2.428697
-21.5444 2.705947
-21.4444 2.631179
-21.3444 2.658748
-21.2444 2.4995060000000002
-21.1444 2.5096580000000004
-21.0444 2.2689
-20.9444 1.9972860000000001
-20.8444 1.9801689999999998
-20.7444 1.8795709999999999
-20.6444 1.4253280000000002
-20.5444 1.5455569999999998
-20.4444 1.232552
-20.3444 1.196684
-20.2444 1.0037150000000001
-20.1444 0.671787
-20.0444 0.597182
-19.9444 0.52481
-19.8444 0.378049
-19.7444 0.24824
-19.6444 0.21220299999999997
-19.5444 0.129051
-19.4444 0.10162
-19.3444 0.082772
-19.2444 0.027702000000000004
-19.1444 0.046106999999999995
-19.0444 0.036814
-18.9444 0.018105999999999997
-18.8444 0.045398999999999995
-18.7444 0.081444
-18.6444 0.09083799999999999
-18.5444 0.117855
-18.4444 0.199245
-18.3444 0.20851500000000003
-18.2444 0.35342400000000007
-18.1444 0.2812
-18.0444 0.49001400000000006
-17.9444 0.471946
-17.8444 0.42613999999999996
-17.7444 0.39078499999999994
-17.6444 0.28184
-17.5444 0.40025499999999997
-17.4444 0.508644
-17.3444 0.318741
-17.2444 0.22737200000000005
-17.1444 0.2734889999999999
-17.0444 0.26370099999999996
-16.9444 0.27354399999999995
-16.8444 0.164027
-16.7444 0.10030399999999999
-16.6444 0.10046
-16.5444 0.12770800000000002
-16.4444 0.054824
-16.3444 0.009164
-16.2444 0.027416999999999997
-16.1444 0.009104000000000001
-16.0444 0.009099
-15.9444 0.025182999999999997
-15.8444 0.024073
-15.7444 0.06420100000000001
-15.6444 0.096017
-15.5444 0.18490199999999998
-15.4444 0.368767
-15.3444 0.36942800000000003
-15.2444 0.578128
-15.1444 0.779084
-15.0444 0.821575
-14.9444 1.1570719999999999
-14.8444 1.31142
-14.7444 1.509128
-14.6444 1.4420030000000001
-14.5444 1.3942040000000002
-14.4444 1.2245290000000002
-14.3444 1.138401
-14.2444 0.948839
-14.1444 0.8563350000000001
-14.0444 0.873329
-13.9444 0.7977350000000001
-13.8444 0.763288
-13.7444 0.919753
-13.6444 0.857901
-13.5444 0.825928
-13.4444 0.976296
-13.3444 0.78303
-13.2444 1.040827
-13.1444 1.071581
-13.0444 1.043636
-12.9444 1.121148
-12.8444 1.1944759999999999
-12.7444 1.165835
-12.6444 1.327194
-12.5444 1.693121
-12.4444 1.976025
-12.3444 1.791105
-12.2444 2.075008
-12.1444 2.430931
-12.0444 2.0489390000000003
-11.9444 1.9261080000000002
-11.8444 1.915519
-11.7444 1.3724319999999999
-11.6444 1.070271
-11.5444 0.7895650000000001
-11.4444 0.688364
-11.3444 0.491522
-11.2444 0.41502100000000003
-11.1444 0.409268
-11.0444 0.475538
-10.9444 0.6048749999999999
-10.8444 0.822068
-10.7444 1.1821510000000002
-10.6444 1.487943
-10.5444 1.752759
-10.4444 2.067702
-10.3444 2.508353
-10.2444 2.7636220000000002
-10.1444 2.939492
-10.0444 3.144782
-9.94442 3.492289
-9.84442 3.9174500000000005
-9.74442 3.8759669999999997
-9.64442 4.427966
-9.54442 4.406202
-9.44442 4.630797
-9.34442 4.957306
-9.24442 4.42524
-9.14442 4.124315
-9.04442 3.7302960000000005
-8.94442 3.09725
-8.84442 2.4899809999999998
-8.74442 2.118183
-8.64442 1.759445
-8.54442 1.2272989999999997
-8.44442 1.3594590000000002
-8.34442 1.102573
-8.24442 1.1089890000000002
-8.14442 1.066678
-8.04442 1.007059
-7.94442 1.277909
-7.84442 1.375705
-7.74442 1.726978
-7.64442 1.952651
-7.54442 2.255159
-7.44442 2.6612959999999997
-7.34442 3.081422
-7.24442 3.187922
-7.14442 3.5446250000000004
-7.04442 3.754979
-6.94442 3.923565
-6.84442 4.313670000000001
-6.74442 4.358336
-6.64442 4.579763
-6.54442 4.876521
-6.44442 5.071928
-6.34442 5.446038
-6.24442 6.131566
-6.14442 5.9811890000000005
-6.04442 6.165290000000001
-5.94442 6.368244000000001
-5.84442 6.547300000000001
-5.74442 6.3256239999999995
-5.64442 6.497471
-5.54442 6.507238
-5.44442 6.687914999999999
-5.34442 6.7326559999999995
-5.24442 7.048444
-5.14442 6.836143
-5.04442 7.046715000000001
-4.94442 6.896846
-4.84442 6.843444
-4.74442 6.5788910000000005
-4.64442 6.569958
-4.54442 6.078852
-4.44442 5.828176999999999
-4.34442 5.297597
-4.24442 5.331295
-4.14442 4.863586
-4.04442 4.462714999999999
-3.94442 4.029115
-3.84442 4.289791
-3.74442 3.987197
-3.64442 4.259702999999999
-3.54442 3.946708
-3.44442 4.039937
-3.34442 3.985521
-3.24442 4.408435
-3.14442 4.1029029999999995
-3.04442 4.564399000000001
-2.94442 4.251016
-2.84442 4.703804
-2.74442 4.689444
-2.64442 4.8066640000000005
-2.54442 4.761024999999999
-2.44442 4.837667000000001
-2.34442 4.746410999999999
-2.24442 4.791601000000001
-2.14442 4.798268
-2.04442 5.22836
-1.94442 5.050434000000001
-1.84442 5.394410000000001
-1.74442 5.638914
-1.64442 5.718045
-1.54442 5.882111
-1.44442 5.957422
-1.34442 6.1988080000000005
-1.24442 5.6824010000000005
-1.14442 5.828776
-1.04442 5.636549999999999
-0.944419 4.993792
-0.844419 4.768775000000001
-0.744419 3.683383
-0.644419 3.295747
-0.544419 2.582645
-0.444419 2.242603
-0.344419 1.6894609999999999
-0.244419 1.296604
-0.144419 1.0300850000000001
-0.044419 0.588797
0.055581 0.472371
0.155581 0.25892400000000004
0.255581 0.20207199999999997
0.355581 0.084396
0.455581 0.05549899999999999
0.555581 0.036640000000000006
0.655581 0.0
0.755581 0.0
0.855581 0.0
0.955581 0.0
1.05558 0.009703
1.15558 0.0
1.25558 0.0
1.35558 0.0
1.45558 0.0
1.55558 0.0
1.65558 0.0
1.75558 0.0
1.85558 0.0
1.95558 0.0
2.05558 0.0
2.15558 0.0
2.25558 0.0
2.35558 0.0
2.45558 0.0
2.55558 0.0
2.65558 0.0
2.75558 0.0
2.85558 0.0
2.95558 0.0
3.05558 0.0
3.15558 0.0
3.25558 0.0
3.35558 0.0
3.45558 0.0
3.55558 0.0
3.65558 0.0
3.75558 0.0
3.85558 0.0
3.95558 0.0
4.05558 0.0
4.15558 0.0
4.25558 0.026250000000000002
4.35558 0.035684
4.45558 0.025378999999999995
4.55558 0.017929000000000004
4.65558 0.07776899999999999
4.75558 0.07793100000000001
4.85558 0.09588
4.95558 0.104626
5.05558 0.11071299999999999
5.15558 0.222326
5.25558 0.29597700000000005
5.35558 0.31194599999999995
5.45558 0.45669099999999996
5.55558 0.490062
5.65558 0.5438939999999999
5.75558 0.5572229999999999
5.85558 0.704983
5.95558 0.851469
6.05558 0.851016
6.15558 1.069245
6.25558 1.253766
6.35558 1.2754320000000001
6.45558 1.4125349999999999
6.55558 1.696155
6.65558 1.891649
6.75558 2.15354
6.85558 2.2246699999999997
6.95558 2.4389480000000003
7.05558 2.591504
7.15558 2.680104
7.25558 2.5388530000000005
7.35558 2.569826
7.45558 2.7180769999999996
7.55558 2.697867
7.65558 2.436171
7.75558 2.3769989999999996
7.85558 2.259158
7.95558 2.32136
8.05558 2.060258
8.15558 2.061823
8.25558 1.9143170000000003
8.35558 1.945152
8.45558 1.784174
8.55558 1.5670439999999999
8.65558 1.737394
8.75558 1.62053
8.85558 1.5942530000000001
8.95558 1.572
9.05558 1.5739249999999998
9.15558 1.608075
9.25558 1.545663
9.35558 1.5818619999999997
9.45558 1.7274500000000002
9.55558 1.638606
9.65558 1.718133
9.75558 1.7170090000000002
9.85558 1.802863
9.95558 1.9424620000000001
10.0556 1.958492
10.1556 2.0852739999999996
10.2556 2.1765939999999997
10.3556 2.2375599999999998
10.4556 2.244442
10.5556 2.316819
10.6556 2.402303
10.7556 2.4413720000000003
10.8556 2.49961
10.9556 2.5575069999999998
11.0556 2.698568
11.1556 2.612371
11.2556 2.652027
11.3556 2.823347
11.4556 2.681869
11.5556 2.7151059999999996
11.6556 2.810238
11.7556 2.648123
11.8556 2.7650230000000002
11.9556 2.721537
12.0556 2.655378
12.1556 2.5993980000000003
12.2556 2.6604499999999995
12.3556 2.594124
12.4556 2.6590830000000003
12.5556 2.5392870000000003
12.6556 2.4575579999999997
12.7556 2.4784050000000004
12.8556 2.3442950000000002
12.9556 2.33803
13.0556 2.282905
13.1556 2.12381
13.2556 2.2871370000000004
13.3556 2.048346
13.4556 2.125556
13.5556 2.005143
13.6556 2.001204
13.7556 1.950866
13.8556 1.807869
13.9556 1.882591
14.0556 1.838447
14.1556 1.811359
14.2556 1.7969999999999997
14.3556 1.7452720000000002
14.4556 1.765065
14.5556 1.7705559999999998
14.6556 1.7007599999999998
14.7556 1.749841
14.8556 1.799676
14.9556 1.6619030000000001
15.0556 1.693394
15.1556 1.7260710000000001
15.2556 1.712035
15.3556 1.7286599999999999
15.4556 1.717588
15.5556 1.753713
15.6556 1.759139
15.7556 1.820862
15.8556 1.838028
15.9556 1.8529499999999999
16.0556 1.935289
16.1556 1.918023
16.2556 2.0843239999999996
16.3556 2.0783620000000003
16.4556 2.00963
16.5556 2.307868
16.6556 2.241927
16.7556 2.2546760000000003
16.8556 2.307305
16.9556 2.431514
17.0556 2.4650790000000002
17.1556 2.353933
17.2556 2.435206
17.3556 2.463101
17.4556 2.3903679999999996
17.5556 2.48725
17.6556 2.2936170000000002
17.7556 2.4877569999999998
17.8556 2.31466
17.9556 2.352419
18.0556 2.341509
18.1556 2.2703260000000003
18.2556 2.275676
18.3556 2.23743
18.4556 2.170366
18.5556 2.379537
18.6556 2.176507
18.7556 2.2912839999999997
18.8556 2.2232019999999997
18.9556 2.2140459999999997
19.0556 2.252684
19.1556 2.185519
19.2556 2.237334
19.3556 2.2752980000000003
19.4556 2.32322
19.5556 2.2453419999999995
19.6556 2.4654819999999997
19.7556 2.245098
19.8556 2.450171
19.9556 2.3405289999999996
20.0556 2.354078
20.1556 2.4212519999999995
20.2556 2.3818319999999997
20.3556 2.495112
20.4556 2.409532
20.5556 2.4728450000000004
20.6556 2.322572
20.7556 2.547361
20.8556 2.467756
20.9556 2.387796
21.0556 2.5580339999999997
21.1556 2.43632
21.2556 2.40959
21.3556 2.4552869999999998
21.4556 2.4802609999999996
21.5556 2.4355710000000004
21.6556 2.4707920000000003
21.7556 2.4503259999999996
21.8556 2.330185
21.9556 2.438663
22.0556 2.4414970000000005
22.1556 2.3953510000000002
22.2556 2.442678
22.3556 2.4395890000000002
22.4556 2.370649
22.5556 2.394895
22.6556 2.303005
22.7556 2.398211
22.8556 2.4174569999999997
22.9556 2.4296970000000004
23.0556 2.400986
23.1556 2.347948
23.2556 2.37153
23.3556 2.3063529999999997
23.4556 2.3915119999999996
23.5556 2.422515
23.6556 2.382508
23.7556 2.294523
23.8556 2.463418
23.9556 2.2660340000000003
24.0556 2.372293
24.1556 2.440976
24.2556 2.356032
24.3556 2.408918
24.4556 2.356961
24.5556 2.295774
24.6556 2.4066150000000004
24.7556 2.372237
24.8556 2.374453
24.9556 2.495939
25.0556 2.378938
25.1556 2.322277
25.2556 2.37672
25.3556 2.4656659999999997
25.4556 2.305273
25.5556 2.3741230000000004
25.6556 2.3963609999999997
25.7556 2.407095
25.8556 2.308176
25.9556 2.3847400000000003
26.0556 2.349729
26.1556 2.406148
26.2556 2.3731180000000003
26.3556 2.345768
26.4556 2.296953
26.5556 2.483952
26.6556 2.407814
26.7556 2.306087
26.8556 2.5294510000000003
26.9556 2.2416099999999997
27.0556 2.460159
27.1556 2.2934200000000002
27.2556 2.4132599999999997
27.3556 2.3709740000000004
27.4556 2.481694
27.5556 2.408755
27.6556 2.327483
27.7556 2.3921490000000003
27.8556 2.372312
27.9556 2.298031
28.0556 2.397991
28.1556 2.4165229999999998
28.2556 2.331182
28.3556 2.387969
28.4556 2.4442410000000003
28.5556 2.40163
28.6556 2.387852
28.7556 2.297416
28.8556 2.4379210000000002
28.9556 2.266068
29.0556 2.4226349999999996
29.1556 2.381855
29.2556 2.337275
29.3556 2.38213
29.4556 2.3635979999999996
29.5556 2.339209
29.6556 2.34171
29.7556 2.388024
29.8556 2.384034
29.9556 2.281465
30.0556 2.351877
30.1556 2.354841
30.2556 2.262724
30.3556 2.3152589999999997
30.4556 2.355702
30.5556 2.2676269999999996
30.6556 2.283874
30.7556 2.3398549999999996
30.8556 2.232532
30.9556 2.328756
31.0556 2.1800469999999996
31.1556 2.2991070000000002
31.2556 2.239896
31.3556 2.24828
31.4556 2.2240879999999996
31.5556 2.1899140000000004
31.6556 2.220721
31.7556 2.259958
31.8556 2.2044330000000003
31.9556 2.18028
32.0556 2.1951650000000003
32.1556 2.220191
32.2556 2.236409
32.3556 2.150083
32.4556 2.123153
32.5556 2.204054
32.6556 2.0519529999999997
32.7556 2.1361879999999998
32.8556 2.264035
32.9556 2.034296
33.0556 2.058009
33.1556 2.050705
33.2556 2.073594
33.3556 2.061007
33.4556 2.1865099999999997
33.5556 1.9915999999999998
33.6556 2.085985
33.7556 2.0618819999999998
33.8556 2.0309019999999998
33.9556 2.0377530000000004
34.0556 1.9762000000000002
34.1556 2.0482760000000004
34.2556 1.97213
34.3556 2.0409080000000004
34.4556 2.0062610000000003
34.5556 2.0068390000000003
34.6556 1.975166
34.7556 1.9534129999999998
34.8556 1.9703750000000002
34.9556 2.022253
35.0556 1.901519
35.1556 2.041576
35.2556 1.96881
35.3556 2.043975
35.4556 1.9087250000000002
35.5556 2.030028
35.6556 1.9171519999999997
35.7556 1.887366
35.8556 2.008784
35.9556 1.900075
36.0556 2.034182
36.1556 2.004773
36.2556 1.8622260000000002
36.3556 1.99684
36.4556 1.954369
36.5556 1.9784439999999999
36.6556 1.931273
36.7556 1.932855
36.8556 1.9750510000000003
36.9556 1.9962539999999998
37.0556 1.888651
37.1556 1.9854249999999996
37.2556 1.998465
37.3556 1.9119
37.4556 1.9119709999999999
37.5556 1.943982
37.6556 1.9127
37.7556 1.945236
37.8556 1.9045999999999998
37.9556 1.836241
38.0556 1.9915859999999999
38.1556 1.839265
38.2556 1.946892
38.3556 1.7782229999999999
38.4556 1.900561
38.5556 1.841096
38.6556 1.859159
38.7556 1.8480860000000001
38.8556 1.8160360000000002
38.9556 1.8040999999999998
39.0556 1.8203880000000001
39.1556 1.778343
39.2556 1.835539
39.3556 1.806314
39.4556 1.75686
39.5556 1.7057479999999998
39.6556 1.7719039999999997
39.7556 1.7450080000000001
39.8556 1.729713
39.9556 1.7268050000000001
40.0556 1.6695250000000001
40.1556 1.726809
40.2556 1.6405459999999998
40.3556 1.691188
40.4556 1.7112319999999999
40.5556 1.615058
40.6556 1.592636
40.7556 1.6806530000000002
40.8556 1.546385
40.9556 1.6225869999999998
41.0556 1.5389369999999998
41.1556 1.612113
41.2556 1.582945
41.3556 1.51993
41.4556 1.514993
41.5556 1.492764
41.6556 1.5107650000000001
41.7556 1.409836
41.8556 1.481935
41.9556 1.523612
42.0556 1.45975
42.1556 1.346903
42.2556 1.435995
42.3556 1.351384
42.4556 1.440637
42.5556 1.3492390000000003
42.6556 1.3395140000000003
42.7556 1.274923
42.8556 1.345424
42.9556 1.326025
43.0556 1.300516
43.1556 1.281779
43.2556 1.321896
43.3556 1.224907
43.4556 1.327551
43.5556 1.222179
43.6556 1.255963
43.7556 1.233752
43.8556 1.3039949999999998
43.9556 1.231675
44.0556 1.218095
44.1556 1.23621
44.2556 1.2499360000000002
44.3556 1.167358
44.4556 1.249097
44.5556 1.160786
44.6556 1.219027
44.7556 1.129553
44.8556 1.2466840000000001
44.9556 1.141155
45.0556 1.189716
45.1556 1.106876
45.2556 1.202969
45.3556 1.16066
45.4556 1.149382
45.5556 1.1883200000000003
45.6556 1.13034
45.7556 1.150966
45.8556 1.130164
45.9556 1.147691
46.0556 1.120372
46.1556 1.110981
46.2556 1.110753
46.3556 1.157397
46.4556 1.050733
46.5556 1.18652
46.6556 1.054086
46.7556 1.070371
46.8556 1.028371
46.9556 1.1615600000000001
47.0556 1.043464
47.1556 1.1147049999999998
47.2556 1.038686
47.3556 1.0653139999999999
47.4556 1.0328410000000001
47.5556 1.091706
47.6556 1.080734
47.7556 1.0089219999999999
47.8556 1.010166
47.9556 1.0481660000000002
48.0556 1.080734
48.1556 1.040537
48.2556 0.9928559999999998
48.3556 0.981682
48.4556 1.049542
48.5556 0.989345
48.6556 1.0026220000000001
48.7556 1.0231890000000001
48.8556 1.03158
48.9556 1.068295
49.0556 0.9993709999999999
49.1556 1.0043090000000001
49.2556 0.971325
49.3556 1.007887
49.4556 0.982069
49.5556 1.001027
49.6556 1.014334
49.7556 0.969543
49.8556 1.031679
49.9556 0.967559
50.0556 0.9653150000000001
50.1556 1.007595
50.2556 0.949126
50.3556 0.9965350000000001
50.4556 0.964704
50.5556 1.0043879999999998
50.6556 0.951602
50.7556 1.0240420000000001
50.8556 0.9364629999999999
50.9556 0.992593
51.0556 0.9742270000000001
51.1556 0.9669289999999999
51.2556 0.9564460000000001
51.3556 0.950965
51.4556 1.003648
51.5556 0.95933
51.6556 0.99957
51.7556 0.9399689999999999
51.8556 0.964222
51.9556 0.986635
52.0556 0.982764
52.1556 0.9663410000000001
52.2556 0.9776330000000001
52.3556 0.9985189999999999
52.4556 0.990788
52.5556 0.985611
52.6556 1.015402
52.7556 0.952937
52.8556 1.003265
52.9556 1.00648
53.0556 0.989303
53.1556 0.970304
53.2556 0.983008
53.3556 0.9519619999999999
53.4556 1.0236440000000002
53.5556 0.976531
53.6556 0.9805790000000001
53.7556 0.979153
53.8556 0.998699
53.9556 0.961705
54.0556 0.993371
54.1556 0.9987280000000001
54.2556 0.973394
54.3556 0.978292
54.4556 0.977391
54.5556 0.9484130000000001
54.6556 0.990479
54.7556 0.963978
54.8556 0.929828
54.9556 0.9928880000000001
55.0556 0.9318040000000001
55.1556 0.986428
55.2556 0.96178
55.3556 0.934458
55.4556 0.940502
55.5556 0.925493
55.6556 0.967074
55.7556 0.9679709999999999
55.8556 0.953491
55.9556 0.960668
56.0556 0.9149670000000001
56.1556 0.998818
56.2556 0.8977379999999999
56.3556 0.951673
56.4556 0.926129
56.5556 0.91143
56.6556 0.920287
56.7556 0.9367420000000001
56.8556 0.900064
56.9556 0.9062250000000001
57.0556 0.911878
57.1556 0.9222880000000001
57.2556 0.92376
57.3556 0.9315709999999999
57.4556 0.938898
57.5556 0.9383360000000001
57.6556 0.9075980000000001
57.7556 0.9518909999999999
57.8556 0.938014
57.9556 0.916682
58.0556 0.919289
58.1556 0.932178
58.2556 0.9519449999999999
58.3556 0.957057
58.4556 0.935831
58.5556 0.965839
58.6556 1.005395
58.7556 0.941064
58.8556 0.954708
58.9556 1.0072860000000001
59.0556 0.92652
59.1556 1.00331
59.2556 0.99684
59.3556 0.976572
59.4556 1.014947
59.5556 0.984179
59.6556 1.0058150000000001
59.7556 1.0394009999999998
59.8556 1.0407410000000001
59.9556 1.063717
60.0556 0.9814860000000001
60.1556 1.062453
60.2556 1.054518
60.3556 1.080841
60.4556 1.0755659999999998
60.5556 1.056873
60.6556 1.071285
60.7556 1.095204
60.8556 1.081442
60.9556 1.075022
61.0556 1.074147
61.1556 1.086207
61.2556 1.127583
61.3556 1.0694709999999998
61.4556 1.11271
61.5556 1.098681
61.6556 1.050645
61.7556 1.104715
61.8556 1.085904
61.9556 1.0996599999999999
62.0556 1.0695489999999999
62.1556 1.0482809999999998
62.2556 1.090715
62.3556 1.0931659999999999
62.4556 1.0949170000000001
62.5556 1.062058
62.6556 1.121065
62.7556 1.122617
62.8556 1.081548
62.9556 1.111628
63.0556 1.112219
63.1556 1.120416
63.2556 1.190582
63.3556 1.06833
63.4556 1.137446
63.5556 1.1513440000000001
63.6556 1.174159
63.7556 1.128459
63.8556 1.149724
63.9556 1.170815
64.0556 1.184237
64.1556 1.136921
64.2556 1.176306
64.3556 1.135997
64.4556 1.194472
64.5556 1.153995
64.6556 1.081602
64.7556 1.1427589999999999
64.8556 1.1976380000000002
64.9556 1.1833170000000002
65.0556 1.153101
65.1556 1.170229
65.2556 1.1642489999999999
65.3556 1.18151
65.4556 1.15737
65.5556 1.161786
65.6556 1.105751
65.7556 1.165293
65.8556 1.160689
65.9556 1.1684249999999998
66.0556 1.1146449999999999
66.1556 1.177546
66.2556 1.098253
66.3556 1.137934
66.4556 1.130916
66.5556 1.188192
66.6556 1.147571
66.7556 1.1515760000000002
66.8556 1.171291
66.9556 1.096111
67.0556 1.12752
67.1556 1.138817
67.2556 1.140803
67.3556 1.1584809999999999
67.4556 1.103261
67.5556 1.051805
67.6556 1.110556
67.7556 1.077627
67.8556 1.037245
67.9556 1.1010600000000001
68.0556 1.0137690000000001
68.1556 1.066821
68.2556 1.0204250000000001
68.3556 0.978259
68.4556 1.042684
68.5556 1.021838
68.6556 0.9849279999999999
68.7556 0.968569
68.8556 0.930242
68.9556 0.9747790000000001
69.0556 0.9788399999999999
69.1556 0.9601649999999999
69.2556 0.897714
69.3556 0.948005
69.4556 0.892155
69.5556 0.879957
69.6556 0.9083110000000001
69.7556 0.901926
69.8556 0.872901
69.9556 0.84458
70.0556 0.9051139999999999
70.1556 0.8366560000000001
70.2556 0.83021
70.3556 0.7996089999999999
70.4556 0.8229879999999998
70.5556 0.7994140000000001
70.6556 0.786995
70.7556 0.856256
70.8556 0.8440840000000001
70.9556 0.785554
71.0556 0.8233220000000001
71.1556 0.8116920000000001
71.2556 0.838401
71.3556 0.7481749999999999
71.4556 0.773432
71.5556 0.816511
71.6556 0.7713619999999999
71.7556 0.786059
71.8556 0.800554
71.9556 0.7954769999999999
72.0556 0.7907080000000001
72.1556 0.767572
72.2556 0.7708550000000001
72.3556 0.7044739999999999
72.4556 0.7416959999999999
72.5556 0.727332
72.6556 0.7419060000000001
72.7556 0.641524
72.8556 0.759197
72.9556 0.673557
73.0556 0.644258
73.1556 0.686453
73.2556 0.66484
73.3556 0.682445
73.4556 0.652959
73.5556 0.620853
73.6556 0.636823
73.7556 0.6170769999999999
73.8556 0.6315769999999999
73.9556 0.592041
74.0556 0.6192449999999999
74.1556 0.601393
74.2556 0.59837
74.3556 0.561642
74.4556 0.583935
74.5556 0.572543
74.6556 0.583515
74.7556 0.5904269999999999
74.8556 0.567997
74.9556 0.546822
75.0556 0.5507610000000001
75.1556 0.562597
75.2556 0.571577
75.3556 0.5538379999999999
75.4556 0.52987
75.5556 0.576719
75.6556 0.5341359999999999
75.7556 0.539628
75.8556 0.555941
75.9556 0.473675
76.0556 0.49032100000000006
76.1556 0.5138990000000001
76.2556 0.52563
76.3556 0.47860899999999995
76.4556 0.486317
76.5556 0.49829100000000004
76.6556 0.472514
76.7556 0.48981
76.8556 0.46521500000000005
76.9556 0.49443300000000007
77.0556 0.472955
77.1556 0.432636
77.2556 0.47015999999999997
77.3556 0.48831499999999994
77.4556 0.44480899999999995
77.5556 0.44471799999999995
77.6556 0.468497
77.7556 0.44585199999999997
77.8556 0.44395300000000004
77.9556 0.455725
78.0556 0.423826
78.1556 0.453063
78.2556 0.434648
78.3556 0.435154
78.4556 0.475471
78.5556 0.444297
78.6556 0.47382900000000006
78.7556 0.448639
78.8556 0.464948
78.9556 0.46767000000000003
79.0556 0.488179
79.1556 0.499404
79.2556 0.477722
79.3556 0.501447
79.4556 0.47801899999999997
79.5556 0.458731
79.6556 0.4341089999999999
79.7556 0.459196
79.8556 0.44961899999999994
79.9556 0.445158
80.0556 0.457116
80.1556 0.42229900000000004
80.2556 0.40753400000000006
80.3556 0.456078
80.4556 0.375658
80.5556 0.40302
80.6556 0.400553
80.7556 0.420513
80.8556 0.39087800000000006
80.9556 0.384872
81.0556 0.355253
81.1556 0.362749
81.2556 0.375171
81.3556 0.35800400000000004
81.4556 0.374289
81.5556 0.34577399999999997
81.6556 0.355954
81.7556 0.348338
81.8556 0.336818
81.9556 0.33912000000000003
82.0556 0.33300099999999994
82.1556 0.346178
82.2556 0.355095
82.3556 0.324784
82.4556 0.34058700000000003
82.5556 0.357912
82.6556 0.310769
82.7556 0.312882
82.8556 0.307302
82.9556 0.35669100000000004
83.0556 0.325131
83.1556 0.282657
83.2556 0.317458
83.3556 0.30222899999999997
83.4556 0.26113200000000003
83.5556 0.239499
83.6556 0.3427
83.7556 0.253298
83.8556 0.293633
83.9556 0.29054199999999997
84.0556 0.265984
84.1556 0.26168500000000006
84.2556 0.24747399999999997
84.3556 0.22876
84.4556 0.248738
84.5556 0.204902
84.6556 0.269903
84.7556 0.22524799999999998
84.8556 0.209152
84.9556 0.231319
85.0556 0.23295700000000003
85.1556 0.261648
85.2556 0.22895600000000002
85.3556 0.264693
85.4556 0.23657000000000003
85.5556 0.280406
85.6556 0.237754
85.7556 0.257496
85.8556 0.261681
85.9556 0.31959899999999997
86.0556 0.252965
86.1556 0.297718
86.2556 0.301828
86.3556 0.286366
86.4556 0.281381
86.5556 0.339256
86.6556 0.3246450000000001
86.7556 0.309781
86.8556 0.311554
86.9556 0.33733799999999997
87.0556 0.337229
87.1556 0.330665
87.2556 0.29991500000000004
87.3556 0.309129
87.4556 0.29858100000000004
87.5556 0.285252
87.6556 0.23353000000000002
87.7556 0.252559
87.8556 0.34075099999999997
87.9556 0.281997
88.0556 0.232758
88.1556 0.277272
88.2556 0.228475
88.3556 0.27374699999999996
88.4556 0.21781499999999998
88.5556 0.236935
88.6556 0.239216
88.7556 0.26582999999999996
88.8556 0.173233
88.9556 0.21888800000000003
89.0556 0.19951000000000002
89.1556 0.19085000000000002
89.2556 0.21226
89.3556 0.176104
89.4556 0.15988
89.5556 0.171552
89.6556 0.235859
89.7556 0.138453
89.8556 0.17347200000000002
89.9556 0.18393700000000002
90.0556 0.149959
90.1556 0.18733300000000003
90.2556 0.191233
90.3556 0.185992
90.4556 0.204769
90.5556 0.229797
90.6556 0.17175200000000002
90.7556 0.19700700000000002
90.8556 0.176609
90.9556 0.187053
91.0556 0.207172
91.1556 0.201492
91.2556 0.173683
91.3556 0.16528
91.4556 0.133821
91.5556 0.14508900000000002
91.6556 0.139711
91.7556 0.18828099999999998
91.8556 0.13956300000000002
91.9556 0.153792
92.0556 0.16098
92.1556 0.11469099999999999
92.2556 0.181565
92.3556 0.13297899999999999
92.4556 0.125997
92.5556 0.091355
92.6556 0.089208
92.7556 0.138755
92.8556 0.11167200000000001
92.9556 0.112485
93.0556 0.122919
93.1556 0.088605
93.2556 0.097302
93.3556 0.057809
93.4556 0.078927
93.5556 0.039925999999999996
93.6556 0.054669999999999996
93.7556 0.036844999999999996
93.8556 0.041419
93.9556 0.024918000000000003
94.0556 0.038321
94.1556 0.034763
94.2556 0.045611000000000006
94.3556 0.017356
94.4556 0.030644
94.5556 0.048571
94.6556 0.012692
94.7556 0.042636
94.8556 0.025767999999999996
94.9556 0.041040999999999994
95.0556 0.02165
95.1556 0.027479999999999997
95.2556 0.029033
95.3556 0.022327999999999997
95.4556 0.030244
95.5556 0.047498000000000005
95.6556 0.03889599999999999
95.7556 0.046313
95.8556 0.073555
95.9556 0.031077999999999998
96.0556 0.045875
96.1556 0.09498400000000001
96.2556 0.052642999999999995
96.3556 0.061389
96.4556 0.070069
96.5556 0.06290699999999999
96.6556 0.10223199999999999
96.7556 0.062214000000000005
96.8556 0.093146
96.9556 0.069873
97.0556 0.08564
97.1556 0.12426300000000001
97.2556 0.101056
97.3556 0.149574
97.4556 0.085409
97.5556 0.13248600000000002
97.6556 0.068964
97.7556 0.101218
97.8556 0.154573
97.9556 0.153518
98.0556 0.117785
98.1556 0.220546
98.2556 0.11021
98.3556 0.17464999999999997
98.4556 0.160505
98.5556 0.102543
98.6556 0.125259
98.7556 0.102934
98.8556 0.09574300000000001
98.9556 0.10332399999999999
99.0556 0.054919
99.1556 0.084142
99.2556 0.122916
99.3556 0.163414
99.4556 0.07024100000000001
99.5556 0.14279899999999998
99.6556 0.109023
99.7556 0.096621
99.8556 0.046712
99.9556 0.11698700000000001
100.056 0.121111
100.156 0.08934600000000001
100.256 0.082724
100.356 0.12463899999999999
100.456 0.08574799999999999
100.556 0.09417199999999999
100.656 0.07808
100.756 0.08690600000000001
100.856 0.12580899999999998
100.956 0.079085
101.056 0.178359
101.156 0.08848
101.256 0.106471
101.356 0.12558
101.456 0.118641
101.556 0.150986
101.656 0.15072100000000002
101.756 0.147175
101.856 0.108364
101.956 0.12825899999999998
102.056 0.144047
102.156 0.18824100000000002
102.256 0.155661
102.356 0.129907
102.456 0.150445
102.556 0.14544100000000001
102.656 0.1205
102.756 0.174613
102.856 0.144662
102.956 0.15770399999999998
103.056 0.184329
103.156 0.171587
103.256 0.119309
