-47.2585 1.381442
-47.1585 0.45374400000000004
-47.0585 0.568326
-46.9585 0.58332
-46.8585 0.608102
-46.7585 0.727885
-46.6585 0.792463
-46.5585 0.6629550000000001
-46.4585 0.777343
-46.3585 0.802237
-46.2585 0.6426799999999999
-46.1585 0.557996
-46.0585 0.428405
-45.9585 0.528176
-45.8585 0.323812
-45.7585 0.333688
-45.6585 0.214155
-45.5585 0.179314
-45.4585 0.129458
-45.3585 0.09461399999999999
-45.2585 0.074694
-45.1585 0.019930999999999997
-45.0585 0.034863
-44.9585 0.019916999999999997
-44.8585 0.009956
-44.7585 0.0
-44.6585 0.009953
-44.5585 0.0
-44.4585 0.0
-44.3585 0.0
-44.2585 0.0
-44.1585 0.004965
-44.0585 0.0
-43.9585 0.0
-43.8585 0.0
-43.7585 0.0
-43.6585 0.0
-43.5585 0.0
-43.4585 0.0
-43.3585 0.0
-43.2585 0.0
-43.1585 0.0
-43.0585 0.0
-42.9585 0.0
-42.8585 0.0
-42.7585 0.0
-42.6585 0.0
-42.5585 0.0
-42.4585 0.0
-42.3585 0.0
-42.2585 0.0
-42.1585 0.0
-42.0585 0.0
-41.9585 0.0
-41.8585 0.0
-41.7585 0.0
-41.6585 0.0
-41.5585 0.0
-41.4585 0.0
-41.3585 0.0
-41.2585 0.0
-41.1585 0.0
-41.0585 0.0
-40.9585 0.0
-40.8585 0.0
-40.7585 0.0
-40.6585 0.0
-40.5585 0.0
-40.4585 0.0
-40.3585 0.0
-40.2585 0.0
-40.1585 0.0
-40.0585 0.0
-39.9585 0.0
-39.8585 0.0
-39.7585 0.0
-39.6585 0.0
-39.5585 0.0
-39.4585 0.0
-39.3585 0.0
-39.2585 0.0
-39.1585 0.0
-39.0585 0.0
-38.9585 0.0
-38.8585 0.0
-38.7585 0.0
-38.6585 0.0
-38.5585 0.0
-38.4585 0.0
-38.3585 0.0
-38.2585 0.0
-38.1585 0.0
-38.0585 0.0
-37.9585 0.0
-37.8585 0.0
-37.7585 0.0
-37.6585 0.0
-37.5585 0.0
-37.4585 0.0
-37.3585 0.0
-37.2585 0.0
-37.1585 0.0
-37.0585 0.0
-36.9585 0.0
-36.8585 0.0
-36.7585 0.0
-36.6585 0.0
-36.5585 0.0
-36.4585 0.0
-36.3585 0.0
-36.2585 0.0
-36.1585 0.0
-36.0585 0.0
-35.9585 0.0
-35.8585 0.0
-35.7585 0.0
-35.6585 0.0
-35.5585 0.0
-35.4585 0.0
-35.3585 0.0
-35.2585 0.0
-35.1585 0.0
-35.0585 0.0
-34.9585 0.0
-34.8585 0.0
-34.7585 0.0
-34.6585 0.0
-34.5585 0.0
-34.4585 0.0
-34.3585 0.0
-34.2585 0.0
-34.1585 0.0
-34.0585 0.0
-33.9585 0.0
-33.8585 0.0
-33.7585 0.0
-33.6585 0.0
-33.5585 0.0
-33.4585 0.0
-33.3585 0.0
-33.2585 0.0
-33.1585 0.0
-33.0585 0.0
-32.9585 0.0
-32.8585 0.0
-32.7585 0.0
-32.6585 0.0
-32.5585 0.0
-32.4585 0.0
-32.3585 0.0
-32.2585 0.0
-32.1585 0.0
-32.0585 0.0
-31.9585 0.0
-31.8585 0.0
-31.7585 0.009622
-31.6585 0.004788000000000001
-31.5585 0.004798
-31.4585 0.0
-31.3585 0.014387
-31.2585 0.024135999999999998
-31.1585 0.024081
-31.0585 0.06770699999999999
-30.9585 0.11081800000000001
-30.8585 0.12994
-30.7585 0.192711
-30.6585 0.308784
-30.5585 0.32789599999999997
-30.4585 0.636558
-30.3585 0.8153100000000001
-30.2585 0.811606
-30.1585 0.985
-30.0585 1.125704
-29.9585 1.203141
-29.8585 1.2853760000000003
-29.7585 1.3353749999999998
-29.6585 1.407929
-29.5585 1.223857
-29.4585 1.18529
-29.3585 1.2106580000000002
-29.2585 0.943637
-29.1585 0.778823
-29.0585 0.8074129999999999
-28.9585 0.6208070000000001
-28.8585 0.5546270000000002
-28.7585 0.493521
-28.6585 0.42424199999999995
-28.5585 0.505155
-28.4585 0.528671
-28.3585 0.776672
-28.2585 0.994255
-28.1585 1.04789
-28.0585 1.18949
-27.9585 1.3988420000000001
-27.8585 1.619001
-27.7585 1.8330189999999997
-27.6585 2.0813680000000003
-27.5585 2.057875
-27.4585 2.119279
-27.3585 2.09309
-27.2585 2.148986
-27.1585 2.063091
-27.0585 2.0182550000000004
-26.9585 1.8539779999999997
-26.8585 1.671824
-26.7585 1.548993
-26.6585 1.4719300000000002
-26.5585 1.1227209999999999
-26.4585 1.036556
-26.3585 0.7379410000000001
-26.2585 0.7146039999999999
-26.1585 0.5740249999999999
-26.0585 0.402134
-25.9585 0.365898
-25.8585 0.35640199999999994
-25.7585 0.414062
-25.6585 0.395447
-25.5585 0.33638999999999997
-25.4585 0.4709339999999999
-25.3585 0.604801
-25.2585 0.654513
-25.1585 0.66739
-25.0585 0.766446
-24.9585 0.924704
-24.8585 0.9080489999999999
-24.7585 0.9500259999999999
-24.6585 0.929299
-24.5585 1.009263
-24.4585 1.0344
-24.3585 1.089973
-24.2585 1.049607
-24.1585 1.10517
-24.0585 1.2697
-23.9585 1.042426
-23.8585 1.058786
-23.7585 1.250024
-23.6585 1.3176199999999998
-23.5585 1.2560069999999999
-23.4585 1.348227
-23.3585 1.1389989999999999
-23.2585 1.119969
-23.1585 1.0598969999999999
-23.0585 1.0759140000000003
-22.9585 0.941406
-22.8585 0.979129
-22.7585 0.8841880000000001
-22.6585 0.859361
-22.5585 0.9799969999999999
-22.4585 1.0279540000000003
-22.3585 1.239258
-22.2585 1.1807400000000001
-22.1585 1.283018
-22.0585 1.503434
-21.9585 1.604321
-21.8585 1.7609519999999996
-21.7585 1.722716
-21.6585 2.012051
-21.5585 1.7854390000000002
-21.4585 1.979328
-21.3585 2.034149
-21.2585 1.947439
-21.1585 2.0105939999999998
-21.0585 1.9430299999999998
-20.9585 1.9751040000000002
-20.8585 1.7514419999999997
-20.7585 1.63609
-20.6585 1.623442
-20.5585 1.3284060000000002
-20.4585 1.377918
-20.3585 1.193159
-20.2585 1.0324290000000003
-20.1585 0.8669149999999999
-20.0585 0.7260369999999999
-19.9585 0.579323
-19.8585 0.560773
-19.7585 0.30904299999999996
-19.6585 0.36912900000000004
-19.5585 0.202608
-19.4585 0.20281300000000005
-19.3585 0.151928
-19.2585 0.137592
-19.1585 0.137061
-19.0585 0.136928
-18.9585 0.127115
-18.8585 0.15360000000000001
-18.7585 0.16282699999999997
-18.6585 0.26263000000000003
-18.5585 0.299122
-18.4585 0.349089
-18.3585 0.38534
-18.2585 0.4214959999999999
-18.1585 0.567354
-18.0585 0.47181499999999993
-17.9585 0.603859
-17.8585 0.559045
-17.7585 0.5772919999999999
-17.6585 0.528072
-17.5585 0.518507
-17.4585 0.5007330000000001
-17.3585 0.42792500000000006
-17.2585 0.363812
-17.1585 0.350493
-17.0585 0.273199
-16.9585 0.223208
-16.8585 0.15967299999999998
-16.7585 0.168866
-16.6585 0.109755
-16.5585 0.10504000000000001
-16.4585 0.059359999999999996
-16.3585 0.041187
-16.2585 0.026321999999999998
-16.1585 0.026924000000000003
-16.0585 0.017137999999999997
-15.9585 0.037241
-15.8585 0.058508
-15.7585 0.080993
-15.6585 0.14849600000000002
-15.5585 0.249012
-15.4585 0.32987400000000006
-15.3585 0.36179900000000004
-15.2585 0.5640040000000001
-15.1585 0.6408860000000001
-15.0585 0.762008
-14.9585 0.877718
-14.8585 0.896715
-14.7585 0.890578
-14.6585 1.017598
-14.5585 0.9548570000000001
-14.4585 0.974581
-14.3585 1.016754
-14.2585 0.908131
-14.1585 1.0179639999999999
-14.0585 0.9145360000000001
-13.9585 0.9893079999999999
-13.8585 0.989527
-13.7585 1.159865
-13.6585 1.274118
-13.5585 1.198243
-13.4585 1.372856
-13.3585 1.2323149999999998
-13.2585 1.3698359999999998
-13.1585 1.383856
-13.0585 1.310576
-12.9585 1.3932980000000001
-12.8585 1.476434
-12.7585 1.609595
-12.6585 1.514413
-12.5585 1.6467979999999998
-12.4585 1.7731530000000002
-12.3585 1.996266
-12.2585 1.848565
-12.1585 1.897072
-12.0585 1.9397609999999998
-11.9585 1.605312
-11.8585 1.506014
-11.7585 1.19737
-11.6585 1.071067
-11.5585 0.785371
-11.4585 0.62252
-11.3585 0.677611
-11.2585 0.667782
-11.1585 0.658123
-11.0585 0.712287
-10.9585 1.029351
-10.8585 1.196747
-10.7585 1.413556
-10.6585 1.732179
-10.5585 1.9296060000000002
-10.4585 2.31958
-10.3585 2.603562
-10.2585 3.114176
-10.1585 3.516095
-10.0585 3.7764069999999994
-9.95851 3.908162
-9.8585 4.351570999999999
-9.7585 4.6071789999999995
-9.6585 4.9079939999999995
-9.55851 4.831531
-9.45851 5.0322510000000005
-9.3585 4.730127
-9.2585 4.47571
-9.1585 4.012628
-9.05851 3.810282
-8.95851 3.193195
-8.8585 2.8899940000000006
-8.7585 2.4218269999999995
-8.6585 2.3479170000000003
-8.55851 1.921714
-8.45851 1.824333
-8.3585 1.58342
-8.2585 1.466195
-8.1585 1.724849
-8.05851 1.590177
-7.9585 1.7200890000000002
-7.85851 1.9242009999999998
-7.75851 2.0651479999999998
-7.65851 2.229905
-7.55851 2.569499
-7.4585 2.744842
-7.35851 2.84757
-7.25851 3.161538
-7.15851 3.237357
-7.05851 3.585385
-6.9585 3.918195
-6.85851 4.34428
-6.75851 4.682858
-6.65851 5.181337
-6.55851 5.63408
-6.4585 5.660318
-6.35851 6.267985
-6.25851 6.469746
-6.15851 6.704820999999999
-6.05851 7.440841000000001
-5.9585 7.4396759999999995
-5.85851 7.506358
-5.75851 7.551960000000001
-5.65851 7.516936
-5.55851 7.792132
-5.4585 7.898827000000001
-5.35851 8.061846000000001
-5.25851 7.837633999999999
-5.1585 7.777187999999999
-5.05851 7.475206999999999
-4.9585 7.22832
-4.85851 7.139148
-4.75851 6.719760000000001
-4.6585 6.471574
-4.55851 6.170256
-4.4585 5.804726
-4.35851 5.301215
-4.25851 4.962244999999999
-4.1585 4.219903
-4.05851 4.1512329999999995
-3.95851 3.93423
-3.8585 3.734846
-3.7585 3.699779
-3.6585 3.457325
-3.5585 3.5316289999999997
-3.45851 3.542559
-3.3585 3.598368
-3.2585 3.813736
-3.1585 3.8915150000000005
-3.0585 4.141985999999999
-2.95851 4.252591
-2.8585 4.413748999999999
-2.7585 4.6135779999999995
-2.6585 4.9066399999999994
-2.5585 4.929035999999999
-2.45851 5.107176000000001
-2.35851 5.411257000000001
-2.2585 5.4651250000000005
-2.1585 5.6592769999999994
-2.0585 5.720473
-1.9585 5.722957
-1.85851 5.8615070000000005
-1.75851 5.982108
-1.6585 6.031485
-1.55851 5.812411999999999
-1.4585 5.712511
-1.35851 5.555909
-1.2585 5.178488
-1.1585 4.847541
-1.05851 4.596907
-0.958505 4.282705
-0.858505 3.491307
-0.758505 3.1073749999999998
-0.658505 2.843543
-0.558505 2.376518
-0.458505 1.8298710000000002
-0.358505 1.488988
-0.258505 1.235643
-0.158505 1.00082
-0.058505 0.7736719999999999
0.041495 0.532462
0.141495 0.33066500000000004
0.241495 0.312809
0.341495 0.185877
0.441495 0.10663100000000002
0.541495 0.08746000000000001
0.641495 0.042157
0.741495 0.018179999999999998
0.841495 0.009437999999999998
0.941495 0.009573000000000002
1.0415 0.004558
1.14149 0.0
1.2415 0.0
1.3415 0.0
1.44149 0.0
1.5415 0.0
1.64149 0.0
1.74149 0.0
1.8415 0.0
1.94149 0.0
2.04149 0.0
2.14149 0.0
2.2415 0.0
2.3415 0.0
2.4415 0.0
2.54149 0.0
2.64149 0.0
2.7415 0.0
2.8415 0.0
2.9415 0.0
3.04149 0.0
3.1415 0.0
3.2415 0.0
3.3415 0.0
3.4415 0.004527
3.54149 0.0
3.6415 0.008924
3.7415 0.0
3.8415 0.013493999999999999
3.9415 0.035511
4.0415 0.02729
4.14149 0.049241
4.24149 0.04904499999999999
4.3415 0.061083000000000005
4.44149 0.091866
4.5415 0.133635
4.64149 0.20084
4.74149 0.277652
4.8415 0.312166
4.94149 0.351078
5.0415 0.43210699999999996
5.14149 0.513146
5.24149 0.616779
5.34149 0.739554
5.44149 0.7042109999999999
5.5415 0.8742459999999999
5.64149 0.9311079999999999
5.74149 1.201602
5.84149 1.144664
5.94149 1.234039
6.0415 1.324989
6.14149 1.5109650000000001
6.24149 1.6359640000000002
6.34149 1.7330100000000002
6.44149 2.019141
6.5415 2.2398969999999996
6.64149 2.1895229999999994
6.74149 2.403516
6.84149 2.5016760000000002
6.94149 2.645054
7.0415 2.8050569999999997
7.14149 2.6292109999999997
7.24149 2.757953
7.34149 2.632809
7.44149 2.560461
7.5415 2.4898089999999997
7.64149 2.464679
7.74149 2.483108
7.84149 2.345322
7.94149 2.204408
8.04149 2.21472
8.1415 2.177899
8.2415 2.174259
8.3415 1.945122
8.44149 1.911596
8.54149 1.8443869999999998
8.6415 1.9226779999999999
8.7415 1.852334
8.8415 1.9049580000000002
8.94149 1.841603
9.04149 1.762813
9.1415 1.8970559999999996
9.2415 1.7884360000000001
9.3415 1.911453
9.44149 1.907269
9.54149 1.9327400000000001
9.6415 1.966937
9.7415 2.08157
9.8415 2.054202
9.94149 2.144842
10.0415 2.204076
10.1415 2.285866
10.2415 2.310019
10.3415 2.3798870000000005
10.4415 2.38423
10.5415 2.503658
10.6415 2.582033
10.7415 2.7230179999999997
10.8415 2.6121659999999998
10.9415 2.749271
11.0415 2.718901
11.1415 2.82171
11.2415 2.811406
11.3415 2.86874
11.4415 2.823547
11.5415 2.85922
11.6415 2.831298
11.7415 2.8026609999999996
11.8415 2.8982780000000004
11.9415 2.788802
12.0415 2.8027070000000003
12.1415 2.7214750000000003
12.2415 2.57607
12.3415 2.665994
12.4415 2.581379
12.5415 2.5196039999999997
12.6415 2.4797130000000003
12.7415 2.436009
12.8415 2.2464049999999998
12.9415 2.285041
13.0415 2.23662
13.1415 2.041793
13.2415 2.08665
13.3415 1.965122
13.4415 1.9169950000000002
13.5415 1.8566830000000003
13.6415 1.855613
13.7415 1.749396
13.8415 1.6956190000000002
13.9415 1.717658
14.0415 1.576142
14.1415 1.7035560000000003
14.2415 1.6324489999999998
14.3415 1.6401970000000001
14.4415 1.5727119999999999
14.5415 1.5765010000000002
14.6415 1.535568
14.7415 1.499498
14.8415 1.558623
14.9415 1.542714
15.0415 1.543066
15.1415 1.5057939999999999
15.2415 1.545796
15.3415 1.575897
15.4415 1.5895720000000002
15.5415 1.608448
15.6415 1.607799
15.7415 1.7169719999999997
15.8415 1.726434
15.9415 1.75701
16.0415 1.867073
16.1415 1.8704399999999999
16.2415 1.893107
16.3415 2.030282
16.4415 2.0807
16.5415 2.176165
16.6415 2.191272
16.7415 2.290975
16.8415 2.30365
16.9415 2.364022
17.0415 2.423571
17.1415 2.4655219999999995
17.2415 2.4288440000000002
17.3415 2.472441
17.4415 2.470609
17.5415 2.504664
17.6415 2.4177589999999998
17.7415 2.4996549999999997
17.8415 2.4047379999999996
17.9415 2.501759
18.0415 2.4204240000000006
18.1415 2.387605
18.2415 2.4193869999999995
18.3415 2.439718
18.4415 2.425711
18.5415 2.434985
18.6415 2.4147849999999997
18.7415 2.380849
18.8415 2.465732
18.9415 2.405888
19.0415 2.452092
19.1415 2.510212
19.2415 2.4751659999999998
19.3415 2.515101
19.4415 2.4421
19.5415 2.521691
19.6415 2.5006589999999997
19.7415 2.5443550000000004
19.8415 2.5731850000000005
19.9415 2.6276699999999997
20.0415 2.551577
20.1415 2.577964
20.2415 2.6327420000000004
20.3415 2.5853249999999997
20.4415 2.649241
20.5415 2.570509
20.6415 2.640945
20.7415 2.6513649999999997
20.8415 2.666478
20.9415 2.740662
21.0415 2.6705350000000005
21.1415 2.689722
21.2415 2.5790049999999995
21.3415 2.697279
21.4415 2.7391240000000003
21.5415 2.678836
21.6415 2.649817
21.7415 2.7322420000000003
21.8415 2.6675139999999997
21.9415 2.7207689999999998
22.0415 2.763029
22.1415 2.694475
22.2415 2.640305
22.3415 2.674155
22.4415 2.660925
22.5415 2.6672770000000003
22.6415 2.6165199999999995
22.7415 2.751207
22.8415 2.628116
22.9415 2.645707
23.0415 2.6522280000000005
23.1415 2.6225739999999997
23.2415 2.7409789999999994
23.3415 2.622941
23.4415 2.6030840000000004
23.5415 2.6396200000000003
23.6415 2.634304
23.7415 2.623462
23.8415 2.537016
23.9415 2.624327
24.0415 2.53323
24.1415 2.630972
24.2415 2.534605
24.3415 2.580133
24.4415 2.587621
24.5415 2.541888
24.6415 2.6058250000000003
24.7415 2.507773
24.8415 2.60388
24.9415 2.558093
25.0415 2.528886
25.1415 2.551669
25.2415 2.602998
25.3415 2.4133669999999996
25.4415 2.6201369999999997
25.5415 2.55673
25.6415 2.542187
25.7415 2.4903959999999996
25.8415 2.5801879999999997
25.9415 2.5311839999999997
26.0415 2.529223
26.1415 2.534356
26.2415 2.5310970000000004
26.3415 2.5285539999999997
26.4415 2.5358799999999997
26.5415 2.561339
26.6415 2.547556
26.7415 2.6339859999999997
26.8415 2.528661
26.9415 2.4690380000000003
27.0415 2.597606
27.1415 2.502737
27.2415 2.607767
27.3415 2.4942889999999998
27.4415 2.647777
27.5415 2.487498
27.6415 2.538716
27.7415 2.5490540000000004
27.8415 2.558005
27.9415 2.543377
28.0415 2.505263
28.1415 2.5792829999999998
28.2415 2.5473850000000002
28.3415 2.524518
28.4415 2.6215859999999997
28.5415 2.50735
28.6415 2.426482
28.7415 2.534282
28.8415 2.556847
28.9415 2.527667
29.0415 2.4588520000000003
29.1415 2.528573
29.2415 2.428328
29.3415 2.539166
29.4415 2.497259
29.5415 2.498832
29.6415 2.485343
29.7415 2.457023
29.8415 2.509416
29.9415 2.4297540000000004
30.0415 2.487231
30.1415 2.493595
30.2415 2.3749890000000002
30.3415 2.542201
30.4415 2.3971800000000005
30.5415 2.4830099999999997
30.6415 2.3830640000000005
30.7415 2.4001599999999996
30.8415 2.3553469999999996
30.9415 2.350429
31.0415 2.404867
31.1415 2.418774
31.2415 2.383198
31.3415 2.3593640000000002
31.4415 2.3167780000000002
31.5415 2.339642
31.6415 2.3443020000000003
31.7415 2.306251
31.8415 2.335367
31.9415 2.324885
32.0415 2.3152399999999997
32.1415 2.284527
32.2415 2.2807030000000004
32.3415 2.2749789999999996
32.4415 2.226267
32.5415 2.269087
32.6415 2.291351
32.7415 2.310131
32.8415 2.261673
32.9415 2.204559
33.0415 2.209133
33.1415 2.2554019999999997
33.2415 2.137788
33.3415 2.292725
33.4415 2.116616
33.5415 2.1611589999999996
33.6415 2.231689
33.7415 2.151806
33.8415 2.0346670000000002
33.9415 2.220064
34.0415 2.111696
34.1415 2.1373260000000003
34.2415 2.124518
34.3415 2.13896
34.4415 2.1077700000000004
34.5415 2.1307029999999996
34.6415 2.1078699999999997
34.7415 2.084788
34.8415 2.0988929999999995
34.9415 2.081898
35.0415 2.037952
35.1415 2.113275
35.2415 2.0796680000000003
35.3415 2.043836
35.4415 2.166132
35.5415 2.034061
35.6415 2.083147
35.7415 2.11335
35.8415 2.0624279999999997
35.9415 2.1280149999999995
36.0415 2.049074
36.1415 2.06116
36.2415 2.0883
36.3415 2.0857180000000004
36.4415 2.003123
36.5415 2.127502
36.6415 2.060865
36.7415 2.111521
36.8415 2.0602699999999996
36.9415 2.1381970000000003
37.0415 2.0891830000000002
37.1415 2.032565
37.2415 2.1075410000000003
37.3415 2.0130179999999998
37.4415 2.0429039999999996
37.5415 2.09625
37.6415 2.019075
37.7415 2.049903
37.8415 2.01028
37.9415 2.019693
38.0415 2.008766
38.1415 2.06247
38.2415 1.9444400000000002
38.3415 1.995254
38.4415 1.9783680000000001
38.5415 1.9032540000000002
38.6415 1.975041
38.7415 1.9451950000000002
38.8415 1.9129999999999998
38.9415 1.901096
39.0415 1.8556129999999997
39.1415 1.850711
39.2415 1.9133909999999998
39.3415 1.8483949999999998
39.4415 1.8252419999999998
39.5415 1.8423489999999998
39.6415 1.8236809999999999
39.7415 1.8184319999999998
39.8415 1.686842
39.9415 1.814263
40.0415 1.7328240000000001
40.1415 1.756802
40.2415 1.718698
40.3415 1.697789
40.4415 1.6894449999999999
40.5415 1.6396560000000002
40.6415 1.6838019999999998
40.7415 1.6991200000000002
40.8415 1.5880439999999998
40.9415 1.590813
41.0415 1.6062319999999999
41.1415 1.5880629999999998
41.2415 1.613651
41.3415 1.5857210000000002
41.4415 1.571383
41.5415 1.4857840000000002
41.6415 1.526012
41.7415 1.483716
41.8415 1.513817
41.9415 1.461598
42.0415 1.404835
42.1415 1.45644
42.2415 1.445068
42.3415 1.3954460000000002
42.4415 1.3316020000000002
42.5415 1.404028
42.6415 1.342201
42.7415 1.301656
42.8415 1.359477
42.9415 1.30296
43.0415 1.322404
43.1415 1.279001
43.2415 1.247216
43.3415 1.287879
43.4415 1.24037
43.5415 1.26208
43.6415 1.2557010000000002
43.7415 1.23579
43.8415 1.2591010000000002
43.9415 1.214513
44.0415 1.189333
44.1415 1.24894
44.2415 1.1466529999999997
44.3415 1.203879
44.4415 1.215436
44.5415 1.18162
44.6415 1.133392
44.7415 1.137997
44.8415 1.1516330000000001
44.9415 1.1853
45.0415 1.154313
45.1415 1.112658
45.2415 1.148476
45.3415 1.1165729999999998
45.4415 1.1199059999999998
45.5415 1.109772
45.6415 1.107037
45.7415 1.0561690000000001
45.8415 1.138142
45.9415 1.1111970000000002
46.0415 1.084339
46.1415 1.051428
46.2415 1.063015
46.3415 1.08818
46.4415 1.080212
46.5415 1.037865
46.6415 1.058464
46.7415 1.028276
46.8415 1.045936
46.9415 1.023499
47.0415 1.002071
47.1415 0.9943609999999999
47.2415 1.047677
47.3415 1.0133569999999998
47.4415 0.974223
47.5415 0.9550219999999999
47.6415 0.9717720000000001
47.7415 1.011704
47.8415 0.934167
47.9415 1.011958
48.0415 0.9531799999999999
48.1415 0.967085
48.2415 0.9847710000000001
48.3415 0.9540770000000001
48.4415 0.9315370000000001
48.5415 0.9452689999999998
48.6415 0.945351
48.7415 0.954685
48.8415 0.938426
48.9415 0.9535580000000001
49.0415 0.941933
49.1415 0.9127550000000001
49.2415 0.944658
49.3415 0.93087
49.4415 0.897121
49.5415 0.9254560000000001
49.6415 0.920924
49.7415 0.896004
49.8415 0.8919350000000001
49.9415 0.933019
50.0415 0.888637
50.1415 0.858166
50.2415 0.9192819999999999
50.3415 0.8953310000000001
50.4415 0.8752390000000001
50.5415 0.904829
50.6415 0.883115
50.7415 0.874154
50.8415 0.876451
50.9415 0.897848
51.0415 0.9074639999999999
51.1415 0.8802039999999999
51.2415 0.886501
51.3415 0.8808600000000001
51.4415 0.883615
51.5415 0.8997799999999999
51.6415 0.8853540000000001
51.7415 0.865585
51.8415 0.8852510000000001
51.9415 0.887411
52.0415 0.8994470000000001
52.1415 0.886804
52.2415 0.8752500000000001
52.3415 0.883218
52.4415 0.875532
52.5415 0.875947
52.6415 0.8728360000000001
52.7415 0.896059
52.8415 0.860201
52.9415 0.8488840000000001
53.0415 0.8749450000000001
53.1415 0.8801229999999999
53.2415 0.8631120000000001
53.3415 0.906502
53.4415 0.849406
53.5415 0.8777569999999999
53.6415 0.856809
53.7415 0.8830180000000001
53.8415 0.885598
53.9415 0.8520599999999999
54.0415 0.8410150000000001
54.1415 0.8489779999999999
54.2415 0.8818
54.3415 0.827946
54.4415 0.8678710000000001
54.5415 0.8457069999999999
54.6415 0.842547
54.7415 0.858845
54.8415 0.825672
54.9415 0.8464990000000001
55.0415 0.862791
55.1415 0.816177
55.2415 0.851394
55.3415 0.8276209999999999
55.4415 0.8022650000000001
55.5415 0.8437709999999999
55.6415 0.842301
55.7415 0.827633
55.8415 0.809462
55.9415 0.8390429999999999
56.0415 0.802431
56.1415 0.8214699999999999
56.2415 0.8215770000000001
56.3415 0.790779
56.4415 0.7849740000000001
56.5415 0.831917
56.6415 0.793005
56.7415 0.8208669999999999
56.8415 0.7912180000000001
56.9415 0.7892099999999999
57.0415 0.804407
57.1415 0.790814
57.2415 0.791673
57.3415 0.7899529999999999
57.4415 0.800285
57.5415 0.7996570000000001
57.6415 0.789155
57.7415 0.7965550000000001
57.8415 0.802113
57.9415 0.7685019999999999
58.0415 0.809737
58.1415 0.804688
58.2415 0.7928700000000001
58.3415 0.81902
58.4415 0.8137320000000001
58.5415 0.8073629999999999
58.6415 0.8118770000000001
58.7415 0.8275440000000001
58.8415 0.843523
58.9415 0.8279129999999999
59.0415 0.8467459999999999
59.1415 0.862629
59.2415 0.8623979999999999
59.3415 0.885752
59.4415 0.8825550000000001
59.5415 0.8827579999999999
59.6415 0.912281
59.7415 0.886989
59.8415 0.908936
59.9415 0.9154249999999999
60.0415 0.9308620000000001
60.1415 0.9652890000000001
60.2415 0.936874
60.3415 0.932597
60.4415 0.975258
60.5415 0.9260070000000001
60.6415 0.9624179999999999
60.7415 0.974101
60.8415 0.952338
60.9415 0.9679
61.0415 0.9622050000000001
61.1415 0.9535490000000001
61.2415 0.9905109999999999
61.3415 0.9752760000000001
61.4415 0.994263
61.5415 0.9705670000000001
61.6415 0.979706
61.7415 0.97373
61.8415 0.9729439999999999
61.9415 0.9922960000000001
62.0415 0.999834
62.1415 0.962427
62.2415 1.004043
62.3415 0.993313
62.4415 0.9705349999999999
62.5415 0.965917
62.6415 0.956751
62.7415 1.016669
62.8415 0.977311
62.9415 0.944561
63.0415 1.026005
63.1415 1.006603
63.2415 1.016059
63.3415 0.997754
63.4415 0.984626
63.5415 1.001236
63.6415 1.041996
63.7415 1.016317
63.8415 1.006433
63.9415 1.006052
64.0415 1.028967
64.1415 1.029412
64.2415 1.024425
64.3415 1.023839
64.4415 1.0149620000000001
64.5415 1.0280529999999999
64.6415 1.067165
64.7415 0.999955
64.8415 1.02919
64.9415 1.010129
65.0415 1.030977
65.1415 1.058667
65.2415 1.039268
65.3415 1.0600699999999998
65.4415 1.05604
65.5415 1.007697
65.6415 1.0732949999999999
65.7415 1.023507
65.8415 1.044202
65.9415 1.021812
66.0415 1.0551190000000001
66.1415 1.012862
66.2415 1.021469
66.3415 1.040546
66.4415 1.015413
66.5415 1.048662
66.6415 1.0314510000000001
66.7415 1.039512
66.8415 1.01648
66.9415 1.0269279999999998
67.0415 1.037548
67.1415 1.006314
67.2415 1.044459
67.3415 1.0257109999999998
67.4415 1.028876
67.5415 1.015629
67.6415 1.012119
67.7415 0.981333
67.8415 0.984472
67.9415 0.9815130000000001
68.0415 0.9680359999999999
68.1415 0.984411
68.2415 0.940995
68.3415 0.944968
68.4415 0.984434
68.5415 0.935214
68.6415 0.909187
68.7415 0.931873
68.8415 0.901959
68.9415 0.906003
69.0415 0.89125
69.1415 0.893693
69.2415 0.903993
69.3415 0.874266
69.4415 0.828376
69.5415 0.897313
69.6415 0.803504
69.7415 0.823001
69.8415 0.826997
69.9415 0.8265939999999999
70.0415 0.8228660000000001
70.1415 0.7961480000000001
70.2415 0.776218
70.3415 0.806445
70.4415 0.789437
70.5415 0.790516
70.6415 0.808904
70.7415 0.7846850000000001
70.8415 0.809907
70.9415 0.744158
71.0415 0.731915
71.1415 0.810888
71.2415 0.745336
71.3415 0.743199
71.4415 0.777956
71.5415 0.796574
71.6415 0.717417
71.7415 0.739191
71.8415 0.7151000000000001
71.9415 0.701691
72.0415 0.7148629999999999
72.1415 0.743143
72.2415 0.696718
72.3415 0.691361
72.4415 0.6817559999999999
72.5415 0.6583019999999999
72.6415 0.6746110000000001
72.7415 0.6389560000000001
72.8415 0.621478
72.9415 0.6340669999999999
73.0415 0.628503
73.1415 0.600404
73.2415 0.6363699999999999
73.3415 0.603405
73.4415 0.5700430000000001
73.5415 0.592333
73.6415 0.535354
73.7415 0.588361
73.8415 0.5412640000000001
73.9415 0.536818
74.0415 0.555525
74.1415 0.5823480000000002
74.2415 0.542778
74.3415 0.526115
74.4415 0.51999
74.5415 0.5297240000000001
74.6415 0.542528
74.7415 0.5303570000000001
74.8415 0.522652
74.9415 0.554701
75.0415 0.507034
75.1415 0.5302020000000001
75.2415 0.5175799999999999
75.3415 0.521173
75.4415 0.500327
75.5415 0.5100600000000001
75.6415 0.49643
75.7415 0.5043390000000001
75.8415 0.489389
75.9415 0.450994
76.0415 0.49962900000000005
76.1415 0.463101
76.2415 0.464343
76.3415 0.44681099999999996
76.4415 0.45567199999999997
76.5415 0.451025
76.6415 0.449088
76.7415 0.448446
76.8415 0.425879
76.9415 0.41847199999999996
77.0415 0.42305800000000005
77.1415 0.416476
77.2415 0.446502
77.3415 0.432593
77.4415 0.397571
77.5415 0.442199
77.6415 0.41408600000000007
77.7415 0.418168
77.8415 0.407451
77.9415 0.422339
78.0415 0.40638799999999997
78.1415 0.43373300000000004
78.2415 0.41664600000000007
78.3415 0.41425700000000004
78.4415 0.41972
78.5415 0.408084
78.6415 0.40263899999999997
78.7415 0.456527
78.8415 0.406849
78.9415 0.41590699999999997
79.0415 0.412605
79.1415 0.42350299999999996
79.2415 0.39585099999999995
79.3415 0.401232
79.4415 0.40355599999999997
79.5415 0.41204999999999997
79.6415 0.39353400000000005
79.7415 0.40762099999999996
79.8415 0.41129
79.9415 0.38779299999999994
80.0415 0.38185800000000003
80.1415 0.388156
80.2415 0.36526000000000003
80.3415 0.3692
80.4415 0.35663300000000003
80.5415 0.3386
80.6415 0.33204399999999995
80.7415 0.37627000000000005
80.8415 0.334597
80.9415 0.35033200000000003
81.0415 0.32449000000000006
81.1415 0.332675
81.2415 0.330233
81.3415 0.34016599999999997
81.4415 0.318602
81.5415 0.330199
81.6415 0.33919799999999994
81.7415 0.295571
81.8415 0.336271
81.9415 0.310691
82.0415 0.318962
82.1415 0.32097600000000004
82.2415 0.33675
82.3415 0.329946
82.4415 0.344371
82.5415 0.329581
82.6415 0.320723
82.7415 0.340745
82.8415 0.341323
82.9415 0.320035
83.0415 0.32360300000000003
83.1415 0.31602399999999997
83.2415 0.32873800000000003
83.3415 0.30814900000000006
83.4415 0.33008200000000004
83.5415 0.29896700000000004
83.6415 0.317213
83.7415 0.330186
83.8415 0.30218300000000003
83.9415 0.303459
84.0415 0.294363
84.1415 0.285199
84.2415 0.266318
84.3415 0.292772
84.4415 0.27628199999999997
84.5415 0.240793
84.6415 0.254406
84.7415 0.251371
84.8415 0.26188200000000006
84.9415 0.257348
85.0415 0.252639
85.1415 0.258668
85.2415 0.251623
85.3415 0.25534999999999997
85.4415 0.26931900000000003
85.5415 0.267481
85.6415 0.23525999999999997
85.7415 0.25044900000000003
85.8415 0.26157700000000006
85.9415 0.278661
86.0415 0.24390699999999998
86.1415 0.26049300000000003
86.2415 0.259778
86.3415 0.254496
86.4415 0.29339200000000004
86.5415 0.26143200000000005
86.6415 0.28824500000000003
86.7415 0.27331700000000003
86.8415 0.292325
86.9415 0.286517
87.0415 0.25409
87.1415 0.275884
87.2415 0.27876
87.3415 0.25902000000000003
87.4415 0.275892
87.5415 0.21131300000000003
87.6415 0.243688
87.7415 0.26937199999999994
87.8415 0.24307
87.9415 0.253834
88.0415 0.223127
88.1415 0.258592
88.2415 0.246363
88.3415 0.20693100000000003
88.4415 0.198521
88.5415 0.231615
88.6415 0.20142999999999997
88.7415 0.223342
88.8415 0.23775400000000002
88.9415 0.21482799999999996
89.0415 0.209057
89.1415 0.23021
89.2415 0.185484
89.3415 0.21597700000000003
89.4415 0.206654
89.5415 0.17083900000000002
89.6415 0.17473
89.7415 0.17353100000000002
89.8415 0.17005699999999999
89.9415 0.16311599999999998
90.0415 0.17836100000000002
90.1415 0.183422
90.2415 0.167719
90.3415 0.16118800000000003
90.4415 0.149251
90.5415 0.151922
90.6415 0.140409
90.7415 0.13724899999999998
90.8415 0.156393
90.9415 0.152337
91.0415 0.179909
91.1415 0.13638600000000003
91.2415 0.16480000000000003
91.3415 0.121399
91.4415 0.146039
91.5415 0.12080099999999999
91.6415 0.12442700000000001
91.7415 0.11783700000000001
91.8415 0.113041
91.9415 0.117071
92.0415 0.12441899999999999
92.1415 0.10575999999999999
92.2415 0.12425699999999999
92.3415 0.09940099999999999
92.4415 0.095501
92.5415 0.09647000000000001
92.6415 0.088319
92.7415 0.077138
92.8415 0.08642
92.9415 0.101706
93.0415 0.09467600000000001
93.1415 0.065161
93.2415 0.062833
93.3415 0.052064000000000006
93.4415 0.080349
93.5415 0.056081000000000006
93.6415 0.06546500000000001
93.7415 0.053770000000000005
93.8415 0.057469
93.9415 0.08332099999999999
94.0415 0.04668300000000001
94.1415 0.072723
94.2415 0.063974
94.3415 0.079333
94.4415 0.057249999999999995
94.5415 0.059811
94.6415 0.08452799999999999
94.7415 0.068324
94.8415 0.06375999999999998
94.9415 0.09732199999999999
95.0415 0.07067999999999999
95.1415 0.08166999999999999
95.2415 0.064078
95.3415 0.08060099999999999
95.4415 0.07715200000000001
95.5415 0.07293999999999999
95.6415 0.094049
95.7415 0.10705799999999999
95.8415 0.09288099999999999
95.9415 0.124545
96.0415 0.134153
96.1415 0.087597
96.2415 0.115984
96.3415 0.115067
96.4415 0.156347
96.5415 0.141541
96.6415 0.14224299999999998
96.7415 0.138242
96.8415 0.150156
96.9415 0.17864099999999997
97.0415 0.15828
97.1415 0.15082399999999999
97.2415 0.151982
97.3415 0.176337
97.4415 0.177381
97.5415 0.152234
97.6415 0.124782
97.7415 0.148193
97.8415 0.12197399999999999
97.9415 0.15011700000000003
98.0415 0.156226
98.1415 0.144857
98.2415 0.164488
98.3415 0.12695099999999998
98.4415 0.12646800000000002
98.5415 0.19427500000000003
98.6415 0.16792300000000002
98.7415 0.12470400000000001
98.8415 0.126331
98.9415 0.128931
99.0415 0.136273
99.1415 0.11277
99.2415 0.092604
99.3415 0.13369600000000004
99.4415 0.10706799999999998
99.5415 0.10918
99.6415 0.08827299999999999
99.7415 0.113886
99.8415 0.09197
99.9415 0.13014
100.041 0.094565
100.141 0.107319
100.241 0.115789
100.341 0.08565299999999999
100.441 0.116061
100.541 0.10753
100.641 0.077935
100.741 0.083487
100.841 0.119607
100.941 0.12213099999999999
101.041 0.090275
101.141 0.104435
101.241 0.090644
101.341 0.086682
101.441 0.118986
101.541 0.104064
101.641 0.10711300000000001