  -46.397128        1.119273
  -46.297128        0.125827
  -46.197128        0.106663
  -46.097128        0.116243
  -45.997128        0.067661
  -45.897128        0.058171
  -45.797128        0.009683
  -45.697128        0.048655
  -45.597128        0.096835
  -45.497128        0.048378
  -45.397128        0.058038
  -45.297128        0.038538
  -45.197128        0.029083
  -45.097128        0.009668
  -44.997128        0.000000
  -44.897128        0.009623
  -44.797128        0.000000
  -44.697128        0.000000
  -44.597128        0.000000
  -44.497128        0.000000
  -44.397128        0.000000
  -44.297128        0.000000
  -44.197128        0.000000
  -44.097128        0.000000
  -43.997128        0.000000
  -43.897128        0.000000
  -43.797128        0.000000
  -43.697128        0.000000
  -43.597128        0.000000
  -43.497128        0.000000
  -43.397128        0.000000
  -43.297128        0.000000
  -43.197128        0.000000
  -43.097128        0.000000
  -42.997128        0.000000
  -42.897128        0.000000
  -42.797128        0.000000
  -42.697128        0.000000
  -42.597128        0.000000
  -42.497128        0.000000
  -42.397128        0.000000
  -42.297128        0.000000
  -42.197128        0.000000
  -42.097128        0.000000
  -41.997128        0.000000
  -41.897128        0.000000
  -41.797128        0.000000
  -41.697128        0.000000
  -41.597128        0.000000
  -41.497128        0.000000
  -41.397128        0.000000
  -41.297128        0.000000
  -41.197128        0.000000
  -41.097128        0.000000
  -40.997128        0.000000
  -40.897128        0.000000
  -40.797128        0.000000
  -40.697128        0.000000
  -40.597128        0.000000
  -40.497128        0.000000
  -40.397128        0.000000
  -40.297128        0.000000
  -40.197128        0.000000
  -40.097128        0.000000
  -39.997128        0.000000
  -39.897128        0.000000
  -39.797128        0.000000
  -39.697128        0.000000
  -39.597128        0.000000
  -39.497128        0.000000
  -39.397128        0.000000
  -39.297128        0.000000
  -39.197128        0.000000
  -39.097128        0.000000
  -38.997128        0.000000
  -38.897128        0.000000
  -38.797128        0.000000
  -38.697128        0.000000
  -38.597128        0.000000
  -38.497128        0.000000
  -38.397128        0.000000
  -38.297128        0.000000
  -38.197128        0.000000
  -38.097128        0.000000
  -37.997128        0.000000
  -37.897128        0.000000
  -37.797128        0.000000
  -37.697128        0.000000
  -37.597128        0.000000
  -37.497128        0.000000
  -37.397128        0.000000
  -37.297128        0.000000
  -37.197128        0.000000
  -37.097128        0.000000
  -36.997128        0.000000
  -36.897128        0.000000
  -36.797128        0.000000
  -36.697128        0.000000
  -36.597128        0.000000
  -36.497128        0.000000
  -36.397128        0.000000
  -36.297128        0.000000
  -36.197128        0.000000
  -36.097128        0.000000
  -35.997128        0.000000
  -35.897128        0.000000
  -35.797128        0.000000
  -35.697128        0.000000
  -35.597128        0.000000
  -35.497128        0.000000
  -35.397128        0.000000
  -35.297128        0.000000
  -35.197128        0.000000
  -35.097128        0.000000
  -34.997128        0.000000
  -34.897128        0.000000
  -34.797128        0.000000
  -34.697128        0.000000
  -34.597128        0.000000
  -34.497128        0.000000
  -34.397128        0.000000
  -34.297128        0.000000
  -34.197128        0.000000
  -34.097128        0.000000
  -33.997128        0.000000
  -33.897128        0.000000
  -33.797128        0.000000
  -33.697128        0.000000
  -33.597128        0.000000
  -33.497128        0.000000
  -33.397128        0.000000
  -33.297128        0.000000
  -33.197128        0.000000
  -33.097128        0.000000
  -32.997128        0.000000
  -32.897128        0.000000
  -32.797128        0.000000
  -32.697128        0.000000
  -32.597128        0.000000
  -32.497128        0.000000
  -32.397128        0.000000
  -32.297128        0.000000
  -32.197128        0.000000
  -32.097128        0.000000
  -31.997128        0.000000
  -31.897128        0.000000
  -31.797128        0.000000
  -31.697128        0.000000
  -31.597128        0.000000
  -31.497128        0.000000
  -31.397128        0.000000
  -31.297128        0.000000
  -31.197128        0.000000
  -31.097128        0.000000
  -30.997128        0.000000
  -30.897128        0.000001
  -30.797128        0.000000
  -30.697128        0.000000
  -30.597128        0.000001
  -30.497128        0.000000
  -30.397128        0.000000
  -30.297128        0.000002
  -30.197128        0.000001
  -30.097128        0.000001
  -29.997128        0.000000
  -29.897128        0.000007
  -29.797128        0.000003
  -29.697128        0.000001
  -29.597128        0.000011
  -29.497128        0.000004
  -29.397128        0.000003
  -29.297128        0.000003
  -29.197128        0.000016
  -29.097128        0.000000
  -28.997128        0.000004
  -28.897128        0.000007
  -28.797128        0.000001
  -28.697128        0.000001
  -28.597128        0.000002
  -28.497128        0.000000
  -28.397128        0.000010
  -28.297128        0.000003
  -28.197128        0.000000
  -28.097128        0.000000
  -27.997128        0.000001
  -27.897128        0.000001
  -27.797128        0.000000
  -27.697128        0.000002
  -27.597128        0.000001
  -27.497128        0.000003
  -27.397128        0.000004
  -27.297128        0.000002
  -27.197128        0.000003
  -27.097128        0.000005
  -26.997128        0.000003
  -26.897128        0.000003
  -26.797128        0.000039
  -26.697128        0.000004
  -26.597128        0.000001
  -26.497128        0.000035
  -26.397128        0.000036
  -26.297128        0.000033
  -26.197128        0.000055
  -26.097128        0.000141
  -25.997128        0.000304
  -25.897128        0.000367
  -25.797128        0.000721
  -25.697128        0.000668
  -25.597128        0.000752
  -25.497128        0.001260
  -25.397128        0.001584
  -25.297128        0.001642
  -25.197128        0.001842
  -25.097128        0.002334
  -24.997128        0.002441
  -24.897128        0.001937
  -24.797128        0.002276
  -24.697128        0.002695
  -24.597128        0.001805
  -24.497128        0.002144
  -24.397128        0.001647
  -24.297128        0.001288
  -24.197128        0.001463
  -24.097128        0.001480
  -23.997128        0.000867
  -23.897128        0.000955
  -23.797128        0.000874
  -23.697128        0.000451
  -23.597128        0.000369
  -23.497128        0.000309
  -23.397128        0.000212
  -23.297128        0.000105
  -23.197128        0.000163
  -23.097128        0.000383
  -22.997128        0.000171
  -22.897128        0.000417
  -22.797128        0.000532
  -22.697128        0.000625
  -22.597128        0.000663
  -22.497128        0.001003
  -22.397128        0.000845
  -22.297128        0.001325
  -22.197128        0.001173
  -22.097128        0.001553
  -21.997128        0.001395
  -21.897128        0.001668
  -21.797128        0.001916
  -21.697128        0.001669
  -21.597128        0.001811
  -21.497128        0.001784
  -21.397128        0.001171
  -21.297128        0.001330
  -21.197128        0.001167
  -21.097128        0.001086
  -20.997128        0.000766
  -20.897128        0.000721
  -20.797128        0.000584
  -20.697128        0.000267
  -20.597128        0.000258
  -20.497128        0.000191
  -20.397128        0.000163
  -20.297128        0.000253
  -20.197128        0.000152
  -20.097128        0.000095
  -19.997128        0.000035
  -19.897128        0.000013
  -19.797128        0.000004
  -19.697128        0.000002
  -19.597128        0.000001
  -19.497128        0.000001
  -19.397128        0.000000
  -19.297128        0.000000
  -19.197128        0.000000
  -19.097128        0.000000
  -18.997128        0.000000
  -18.897128        0.000000
  -18.797128        0.000000
  -18.697128        0.000000
  -18.597128        0.000000
  -18.497128        0.000000
  -18.397128        0.000000
  -18.297128        0.000000
  -18.197128        0.000000
  -18.097128        0.000000
  -17.997128        0.000000
  -17.897128        0.000000
  -17.797128        0.000000
  -17.697128        0.000000
  -17.597128        0.000000
  -17.497128        0.000000
  -17.397128        0.000000
  -17.297128        0.000000
  -17.197128        0.000000
  -17.097128        0.000000
  -16.997128        0.000000
  -16.897128        0.000000
  -16.797128        0.000000
  -16.697128        0.000000
  -16.597128        0.000000
  -16.497128        0.000000
  -16.397128        0.000002
  -16.297128        0.000003
  -16.197128        0.000000
  -16.097128        0.000010
  -15.997128        0.000016
  -15.897128        0.000047
  -15.797128        0.000040
  -15.697128        0.000060
  -15.597128        0.000120
  -15.497128        0.000141
  -15.397128        0.000161
  -15.297128        0.000307
  -15.197128        0.000241
  -15.097128        0.000466
  -14.997128        0.000537
  -14.897128        0.000528
  -14.797128        0.000681
  -14.697128        0.000609
  -14.597128        0.000650
  -14.497128        0.000587
  -14.397128        0.000445
  -14.297128        0.000445
  -14.197128        0.000342
  -14.097128        0.000283
  -13.997128        0.000220
  -13.897128        0.000212
  -13.797128        0.000230
  -13.697128        0.000114
  -13.597128        0.000041
  -13.497128        0.000078
  -13.397128        0.000023
  -13.297128        0.000048
  -13.197128        0.000036
  -13.097128        0.000043
  -12.997128        0.000043
  -12.897128        0.000112
  -12.797128        0.000127
  -12.697128        0.000181
  -12.597128        0.000188
  -12.497128        0.000248
  -12.397128        0.000236
  -12.297128        0.000294
  -12.197128        0.000260
  -12.097128        0.000193
  -11.997128        0.000233
  -11.897128        0.000237
  -11.797128        0.000235
  -11.697128        0.000160
  -11.597128        0.000170
  -11.497128        0.000157
  -11.397128        0.000137
  -11.297128        0.000127
  -11.197128        0.000133
  -11.097128        0.000154
  -10.997128        0.000213
  -10.897128        0.000157
  -10.797128        0.000257
  -10.697128        0.000304
  -10.597128        0.000331
  -10.497128        0.000365
  -10.397128        0.000364
  -10.297128        0.000553
  -10.197128        0.000548
  -10.097128        0.000559
   -9.997128        0.000864
   -9.897128        0.000802
   -9.797128        0.000964
   -9.697128        0.000850
   -9.597128        0.000945
   -9.497128        0.000747
   -9.397128        0.000739
   -9.297128        0.000658
   -9.197128        0.000568
   -9.097128        0.000465
   -8.997128        0.000433
   -8.897128        0.000348
   -8.797128        0.000317
   -8.697128        0.000264
   -8.597128        0.000191
   -8.497128        0.000235
   -8.397128        0.000309
   -8.297128        0.000233
   -8.197128        0.000619
   -8.097128        0.000703
   -7.997128        0.001348
   -7.897128        0.001184
   -7.797128        0.001059
   -7.697128        0.002192
   -7.597128        0.002504
   -7.497128        0.002618
   -7.397128        0.002852
   -7.297128        0.002524
   -7.197128        0.002816
   -7.097128        0.002329
   -6.997128        0.002480
   -6.897128        0.002087
   -6.797128        0.002039
   -6.697128        0.002246
   -6.597128        0.002496
   -6.497128        0.002305
   -6.397128        0.002674
   -6.297128        0.002284
   -6.197128        0.002515
   -6.097128        0.002654
   -5.997128        0.002493
   -5.897128        0.002312
   -5.797128        0.002826
   -5.697128        0.002597
   -5.597128        0.002424
   -5.497128        0.002087
   -5.397128        0.002079
   -5.297128        0.001819
   -5.197128        0.001879
   -5.097128        0.001625
   -4.997128        0.001494
   -4.897128        0.001282
   -4.797128        0.001053
   -4.697128        0.000961
   -4.597128        0.000988
   -4.497128        0.000899
   -4.397128        0.000766
   -4.297128        0.000738
   -4.197128        0.000710
   -4.097128        0.000656
   -3.997128        0.000582
   -3.897128        0.000612
   -3.797128        0.000568
   -3.697128        0.000588
   -3.597128        0.000604
   -3.497128        0.000613
   -3.397128        0.000646
   -3.297128        0.000625
   -3.197128        0.000542
   -3.097128        0.000682
   -2.997128        0.000626
   -2.897128        0.000601
   -2.797128        0.000621
   -2.697128        0.000686
   -2.597128        0.000825
   -2.497128        0.001024
   -2.397128        0.001082
   -2.297128        0.001008
   -2.197128        0.001055
   -2.097128        0.001186
   -1.997128        0.001365
   -1.897128        0.001316
   -1.797128        0.001407
   -1.697128        0.001334
   -1.597128        0.001197
   -1.497128        0.001026
   -1.397128        0.001158
   -1.297128        0.000888
   -1.197128        0.000864
   -1.097128        0.000860
   -0.997128        0.000649
   -0.897128        0.000649
   -0.797128        0.000472
   -0.697128        0.000381
   -0.597128        0.000319
   -0.497128        0.000273
   -0.397128        0.000219
   -0.297128        0.000129
   -0.197128        0.000113
   -0.097128        0.000103
    0.002872        0.000047
    0.102872        0.000029
    0.202872        0.000025
    0.302872        0.000013
    0.402872        0.000004
    0.502872        0.000008
    0.602872        0.000004
    0.702872        0.000001
    0.802872        0.000000
    0.902872        0.000000
    1.002872        0.000000
    1.102872        0.000001
    1.202872        0.000000
    1.302872        0.000000
    1.402872        0.000000
    1.502872        0.000000
    1.602872        0.000000
    1.702872        0.000000
    1.802872        0.000000
    1.902872        0.000000
    2.002872        0.000000
    2.102872        0.000000
    2.202872        0.000000
    2.302872        0.000000
    2.402872        0.000000
    2.502872        0.000000
    2.602872        0.000000
    2.702872        0.000000
    2.802872        0.000000
    2.902872        0.000000
    3.002872        0.000000
    3.102872        0.000000
    3.202872        0.000000
    3.302872        0.000000
    3.402872        0.000000
    3.502872        0.000000
    3.602872        0.000000
    3.702872        0.000000
    3.802872        0.000000
    3.902872        0.000000
    4.002872        0.000000
    4.102872        0.000000
    4.202872        0.000000
    4.302872        0.000000
    4.402872        0.000000
    4.502872        0.000000
    4.602872        0.000000
    4.702872        0.000000
    4.802872        0.000000
    4.902872        0.000000
    5.002872        0.000000
    5.102872        0.000003
    5.202872        0.000007
    5.302872        0.000001
    5.402872        0.000029
    5.502872        0.000161
    5.602872        0.000651
    5.702872        0.000370
    5.802872        0.000301
    5.902872        0.000819
    6.002872        0.001645
    6.102872        0.002006
    6.202872        0.003763
    6.302872        0.004053
    6.402872        0.007128
    6.502872        0.009186
    6.602872        0.011485
    6.702872        0.013774
    6.802872        0.017786
    6.902872        0.018824
    7.002872        0.019415
    7.102872        0.025633
    7.202872        0.026792
    7.302872        0.026717
    7.402872        0.026351
    7.502872        0.027723
    7.602872        0.023460
    7.702872        0.023411
    7.802872        0.022417
    7.902872        0.022418
    8.002872        0.022710
    8.102872        0.022951
    8.202872        0.016120
    8.302872        0.021257
    8.402872        0.018898
    8.502872        0.018854
    8.602872        0.020503
    8.702872        0.016231
    8.802872        0.018358
    8.902872        0.020294
    9.002872        0.018336
    9.102872        0.013671
    9.202872        0.013505
    9.302872        0.012692
    9.402872        0.012384
    9.502872        0.013555
    9.602872        0.010577
    9.702872        0.011824
    9.802872        0.010466
    9.902872        0.010395
   10.002872        0.010315
   10.102872        0.010387
   10.202872        0.009773
   10.302872        0.010602
   10.402872        0.011468
   10.502872        0.011525
   10.602872        0.011746
   10.702872        0.013175
   10.802872        0.011861
   10.902872        0.012036
   11.002872        0.012674
   11.102872        0.013086
   11.202872        0.013041
   11.302872        0.013949
   11.402872        0.013510
   11.502872        0.014501
   11.602872        0.014675
   11.702872        0.015235
   11.802872        0.014137
   11.902872        0.016100
   12.002872        0.016424
   12.102872        0.017324
   12.202872        0.016204
   12.302872        0.016945
   12.402872        0.017203
   12.502872        0.017635
   12.602872        0.018014
   12.702872        0.016966
   12.802872        0.017271
   12.902872        0.016500
   13.002872        0.018359
   13.102872        0.016701
   13.202872        0.016693
   13.302872        0.017216
   13.402872        0.016368
   13.502872        0.017236
   13.602872        0.014949
   13.702872        0.015872
   13.802872        0.014444
   13.902872        0.015711
   14.002872        0.016039
   14.102872        0.015524
   14.202872        0.014241
   14.302872        0.014703
   14.402872        0.014388
   14.502872        0.014887
   14.602872        0.014137
   14.702872        0.013994
   14.802872        0.014339
   14.902872        0.014366
   15.002872        0.013104
   15.102872        0.012889
   15.202872        0.012777
   15.302872        0.013665
   15.402872        0.012738
   15.502872        0.012837
   15.602872        0.012936
   15.702872        0.012336
   15.802872        0.012266
   15.902872        0.012031
   16.002872        0.010650
   16.102872        0.010522
   16.202872        0.010544
   16.302872        0.011148
   16.402872        0.009872
   16.502872        0.009334
   16.602872        0.009846
   16.702872        0.009396
   16.802872        0.009693
   16.902872        0.009499
   17.002872        0.009137
   17.102872        0.008879
   17.202872        0.008178
   17.302872        0.007980
   17.402872        0.009050
   17.502872        0.007424
   17.602872        0.007977
   17.702872        0.007404
   17.802872        0.007988
   17.902872        0.007411
   18.002872        0.007714
   18.102872        0.007385
   18.202872        0.007308
   18.302872        0.006724
   18.402872        0.006585
   18.502872        0.006734
   18.602872        0.006767
   18.702872        0.006248
   18.802872        0.006575
   18.902872        0.006329
   19.002872        0.006065
   19.102872        0.006008
   19.202872        0.005843
   19.302872        0.005576
   19.402872        0.005351
   19.502872        0.006169
   19.602872        0.005089
   19.702872        0.005833
   19.802872        0.005469
   19.902872        0.005342
   20.002872        0.005167
   20.102872        0.004755
   20.202872        0.005308
   20.302872        0.004747
   20.402872        0.005270
   20.502872        0.004813
   20.602872        0.004848
   20.702872        0.004537
   20.802872        0.004476
   20.902872        0.004952
   21.002872        0.004427
   21.102872        0.004899
   21.202872        0.004451
   21.302872        0.004399
   21.402872        0.004148
   21.502872        0.004175
   21.602872        0.004370
   21.702872        0.003933
   21.802872        0.004307
   21.902872        0.003759
   22.002872        0.003930
   22.102872        0.003923
   22.202872        0.003400
   22.302872        0.003493
   22.402872        0.003371
   22.502872        0.003299
   22.602872        0.003452
   22.702872        0.002863
   22.802872        0.003500
   22.902872        0.003359
   23.002872        0.003380
   23.102872        0.003107
   23.202872        0.003058
   23.302872        0.003124
   23.402872        0.002945
   23.502872        0.002974
   23.602872        0.002877
   23.702872        0.003155
   23.802872        0.002913
   23.902872        0.003152
   24.002872        0.002740
   24.102872        0.002993
   24.202872        0.002999
   24.302872        0.002760
   24.402872        0.003000
   24.502872        0.002945
   24.602872        0.002800
   24.702872        0.002608
   24.802872        0.002715
   24.902872        0.002981
   25.002872        0.002743
   25.102872        0.002770
   25.202872        0.002762
   25.302872        0.002655
   25.402872        0.002341
   25.502872        0.002793
   25.602872        0.002538
   25.702872        0.002490
   25.802872        0.002520
   25.902872        0.002301
   26.002872        0.002646
   26.102872        0.002400
   26.202872        0.002177
   26.302872        0.002335
   26.402872        0.002429
   26.502872        0.002257
   26.602872        0.002204
   26.702872        0.002362
   26.802872        0.002116
   26.902872        0.002386
   27.002872        0.002386
   27.102872        0.002298
   27.202872        0.002414
   27.302872        0.002322
   27.402872        0.002458
   27.502872        0.002242
   27.602872        0.002497
   27.702872        0.002620
   27.802872        0.002283
   27.902872        0.002264
   28.002872        0.002429
   28.102872        0.002216
   28.202872        0.002285
   28.302872        0.002431
   28.402872        0.002311
   28.502872        0.002330
   28.602872        0.002184
   28.702872        0.002297
   28.802872        0.002453
   28.902872        0.002282
   29.002872        0.002202
   29.102872        0.002489
   29.202872        0.002578
   29.302872        0.002360
   29.402872        0.002363
   29.502872        0.002300
   29.602872        0.002446
   29.702872        0.002434
   29.802872        0.002588
   29.902872        0.002273
   30.002872        0.002132
   30.102872        0.002380
   30.202872        0.002168
   30.302872        0.002282
   30.402872        0.002222
   30.502872        0.002201
   30.602872        0.002097
   30.702872        0.002192
   30.802872        0.002132
   30.902872        0.002112
   31.002872        0.002164
   31.102872        0.002198
   31.202872        0.002157
   31.302872        0.002025
   31.402872        0.002144
   31.502872        0.001981
   31.602872        0.002115
   31.702872        0.002129
   31.802872        0.002208
   31.902872        0.002324
   32.002872        0.001849
   32.102872        0.001986
   32.202872        0.002054
   32.302872        0.002160
   32.402872        0.002118
   32.502872        0.001993
   32.602872        0.002186
   32.702872        0.002015
   32.802872        0.001948
   32.902872        0.001989
   33.002872        0.001936
   33.102872        0.002032
   33.202872        0.001843
   33.302872        0.001946
   33.402872        0.001977
   33.502872        0.002016
   33.602872        0.001949
   33.702872        0.001991
   33.802872        0.001901
   33.902872        0.001934
   34.002872        0.001859
   34.102872        0.001847
   34.202872        0.002016
   34.302872        0.001882
   34.402872        0.001730
   34.502872        0.002034
   34.602872        0.001859
   34.702872        0.001936
   34.802872        0.001746
   34.902872        0.001832
   35.002872        0.001823
   35.102872        0.001973
   35.202872        0.001680
   35.302872        0.001873
   35.402872        0.001701
   35.502872        0.001922
   35.602872        0.001948
   35.702872        0.001763
   35.802872        0.001971
   35.902872        0.001895
   36.002872        0.001902
   36.102872        0.001762
   36.202872        0.001838
   36.302872        0.001762
   36.402872        0.001946
   36.502872        0.002130
   36.602872        0.002039
   36.702872        0.002119
   36.802872        0.002150
   36.902872        0.001919
   37.002872        0.001889
   37.102872        0.001856
   37.202872        0.001963
   37.302872        0.002109
   37.402872        0.002002
   37.502872        0.001985
   37.602872        0.002161
   37.702872        0.002174
   37.802872        0.002082
   37.902872        0.002170
   38.002872        0.002268
   38.102872        0.001978
   38.202872        0.002472
   38.302872        0.002323
   38.402872        0.002177
   38.502872        0.002135
   38.602872        0.002147
   38.702872        0.002268
   38.802872        0.002345
   38.902872        0.002174
   39.002872        0.002174
   39.102872        0.002224
   39.202872        0.002094
   39.302872        0.002227
   39.402872        0.002239
   39.502872        0.002432
   39.602872        0.002270
   39.702872        0.002541
   39.802872        0.002356
   39.902872        0.002351
   40.002872        0.002416
   40.102872        0.002249
   40.202872        0.002497
   40.302872        0.002296
   40.402872        0.002367
   40.502872        0.002556
   40.602872        0.002269
   40.702872        0.002428
   40.802872        0.002262
   40.902872        0.002423
   41.002872        0.002437
   41.102872        0.002223
   41.202872        0.002427
   41.302872        0.002379
   41.402872        0.002368
   41.502872        0.002454
   41.602872        0.002497
   41.702872        0.002253
   41.802872        0.002436
   41.902872        0.002410
   42.002872        0.002403
   42.102872        0.002389
   42.202872        0.002231
   42.302872        0.002380
   42.402872        0.002630
   42.502872        0.002524
   42.602872        0.002484
   42.702872        0.002307
   42.802872        0.002303
   42.902872        0.002532
   43.002872        0.002561
   43.102872        0.002392
   43.202872        0.002350
   43.302872        0.002421
   43.402872        0.002376
   43.502872        0.002485
   43.602872        0.002453
   43.702872        0.002298
   43.802872        0.002454
   43.902872        0.002482
   44.002872        0.002208
   44.102872        0.002414
   44.202872        0.002351
   44.302872        0.002337
   44.402872        0.002203
   44.502872        0.002404
   44.602872        0.002353
   44.702872        0.002284
   44.802872        0.002417
   44.902872        0.002535
   45.002872        0.002403
   45.102872        0.002321
   45.202872        0.002203
   45.302872        0.002274
   45.402872        0.002483
   45.502872        0.002240
   45.602872        0.002265
   45.702872        0.002494
   45.802872        0.002345
   45.902872        0.002297
   46.002872        0.002140
   46.102872        0.002643
   46.202872        0.002317
   46.302872        0.002616
   46.402872        0.002604
   46.502872        0.002637
   46.602872        0.002457
   46.702872        0.002636
   46.802872        0.002662
   46.902872        0.002608
   47.002872        0.002623
   47.102872        0.002996
   47.202872        0.002579
   47.302872        0.002876
   47.402872        0.002777
   47.502872        0.002555
   47.602872        0.002529
   47.702872        0.002774
   47.802872        0.002512
   47.902872        0.002644
   48.002872        0.002650
   48.102872        0.002918
   48.202872        0.002511
   48.302872        0.002666
   48.402872        0.002861
   48.502872        0.002757
   48.602872        0.002738
   48.702872        0.002753
   48.802872        0.002781
   48.902872        0.002665
   49.002872        0.002757
   49.102872        0.002779
   49.202872        0.002846
   49.302872        0.002863
   49.402872        0.002760
   49.502872        0.002922
   49.602872        0.002800
   49.702872        0.002835
   49.802872        0.002831
   49.902872        0.002626
   50.002872        0.002898
   50.102872        0.002895
   50.202872        0.002641
   50.302872        0.003006
   50.402872        0.002715
   50.502872        0.002757
   50.602872        0.003218
   50.702872        0.002905
   50.802872        0.002975
   50.902872        0.002679
   51.002872        0.002727
   51.102872        0.002967
   51.202872        0.002952
   51.302872        0.002623
   51.402872        0.002810
   51.502872        0.002670
   51.602872        0.002789
   51.702872        0.002859
   51.802872        0.002899
   51.902872        0.002761
   52.002872        0.002865
   52.102872        0.002708
   52.202872        0.002677
   52.302872        0.002872
   52.402872        0.003070
   52.502872        0.002728
   52.602872        0.002691
   52.702872        0.002931
   52.802872        0.003107
   52.902872        0.002799
   53.002872        0.003086
   53.102872        0.003151
   53.202872        0.002872
   53.302872        0.002853
   53.402872        0.002863
   53.502872        0.002915