  -46.772474        1.177813
  -46.672474        0.213939
  -46.572474        0.262127
  -46.472474        0.252515
  -46.372474        0.320481
  -46.272474        0.301427
  -46.172474        0.349364
  -46.072474        0.378585
  -45.972474        0.407383
  -45.872474        0.358528
  -45.772474        0.280593
  -45.672474        0.270619
  -45.572474        0.319306
  -45.472474        0.203282
  -45.372474        0.173857
  -45.272474        0.086665
  -45.172474        0.096970
  -45.072474        0.134956
  -44.972474        0.038535
  -44.872474        0.038608
  -44.772474        0.096409
  -44.672474        0.019293
  -44.572474        0.019300
  -44.472474        0.009612
  -44.372474        0.009641
  -44.272474        0.000000
  -44.172474        0.000000
  -44.072474        0.000000
  -43.972474        0.000000
  -43.872474        0.000000
  -43.772474        0.000000
  -43.672474        0.000000
  -43.572474        0.000000
  -43.472474        0.000000
  -43.372474        0.000000
  -43.272474        0.000000
  -43.172474        0.000000
  -43.072474        0.000000
  -42.972474        0.000000
  -42.872474        0.000000
  -42.772474        0.000000
  -42.672474        0.000000
  -42.572474        0.000000
  -42.472474        0.000000
  -42.372474        0.000000
  -42.272474        0.000000
  -42.172474        0.000000
  -42.072474        0.000000
  -41.972474        0.000000
  -41.872474        0.000000
  -41.772474        0.000000
  -41.672474        0.000000
  -41.572474        0.000000
  -41.472474        0.000000
  -41.372474        0.000000
  -41.272474        0.000000
  -41.172474        0.000000
  -41.072474        0.000000
  -40.972474        0.000000
  -40.872474        0.000000
  -40.772474        0.000000
  -40.672474        0.000000
  -40.572474        0.000000
  -40.472474        0.000000
  -40.372474        0.000000
  -40.272474        0.000000
  -40.172474        0.000000
  -40.072474        0.000000
  -39.972474        0.000000
  -39.872474        0.000000
  -39.772474        0.000000
  -39.672474        0.000000
  -39.572474        0.000000
  -39.472474        0.000000
  -39.372474        0.000000
  -39.272474        0.000000
  -39.172474        0.000000
  -39.072474        0.000000
  -38.972474        0.000000
  -38.872474        0.000000
  -38.772474        0.000000
  -38.672474        0.000000
  -38.572474        0.000000
  -38.472474        0.000000
  -38.372474        0.000000
  -38.272474        0.000000
  -38.172474        0.000000
  -38.072474        0.000000
  -37.972474        0.000000
  -37.872474        0.000000
  -37.772474        0.000000
  -37.672474        0.000000
  -37.572474        0.000000
  -37.472474        0.000000
  -37.372474        0.000000
  -37.272474        0.000000
  -37.172474        0.000000
  -37.072474        0.000000
  -36.972474        0.000000
  -36.872474        0.000000
  -36.772474        0.000000
  -36.672474        0.000000
  -36.572474        0.000000
  -36.472474        0.000000
  -36.372474        0.000000
  -36.272474        0.000000
  -36.172474        0.000000
  -36.072474        0.000000
  -35.972474        0.000000
  -35.872474        0.000000
  -35.772474        0.000000
  -35.672474        0.000000
  -35.572474        0.000000
  -35.472474        0.000000
  -35.372474        0.000000
  -35.272474        0.000000
  -35.172474        0.000000
  -35.072474        0.000000
  -34.972474        0.000000
  -34.872474        0.000000
  -34.772474        0.000000
  -34.672474        0.000000
  -34.572474        0.000000
  -34.472474        0.000000
  -34.372474        0.000000
  -34.272474        0.000000
  -34.172474        0.000000
  -34.072474        0.000000
  -33.972474        0.000000
  -33.872474        0.000000
  -33.772474        0.000000
  -33.672474        0.000000
  -33.572474        0.000000
  -33.472474        0.000000
  -33.372474        0.000000
  -33.272474        0.000000
  -33.172474        0.000000
  -33.072474        0.000000
  -32.972474        0.000000
  -32.872474        0.000000
  -32.772474        0.000000
  -32.672474        0.000000
  -32.572474        0.000000
  -32.472474        0.000000
  -32.372474        0.000000
  -32.272474        0.000000
  -32.172474        0.000000
  -32.072474        0.000000
  -31.972474        0.000000
  -31.872474        0.000000
  -31.772474        0.000000
  -31.672474        0.000009
  -31.572474        0.000000
  -31.472474        0.000000
  -31.372474        0.000053
  -31.272474        0.000032
  -31.172474        0.000053
  -31.072474        0.000049
  -30.972474        0.000031
  -30.872474        0.000087
  -30.772474        0.000210
  -30.672474        0.000231
  -30.572474        0.000353
  -30.472474        0.000474
  -30.372474        0.000296
  -30.272474        0.000589
  -30.172474        0.000791
  -30.072474        0.001200
  -29.972474        0.000728
  -29.872474        0.001336
  -29.772474        0.001075
  -29.672474        0.001325
  -29.572474        0.001181
  -29.472474        0.001125
  -29.372474        0.000798
  -29.272474        0.001145
  -29.172474        0.000579
  -29.072474        0.000726
  -28.972474        0.000482
  -28.872474        0.000399
  -28.772474        0.000249
  -28.672474        0.000263
  -28.572474        0.000081
  -28.472474        0.000200
  -28.372474        0.000128
  -28.272474        0.000105
  -28.172474        0.000084
  -28.072474        0.000199
  -27.972474        0.000178
  -27.872474        0.000204
  -27.772474        0.000225
  -27.672474        0.000309
  -27.572474        0.000271
  -27.472474        0.000323
  -27.372474        0.000330
  -27.272474        0.000353
  -27.172474        0.000325
  -27.072474        0.000366
  -26.972474        0.000210
  -26.872474        0.000202
  -26.772474        0.000249
  -26.672474        0.000286
  -26.572474        0.000231
  -26.472474        0.000209
  -26.372474        0.000146
  -26.272474        0.000098
  -26.172474        0.000151
  -26.072474        0.000411
  -25.972474        0.000297
  -25.872474        0.000468
  -25.772474        0.000876
  -25.672474        0.001165
  -25.572474        0.002133
  -25.472474        0.002021
  -25.372474        0.002989
  -25.272474        0.004062
  -25.172474        0.004705
  -25.072474        0.005756
  -24.972474        0.005043
  -24.872474        0.005777
  -24.772474        0.005905
  -24.672474        0.005173
  -24.572474        0.005298
  -24.472474        0.004559
  -24.372474        0.004806
  -24.272474        0.003753
  -24.172474        0.004367
  -24.072474        0.004213
  -23.972474        0.002840
  -23.872474        0.002686
  -23.772474        0.003080
  -23.672474        0.002661
  -23.572474        0.002145
  -23.472474        0.002025
  -23.372474        0.001810
  -23.272474        0.002093
  -23.172474        0.001528
  -23.072474        0.002324
  -22.972474        0.001615
  -22.872474        0.001343
  -22.772474        0.001464
  -22.672474        0.001635
  -22.572474        0.001971
  -22.472474        0.002706
  -22.372474        0.002959
  -22.272474        0.002934
  -22.172474        0.003387
  -22.072474        0.004112
  -21.972474        0.004313
  -21.872474        0.004707
  -21.772474        0.004778
  -21.672474        0.004851
  -21.572474        0.005008
  -21.472474        0.004116
  -21.372474        0.004541
  -21.272474        0.003565
  -21.172474        0.003577
  -21.072474        0.003217
  -20.972474        0.003026
  -20.872474        0.002764
  -20.772474        0.002256
  -20.672474        0.002523
  -20.572474        0.001815
  -20.472474        0.001937
  -20.372474        0.001028
  -20.272474        0.001015
  -20.172474        0.000536
  -20.072474        0.000838
  -19.972474        0.000331
  -19.872474        0.000203
  -19.772474        0.000231
  -19.672474        0.000136
  -19.572474        0.000083
  -19.472474        0.000164
  -19.372474        0.000003
  -19.272474        0.000006
  -19.172474        0.000015
  -19.072474        0.000000
  -18.972474        0.000013
  -18.872474        0.000037
  -18.772474        0.000118
  -18.672474        0.000017
  -18.572474        0.000072
  -18.472474        0.000047
  -18.372474        0.000108
  -18.272474        0.000126
  -18.172474        0.000164
  -18.072474        0.000133
  -17.972474        0.000224
  -17.872474        0.000225
  -17.772474        0.000252
  -17.672474        0.000242
  -17.572474        0.000136
  -17.472474        0.000183
  -17.372474        0.000171
  -17.272474        0.000166
  -17.172474        0.000176
  -17.072474        0.000071
  -16.972474        0.000136
  -16.872474        0.000123
  -16.772474        0.000041
  -16.672474        0.000031
  -16.572474        0.000044
  -16.472474        0.000011
  -16.372474        0.000023
  -16.272474        0.000009
  -16.172474        0.000023
  -16.072474        0.000022
  -15.972474        0.000134
  -15.872474        0.000158
  -15.772474        0.000307
  -15.672474        0.000265
  -15.572474        0.000464
  -15.472474        0.000663
  -15.372474        0.000916
  -15.272474        0.001223
  -15.172474        0.001209
  -15.072474        0.001331
  -14.972474        0.001452
  -14.872474        0.001920
  -14.772474        0.001625
  -14.672474        0.001463
  -14.572474        0.001759
  -14.472474        0.001400
  -14.372474        0.001255
  -14.272474        0.001112
  -14.172474        0.000796
  -14.072474        0.000779
  -13.972474        0.000741
  -13.872474        0.000418
  -13.772474        0.000678
  -13.672474        0.000481
  -13.572474        0.000415
  -13.472474        0.000401
  -13.372474        0.000293
  -13.272474        0.000368
  -13.172474        0.000340
  -13.072474        0.000370
  -12.972474        0.000531
  -12.872474        0.000555
  -12.772474        0.000705
  -12.672474        0.000658
  -12.572474        0.000809
  -12.472474        0.000771
  -12.372474        0.000810
  -12.272474        0.000951
  -12.172474        0.001128
  -12.072474        0.000928
  -11.972474        0.000866
  -11.872474        0.000729
  -11.772474        0.000781
  -11.672474        0.000725
  -11.572474        0.000541
  -11.472474        0.000489
  -11.372474        0.000361
  -11.272474        0.000329
  -11.172474        0.000387
  -11.072474        0.000396
  -10.972474        0.000471
  -10.872474        0.000604
  -10.772474        0.000674
  -10.672474        0.000841
  -10.572474        0.000978
  -10.472474        0.001178
  -10.372474        0.001322
  -10.272474        0.001583
  -10.172474        0.001663
  -10.072474        0.002030
   -9.972474        0.002381
   -9.872474        0.002478
   -9.772474        0.002751
   -9.672474        0.002426
   -9.572474        0.002754
   -9.472474        0.002623
   -9.372474        0.002448
   -9.272474        0.002359
   -9.172474        0.002076
   -9.072474        0.001650
   -8.972474        0.001263
   -8.872474        0.001545
   -8.772474        0.001422
   -8.672474        0.000861
   -8.572474        0.000922
   -8.472474        0.001163
   -8.372474        0.001129
   -8.272474        0.001609
   -8.172474        0.001759
   -8.072474        0.002800
   -7.972474        0.002947
   -7.872474        0.003267
   -7.772474        0.005096
   -7.672474        0.006769
   -7.572474        0.006224
   -7.472474        0.007120
   -7.372474        0.008078
   -7.272474        0.008508
   -7.172474        0.008005
   -7.072474        0.008541
   -6.972474        0.007722
   -6.872474        0.008162
   -6.772474        0.007901
   -6.672474        0.007061
   -6.572474        0.006940
   -6.472474        0.007621
   -6.372474        0.007913
   -6.272474        0.007688
   -6.172474        0.007693
   -6.072474        0.008293
   -5.972474        0.008117
   -5.872474        0.008047
   -5.772474        0.007888
   -5.672474        0.008348
   -5.572474        0.007549
   -5.472474        0.006388
   -5.372474        0.006754
   -5.272474        0.005704
   -5.172474        0.005875
   -5.072474        0.004869
   -4.972474        0.004620
   -4.872474        0.003438
   -4.772474        0.003247
   -4.672474        0.002739
   -4.572474        0.002275
   -4.472474        0.001904
   -4.372474        0.001729
   -4.272474        0.001766
   -4.172474        0.001627
   -4.072474        0.001659
   -3.972474        0.001498
   -3.872474        0.001546
   -3.772474        0.001593
   -3.672474        0.001707
   -3.572474        0.001607
   -3.472474        0.001771
   -3.372474        0.001747
   -3.272474        0.001916
   -3.172474        0.002010
   -3.072474        0.001902
   -2.972474        0.001955
   -2.872474        0.002183
   -2.772474        0.002138
   -2.672474        0.002320
   -2.572474        0.002355
   -2.472474        0.002813
   -2.372474        0.002763
   -2.272474        0.003259
   -2.172474        0.003456
   -2.072474        0.003504
   -1.972474        0.003996
   -1.872474        0.003885
   -1.772474        0.003730
   -1.672474        0.003547
   -1.572474        0.003504
   -1.472474        0.003453
   -1.372474        0.003029
   -1.272474        0.002680
   -1.172474        0.002695
   -1.072474        0.002157
   -0.972474        0.002169
   -0.872474        0.001789
   -0.772474        0.001584
   -0.672474        0.001249
   -0.572474        0.000989
   -0.472474        0.000725
   -0.372474        0.000646
   -0.272474        0.000414
   -0.172474        0.000216
   -0.072474        0.000276
    0.027526        0.000193
    0.127526        0.000108
    0.227526        0.000045
    0.327526        0.000059
    0.427526        0.000035
    0.527526        0.000010
    0.627526        0.000010
    0.727526        0.000003
    0.827526        0.000002
    0.927526        0.000001
    1.027526        0.000006
    1.127526        0.000000
    1.227526        0.000000
    1.327526        0.000002
    1.427526        0.000000
    1.527526        0.000000
    1.627526        0.000000
    1.727526        0.000000
    1.827526        0.000000
    1.927526        0.000000
    2.027526        0.000000
    2.127526        0.000000
    2.227526        0.000000
    2.327526        0.000000
    2.427526        0.000000
    2.527526        0.000000
    2.627526        0.000000
    2.727526        0.000000
    2.827526        0.000000
    2.927526        0.000000
    3.027526        0.000000
    3.127526        0.000000
    3.227526        0.000000
    3.327526        0.000000
    3.427526        0.000000
    3.527526        0.000000
    3.627526        0.000000
    3.727526        0.000000
    3.827526        0.000000
    3.927526        0.000000
    4.027526        0.000008
    4.127526        0.000083
    4.227526        0.000000
    4.327526        0.000020
    4.427526        0.000043
    4.527526        0.000024
    4.627526        0.000087
    4.727526        0.000072
    4.827526        0.000165
    4.927526        0.000342
    5.027526        0.000300
    5.127526        0.000522
    5.227526        0.000627
    5.327526        0.001127
    5.427526        0.000829
    5.527526        0.001855
    5.627526        0.001435
    5.727526        0.003136
    5.827526        0.004241
    5.927526        0.006889
    6.027526        0.006679
    6.127526        0.011121
    6.227526        0.016946
    6.327526        0.018423
    6.427526        0.020983
    6.527526        0.025770
    6.627526        0.027355
    6.727526        0.037962
    6.827526        0.045582
    6.927526        0.064389
    7.027526        0.064430
    7.127526        0.069436
    7.227526        0.067626
    7.327526        0.071216
    7.427526        0.070519
    7.527526        0.083565
    7.627526        0.072074
    7.727526        0.077395
    7.827526        0.069274
    7.927526        0.057932
    8.027526        0.065152
    8.127526        0.061566
    8.227526        0.061345
    8.327526        0.070094
    8.427526        0.067438
    8.527526        0.060755
    8.627526        0.066032
    8.727526        0.071113
    8.827526        0.062022
    8.927526        0.061668
    9.027526        0.063308
    9.127526        0.049182
    9.227526        0.048785
    9.327526        0.045865
    9.427526        0.045408
    9.527526        0.041268
    9.627526        0.039968
    9.727526        0.038812
    9.827526        0.033895
    9.927526        0.029991
   10.027526        0.031929
   10.127526        0.030586
   10.227526        0.032209
   10.327526        0.030938
   10.427526        0.031576
   10.527526        0.032314
   10.627526        0.030741
   10.727526        0.032169
   10.827526        0.035216
   10.927526        0.034920
   11.027526        0.034412
   11.127526        0.035725
   11.227526        0.035191
   11.327526        0.036711
   11.427526        0.037077
   11.527526        0.038038
   11.627526        0.037834
   11.727526        0.039818
   11.827526        0.040288
   11.927526        0.040298
   12.027526        0.042821
   12.127526        0.041327
   12.227526        0.045218
   12.327526        0.042955
   12.427526        0.042804
   12.527526        0.045281
   12.627526        0.045770
   12.727526        0.044889
   12.827526        0.047693
   12.927526        0.045200
   13.027526        0.046307
   13.127526        0.048363
   13.227526        0.048485
   13.327526        0.048418
   13.427526        0.047399
   13.527526        0.047392
   13.627526        0.048155
   13.727526        0.047825
   13.827526        0.047351
   13.927526        0.047814
   14.027526        0.048082
   14.127526        0.047338
   14.227526        0.048939
   14.327526        0.046575
   14.427526        0.048260
   14.527526        0.047406
   14.627526        0.045259
   14.727526        0.045359
   14.827526        0.045512
   14.927526        0.044023
   15.027526        0.043315
   15.127526        0.042719
   15.227526        0.044249
   15.327526        0.043430
   15.427526        0.041861
   15.527526        0.040867
   15.627526        0.038399
   15.727526        0.038837
   15.827526        0.039553
   15.927526        0.036200
   16.027526        0.037149
   16.127526        0.035408
   16.227526        0.035465
   16.327526        0.034195
   16.427526        0.033327
   16.527526        0.033242
   16.627526        0.030038
   16.727526        0.032380
   16.827526        0.030286
   16.927526        0.030415
   17.027526        0.028993
   17.127526        0.027530
   17.227526        0.027125
   17.327526        0.025975
   17.427526        0.025259
   17.527526        0.025699
   17.627526        0.025276
   17.727526        0.024884
   17.827526        0.024974
   17.927526        0.024238
   18.027526        0.022722
   18.127526        0.021427
   18.227526        0.020887
   18.327526        0.021767
   18.427526        0.021280
   18.527526        0.020327
   18.627526        0.020483
   18.727526        0.019279
   18.827526        0.019378
   18.927526        0.019056
   19.027526        0.018355
   19.127526        0.018390
   19.227526        0.017554
   19.327526        0.017167
   19.427526        0.017078
   19.527526        0.017017
   19.627526        0.016922
   19.727526        0.016368
   19.827526        0.016449
   19.927526        0.016310
   20.027526        0.015542
   20.127526        0.015923
   20.227526        0.016339
   20.327526        0.015467
   20.427526        0.014491
   20.527526        0.015167
   20.627526        0.014690
   20.727526        0.014230
   20.827526        0.013756
   20.927526        0.014872
   21.027526        0.013755
   21.127526        0.013815
   21.227526        0.013726
   21.327526        0.012974
   21.427526        0.012917
   21.527526        0.012952
   21.627526        0.012122
   21.727526        0.011998
   21.827526        0.012014
   21.927526        0.012519
   22.027526        0.011392
   22.127526        0.011444
   22.227526        0.011426
   22.327526        0.011506
   22.427526        0.010293
   22.527526        0.010328
   22.627526        0.011091
   22.727526        0.010909
   22.827526        0.009995
   22.927526        0.010098
   23.027526        0.010366
   23.127526        0.009433
   23.227526        0.010096
   23.327526        0.009686
   23.427526        0.008847
   23.527526        0.009593
   23.627526        0.009103
   23.727526        0.008430
   23.827526        0.009326
   23.927526        0.008913
   24.027526        0.008858
   24.127526        0.008527
   24.227526        0.008722
   24.327526        0.008471
   24.427526        0.007964
   24.527526        0.008414
   24.627526        0.007852
   24.727526        0.007665
   24.827526        0.007941
   24.927526        0.008093
   25.027526        0.007441
   25.127526        0.007831
   25.227526        0.007565
   25.327526        0.008201
   25.427526        0.007454
   25.527526        0.007657
   25.627526        0.007744
   25.727526        0.007673
   25.827526        0.007271
   25.927526        0.006962
   26.027526        0.007723
   26.127526        0.007008
   26.227526        0.007234
   26.327526        0.007544
   26.427526        0.007086
   26.527526        0.007303
   26.627526        0.007308
   26.727526        0.006856
   26.827526        0.006553
   26.927526        0.007142
   27.027526        0.007175
   27.127526        0.007379
   27.227526        0.007376
   27.327526        0.007042
   27.427526        0.006985
   27.527526        0.007201
   27.627526        0.007259
   27.727526        0.006692
   27.827526        0.007356
   27.927526        0.007578
   28.027526        0.006912
   28.127526        0.007231
   28.227526        0.007169
   28.327526        0.007619
   28.427526        0.007465
   28.527526        0.006844
   28.627526        0.007647
   28.727526        0.006992
   28.827526        0.007395
   28.927526        0.007696
   29.027526        0.007342
   29.127526        0.007453
   29.227526        0.007077
   29.327526        0.007456
   29.427526        0.007530
   29.527526        0.007278
   29.627526        0.007161
   29.727526        0.007541
   29.827526        0.007504
   29.927526        0.007475
   30.027526        0.006913
   30.127526        0.007290
   30.227526        0.007026
   30.327526        0.007131
   30.427526        0.007203
   30.527526        0.006748
   30.627526        0.007240
   30.727526        0.007029
   30.827526        0.006821
   30.927526        0.006975
   31.027526        0.006704
   31.127526        0.006883
   31.227526        0.006780
   31.327526        0.006497
   31.427526        0.006460
   31.527526        0.006866
   31.627526        0.006416
   31.727526        0.006684
   31.827526        0.006608
   31.927526        0.006868
   32.027526        0.006571
   32.127526        0.006657
   32.227526        0.006188
   32.327526        0.006824
   32.427526        0.006425
   32.527526        0.006368
   32.627526        0.006388
   32.727526        0.006190
   32.827526        0.006206
   32.927526        0.006186
   33.027526        0.006653
   33.127526        0.006437
   33.227526        0.006262
   33.327526        0.005878
   33.427526        0.006355
   33.527526        0.006232
   33.627526        0.005999
   33.727526        0.006121
   33.827526        0.005721
   33.927526        0.006314
   34.027526        0.005815
   34.127526        0.006110
   34.227526        0.006005
   34.327526        0.006050
   34.427526        0.005907
   34.527526        0.006234
   34.627526        0.006288
   34.727526        0.005927
   34.827526        0.006091
   34.927526        0.005736
   35.027526        0.005998
   35.127526        0.005896
   35.227526        0.006308
   35.327526        0.006189
   35.427526        0.005466
   35.527526        0.006174
   35.627526        0.005632
   35.727526        0.006387
   35.827526        0.006136
   35.927526        0.006087
   36.027526        0.006001
   36.127526        0.006065
   36.227526        0.006147
   36.327526        0.005994
   36.427526        0.006239
   36.527526        0.005845
   36.627526        0.005963
   36.727526        0.006322
   36.827526        0.006152
   36.927526        0.006567
   37.027526        0.006354
   37.127526        0.006204
   37.227526        0.006579
   37.327526        0.006032
   37.427526        0.006357
   37.527526        0.007134
   37.627526        0.007060
   37.727526        0.006341
   37.827526        0.007119
   37.927526        0.006522
   38.027526        0.006721
   38.127526        0.006838
   38.227526        0.006663
   38.327526        0.006466
   38.427526        0.006776
   38.527526        0.007323
   38.627526        0.006927
   38.727526        0.006866
   38.827526        0.006993
   38.927526        0.007013
   39.027526        0.007147
   39.127526        0.007014
   39.227526        0.007427
   39.327526        0.007287
   39.427526        0.006754
   39.527526        0.007248
   39.627526        0.007427
   39.727526        0.007036
   39.827526        0.007948
   39.927526        0.007268
   40.027526        0.007369
   40.127526        0.006950
   40.227526        0.007185
   40.327526        0.007230
   40.427526        0.007542
   40.527526        0.007567
   40.627526        0.007895
   40.727526        0.007120
   40.827526        0.007401
   40.927526        0.006692
   41.027526        0.007346
   41.127526        0.007126
   41.227526        0.007175
   41.327526        0.006940
   41.427526        0.007856
   41.527526        0.007161
   41.627526        0.006915
   41.727526        0.007301
   41.827526        0.007247
   41.927526        0.007549
   42.027526        0.006976
   42.127526        0.007003
   42.227526        0.007276
   42.327526        0.006869
   42.427526        0.007701
   42.527526        0.006940
   42.627526        0.007003
   42.727526        0.006993
   42.827526        0.006650
   42.927526        0.007018
   43.027526        0.006935
   43.127526        0.006967
   43.227526        0.006809
   43.327526        0.007074
   43.427526        0.006971
   43.527526        0.006918
   43.627526        0.006763
   43.727526        0.007550
   43.827526        0.007037
   43.927526        0.007589
   44.027526        0.007127
   44.127526        0.006850
   44.227526        0.007904
   44.327526        0.007041
   44.427526        0.007233
   44.527526        0.007431
   44.627526        0.007211
   44.727526        0.007279
   44.827526        0.006785
   44.927526        0.006967
   45.027526        0.007283
   45.127526        0.007144
   45.227526        0.007416
   45.327526        0.007440
   45.427526        0.007620
   45.527526        0.007656
   45.627526        0.007437
   45.727526        0.007503
   45.827526        0.007915
   45.927526        0.007100
   46.027526        0.008020
   46.127526        0.006963
   46.227526        0.008352
   46.327526        0.007698
   46.427526        0.007329
   46.527526        0.007277
   46.627526        0.008075
   46.727526        0.008318
   46.827526        0.008112
   46.927526        0.007716
   47.027526        0.007905
   47.127526        0.008071
   47.227526        0.007807
   47.327526        0.008360
   47.427526        0.008179
   47.527526        0.008437
   47.627526        0.008483
   47.727526        0.007913
   47.827526        0.008066
   47.927526        0.008524
   48.027526        0.008464
   48.127526        0.008576
   48.227526        0.007901
   48.327526        0.008501
   48.427526        0.008541
   48.527526        0.008708
   48.627526        0.007884
   48.727526        0.008191
   48.827526        0.008701
   48.927526        0.008219
   49.027526        0.008461
   49.127526        0.009182
   49.227526        0.008833
   49.327526        0.008523
   49.427526        0.008725
   49.527526        0.008531
   49.627526        0.009156
   49.727526        0.008333
   49.827526        0.009041
   49.927526        0.008625
   50.027526        0.009160
   50.127526        0.008860
   50.227526        0.008651
   50.327526        0.008501
   50.427526        0.008419
   50.527526        0.008616
   50.627526        0.008697
   50.727526        0.008439
   50.827526        0.007827
   50.927526        0.008255
   51.027526        0.008432
   51.127526        0.008721
   51.227526        0.008510
   51.327526        0.008228
   51.427526        0.007661
   51.527526        0.008420
   51.627526        0.008369
   51.727526        0.008111
   51.827526        0.008944
   51.927526        0.008238
   52.027526        0.008448
   52.127526        0.008143
   52.227526        0.008468
   52.327526        0.008437
   52.427526        0.009016
   52.527526        0.008664
   52.627526        0.008630
   52.727526        0.008842
   52.827526        0.008347
   52.927526        0.008646
   53.027526        0.008371
   53.127526        0.009068