  -46.495095        1.160429
  -46.395095        0.165656
  -46.295095        0.214176
  -46.195095        0.301400
  -46.095095        0.271852
  -45.995095        0.262504
  -45.895095        0.281112
  -45.795095        0.252048
  -45.695095        0.242691
  -45.595095        0.194103
  -45.495095        0.096598
  -45.395095        0.125919
  -45.295095        0.096567
  -45.195095        0.067758
  -45.095095        0.077499
  -44.995095        0.019271
  -44.895095        0.038549
  -44.795095        0.019361
  -44.695095        0.000000
  -44.595095        0.000000
  -44.495095        0.000000
  -44.395095        0.000000
  -44.295095        0.000000
  -44.195095        0.000000
  -44.095095        0.000000
  -43.995095        0.000000
  -43.895095        0.000000
  -43.795095        0.000000
  -43.695095        0.000000
  -43.595095        0.000000
  -43.495095        0.000000
  -43.395095        0.000000
  -43.295095        0.000000
  -43.195095        0.000000
  -43.095095        0.000000
  -42.995095        0.000000
  -42.895095        0.000000
  -42.795095        0.000000
  -42.695095        0.000000
  -42.595095        0.000000
  -42.495095        0.000000
  -42.395095        0.000000
  -42.295095        0.000000
  -42.195095        0.000000
  -42.095095        0.000000
  -41.995095        0.000000
  -41.895095        0.000000
  -41.795095        0.000000
  -41.695095        0.000000
  -41.595095        0.000000
  -41.495095        0.000000
  -41.395095        0.000000
  -41.295095        0.000000
  -41.195095        0.000000
  -41.095095        0.000000
  -40.995095        0.000000
  -40.895095        0.000000
  -40.795095        0.000000
  -40.695095        0.000000
  -40.595095        0.000000
  -40.495095        0.000000
  -40.395095        0.000000
  -40.295095        0.000000
  -40.195095        0.000000
  -40.095095        0.000000
  -39.995095        0.000000
  -39.895095        0.000000
  -39.795095        0.000000
  -39.695095        0.000000
  -39.595095        0.000000
  -39.495095        0.000000
  -39.395095        0.000000
  -39.295095        0.000000
  -39.195095        0.000000
  -39.095095        0.000000
  -38.995095        0.000000
  -38.895095        0.000000
  -38.795095        0.000000
  -38.695095        0.000000
  -38.595095        0.000000
  -38.495095        0.000000
  -38.395095        0.000000
  -38.295095        0.000000
  -38.195095        0.000000
  -38.095095        0.000000
  -37.995095        0.000000
  -37.895095        0.000000
  -37.795095        0.000000
  -37.695095        0.000000
  -37.595095        0.000000
  -37.495095        0.000000
  -37.395095        0.000000
  -37.295095        0.000000
  -37.195095        0.000000
  -37.095095        0.000000
  -36.995095        0.000000
  -36.895095        0.000000
  -36.795095        0.000000
  -36.695095        0.000000
  -36.595095        0.000000
  -36.495095        0.000000
  -36.395095        0.000000
  -36.295095        0.000000
  -36.195095        0.000000
  -36.095095        0.000000
  -35.995095        0.000000
  -35.895095        0.000000
  -35.795095        0.000000
  -35.695095        0.000000
  -35.595095        0.000000
  -35.495095        0.000000
  -35.395095        0.000000
  -35.295095        0.000000
  -35.195095        0.000000
  -35.095095        0.000000
  -34.995095        0.000000
  -34.895095        0.000000
  -34.795095        0.000000
  -34.695095        0.000000
  -34.595095        0.000000
  -34.495095        0.000000
  -34.395095        0.000000
  -34.295095        0.000000
  -34.195095        0.000000
  -34.095095        0.000000
  -33.995095        0.000000
  -33.895095        0.000000
  -33.795095        0.000000
  -33.695095        0.000000
  -33.595095        0.000000
  -33.495095        0.000000
  -33.395095        0.000000
  -33.295095        0.000000
  -33.195095        0.000000
  -33.095095        0.000000
  -32.995095        0.000000
  -32.895095        0.000000
  -32.795095        0.000000
  -32.695095        0.000000
  -32.595095        0.000000
  -32.495095        0.000000
  -32.395095        0.000000
  -32.295095        0.000000
  -32.195095        0.000000
  -32.095095        0.000000
  -31.995095        0.000000
  -31.895095        0.000000
  -31.795095        0.000000
  -31.695095        0.000000
  -31.595095        0.000000
  -31.495095        0.000000
  -31.395095        0.000000
  -31.295095        0.000000
  -31.195095        0.000000
  -31.095095        0.000000
  -30.995095        0.000000
  -30.895095        0.000034
  -30.795095        0.000012
  -30.695095        0.000006
  -30.595095        0.000025
  -30.495095        0.000111
  -30.395095        0.000073
  -30.295095        0.000093
  -30.195095        0.000127
  -30.095095        0.000169
  -29.995095        0.000194
  -29.895095        0.000233
  -29.795095        0.000307
  -29.695095        0.000264
  -29.595095        0.000269
  -29.495095        0.000111
  -29.395095        0.000142
  -29.295095        0.000022
  -29.195095        0.000096
  -29.095095        0.000169
  -28.995095        0.000032
  -28.895095        0.000009
  -28.795095        0.000005
  -28.695095        0.000069
  -28.595095        0.000023
  -28.495095        0.000018
  -28.395095        0.000075
  -28.295095        0.000050
  -28.195095        0.000023
  -28.095095        0.000040
  -27.995095        0.000044
  -27.895095        0.000052
  -27.795095        0.000034
  -27.695095        0.000058
  -27.595095        0.000055
  -27.495095        0.000029
  -27.395095        0.000077
  -27.295095        0.000042
  -27.195095        0.000048
  -27.095095        0.000037
  -26.995095        0.000044
  -26.895095        0.000072
  -26.795095        0.000032
  -26.695095        0.000035
  -26.595095        0.000012
  -26.495095        0.000049
  -26.395095        0.000027
  -26.295095        0.000077
  -26.195095        0.000022
  -26.095095        0.000061
  -25.995095        0.000247
  -25.895095        0.000451
  -25.795095        0.000499
  -25.695095        0.000676
  -25.595095        0.000930
  -25.495095        0.001791
  -25.395095        0.001900
  -25.295095        0.002399
  -25.195095        0.002606
  -25.095095        0.004341
  -24.995095        0.003817
  -24.895095        0.004424
  -24.795095        0.005055
  -24.695095        0.005043
  -24.595095        0.005870
  -24.495095        0.004844
  -24.395095        0.004293
  -24.295095        0.002855
  -24.195095        0.003776
  -24.095095        0.002419
  -23.995095        0.002480
  -23.895095        0.001824
  -23.795095        0.001921
  -23.695095        0.001088
  -23.595095        0.001324
  -23.495095        0.001037
  -23.395095        0.000988
  -23.295095        0.001014
  -23.195095        0.000744
  -23.095095        0.000712
  -22.995095        0.000688
  -22.895095        0.000675
  -22.795095        0.000890
  -22.695095        0.000724
  -22.595095        0.000880
  -22.495095        0.001377
  -22.395095        0.001452
  -22.295095        0.001725
  -22.195095        0.002155
  -22.095095        0.002709
  -21.995095        0.003118
  -21.895095        0.003548
  -21.795095        0.003422
  -21.695095        0.003376
  -21.595095        0.003806
  -21.495095        0.003428
  -21.395095        0.003251
  -21.295095        0.003103
  -21.195095        0.003130
  -21.095095        0.002586
  -20.995095        0.002096
  -20.895095        0.001786
  -20.795095        0.001348
  -20.695095        0.001281
  -20.595095        0.000798
  -20.495095        0.000882
  -20.395095        0.000512
  -20.295095        0.000422
  -20.195095        0.000470
  -20.095095        0.000371
  -19.995095        0.000140
  -19.895095        0.000154
  -19.795095        0.000145
  -19.695095        0.000060
  -19.595095        0.000134
  -19.495095        0.000040
  -19.395095        0.000022
  -19.295095        0.000038
  -19.195095        0.000000
  -19.095095        0.000000
  -18.995095        0.000022
  -18.895095        0.000002
  -18.795095        0.000005
  -18.695095        0.000036
  -18.595095        0.000007
  -18.495095        0.000023
  -18.395095        0.000010
  -18.295095        0.000005
  -18.195095        0.000026
  -18.095095        0.000039
  -17.995095        0.000022
  -17.895095        0.000025
  -17.795095        0.000051
  -17.695095        0.000054
  -17.595095        0.000059
  -17.495095        0.000062
  -17.395095        0.000012
  -17.295095        0.000033
  -17.195095        0.000014
  -17.095095        0.000015
  -16.995095        0.000033
  -16.895095        0.000019
  -16.795095        0.000003
  -16.695095        0.000018
  -16.595095        0.000020
  -16.495095        0.000000
  -16.395095        0.000002
  -16.295095        0.000008
  -16.195095        0.000015
  -16.095095        0.000016
  -15.995095        0.000013
  -15.895095        0.000013
  -15.795095        0.000087
  -15.695095        0.000057
  -15.595095        0.000118
  -15.495095        0.000204
  -15.395095        0.000380
  -15.295095        0.000474
  -15.195095        0.000496
  -15.095095        0.000585
  -14.995095        0.000732
  -14.895095        0.000846
  -14.795095        0.000892
  -14.695095        0.000972
  -14.595095        0.000973
  -14.495095        0.000815
  -14.395095        0.000817
  -14.295095        0.000631
  -14.195095        0.000520
  -14.095095        0.000479
  -13.995095        0.000269
  -13.895095        0.000329
  -13.795095        0.000218
  -13.695095        0.000172
  -13.595095        0.000107
  -13.495095        0.000129
  -13.395095        0.000120
  -13.295095        0.000083
  -13.195095        0.000101
  -13.095095        0.000086
  -12.995095        0.000117
  -12.895095        0.000216
  -12.795095        0.000231
  -12.695095        0.000256
  -12.595095        0.000222
  -12.495095        0.000362
  -12.395095        0.000433
  -12.295095        0.000467
  -12.195095        0.000462
  -12.095095        0.000549
  -11.995095        0.000469
  -11.895095        0.000428
  -11.795095        0.000326
  -11.695095        0.000263
  -11.595095        0.000206
  -11.495095        0.000173
  -11.395095        0.000156
  -11.295095        0.000106
  -11.195095        0.000122
  -11.095095        0.000130
  -10.995095        0.000217
  -10.895095        0.000247
  -10.795095        0.000236
  -10.695095        0.000361
  -10.595095        0.000471
  -10.495095        0.000614
  -10.395095        0.000736
  -10.295095        0.000763
  -10.195095        0.000963
  -10.095095        0.000936
   -9.995095        0.001099
   -9.895095        0.001533
   -9.795095        0.001576
   -9.695095        0.001578
   -9.595095        0.001859
   -9.495095        0.001819
   -9.395095        0.001597
   -9.295095        0.001612
   -9.195095        0.001391
   -9.095095        0.001211
   -8.995095        0.000915
   -8.895095        0.000750
   -8.795095        0.000688
   -8.695095        0.000488
   -8.595095        0.000714
   -8.495095        0.000722
   -8.395095        0.000628
   -8.295095        0.000541
   -8.195095        0.000477
   -8.095095        0.001057
   -7.995095        0.001588
   -7.895095        0.001791
   -7.795095        0.002871
   -7.695095        0.003050
   -7.595095        0.004190
   -7.495095        0.004934
   -7.395095        0.005144
   -7.295095        0.005664
   -7.195095        0.005983
   -7.095095        0.006159
   -6.995095        0.006787
   -6.895095        0.006284
   -6.795095        0.005000
   -6.695095        0.004949
   -6.595095        0.004413
   -6.495095        0.003757
   -6.395095        0.003669
   -6.295095        0.003836
   -6.195095        0.003801
   -6.095095        0.004472
   -5.995095        0.004827
   -5.895095        0.004604
   -5.795095        0.005690
   -5.695095        0.005898
   -5.595095        0.005685
   -5.495095        0.005201
   -5.395095        0.004537
   -5.295095        0.004414
   -5.195095        0.004403
   -5.095095        0.003686
   -4.995095        0.003348
   -4.895095        0.002732
   -4.795095        0.002353
   -4.695095        0.001846
   -4.595095        0.001846
   -4.495095        0.001686
   -4.395095        0.001629
   -4.295095        0.001416
   -4.195095        0.001388
   -4.095095        0.001127
   -3.995095        0.001188
   -3.895095        0.001147
   -3.795095        0.001381
   -3.695095        0.001227
   -3.595095        0.001109
   -3.495095        0.001245
   -3.395095        0.001191
   -3.295095        0.001163
   -3.195095        0.001207
   -3.095095        0.001189
   -2.995095        0.001168
   -2.895095        0.001356
   -2.795095        0.001159
   -2.695095        0.001225
   -2.595095        0.001176
   -2.495095        0.001367
   -2.395095        0.001351
   -2.295095        0.001602
   -2.195095        0.001611
   -2.095095        0.001778
   -1.995095        0.002011
   -1.895095        0.002184
   -1.795095        0.002215
   -1.695095        0.002356
   -1.595095        0.002526
   -1.495095        0.002191
   -1.395095        0.002057
   -1.295095        0.001901
   -1.195095        0.001776
   -1.095095        0.001603
   -0.995095        0.001250
   -0.895095        0.001201
   -0.795095        0.000950
   -0.695095        0.000710
   -0.595095        0.000566
   -0.495095        0.000459
   -0.395095        0.000371
   -0.295095        0.000300
   -0.195095        0.000223
   -0.095095        0.000170
    0.004905        0.000101
    0.104905        0.000079
    0.204905        0.000035
    0.304905        0.000050
    0.404905        0.000042
    0.504905        0.000036
    0.604905        0.000012
    0.704905        0.000007
    0.804905        0.000004
    0.904905        0.000005
    1.004905        0.000003
    1.104905        0.000002
    1.204905        0.000001
    1.304905        0.000000
    1.404905        0.000000
    1.504905        0.000001
    1.604905        0.000000
    1.704905        0.000001
    1.804905        0.000000
    1.904905        0.000000
    2.004905        0.000000
    2.104905        0.000000
    2.204905        0.000000
    2.304905        0.000000
    2.404905        0.000000
    2.504905        0.000000
    2.604905        0.000000
    2.704905        0.000000
    2.804905        0.000000
    2.904905        0.000000
    3.004905        0.000000
    3.104905        0.000000
    3.204905        0.000000
    3.304905        0.000000
    3.404905        0.000000
    3.504905        0.000000
    3.604905        0.000000
    3.704905        0.000000
    3.804905        0.000000
    3.904905        0.000000
    4.004905        0.000000
    4.104905        0.000000
    4.204905        0.000023
    4.304905        0.000000
    4.404905        0.000000
    4.504905        0.000032
    4.604905        0.000000
    4.704905        0.000018
    4.804905        0.000001
    4.904905        0.000034
    5.004905        0.000015
    5.104905        0.000119
    5.204905        0.000075
    5.304905        0.000173
    5.404905        0.000153
    5.504905        0.000131
    5.604905        0.000556
    5.704905        0.000570
    5.804905        0.001182
    5.904905        0.001430
    6.004905        0.001052
    6.104905        0.002561
    6.204905        0.002879
    6.304905        0.006182
    6.404905        0.010443
    6.504905        0.014264
    6.604905        0.019018
    6.704905        0.019697
    6.804905        0.024114
    6.904905        0.030411
    7.004905        0.032137
    7.104905        0.041763
    7.204905        0.042949
    7.304905        0.050003
    7.404905        0.055729
    7.504905        0.046228
    7.604905        0.050350
    7.704905        0.050355
    7.804905        0.042841
    7.904905        0.047693
    8.004905        0.041042
    8.104905        0.033884
    8.204905        0.031655
    8.304905        0.035470
    8.404905        0.036586
    8.504905        0.037788
    8.604905        0.037871
    8.704905        0.038818
    8.804905        0.037993
    8.904905        0.043933
    9.004905        0.039743
    9.104905        0.038340
    9.204905        0.040900
    9.304905        0.036162
    9.404905        0.035580
    9.504905        0.030215
    9.604905        0.028953
    9.704905        0.024217
    9.804905        0.023014
    9.904905        0.022751
   10.004905        0.021393
   10.104905        0.022573
   10.204905        0.023946
   10.304905        0.022915
   10.404905        0.024513
   10.504905        0.024874
   10.604905        0.023685
   10.704905        0.024718
   10.804905        0.024894
   10.904905        0.024445
   11.004905        0.023912
   11.104905        0.023808
   11.204905        0.026122
   11.304905        0.025977
   11.404905        0.026128
   11.504905        0.028165
   11.604905        0.027943
   11.704905        0.028963
   11.804905        0.029319
   11.904905        0.029456
   12.004905        0.029493
   12.104905        0.030456
   12.204905        0.031082
   12.304905        0.033211
   12.404905        0.032191
   12.504905        0.031227
   12.604905        0.033008
   12.704905        0.035166
   12.804905        0.033757
   12.904905        0.033837
   13.004905        0.035042
   13.104905        0.034581
   13.204905        0.033877
   13.304905        0.034849
   13.404905        0.035246
   13.504905        0.031761
   13.604905        0.033105
   13.704905        0.033335
   13.804905        0.033906
   13.904905        0.030856
   14.004905        0.031879
   14.104905        0.029541
   14.204905        0.031131
   14.304905        0.030229
   14.404905        0.030126
   14.504905        0.028093
   14.604905        0.029236
   14.704905        0.029500
   14.804905        0.029872
   14.904905        0.028002
   15.004905        0.030044
   15.104905        0.027571
   15.204905        0.025732
   15.304905        0.029746
   15.404905        0.028078
   15.504905        0.028276
   15.604905        0.026126
   15.704905        0.026499
   15.804905        0.025393
   15.904905        0.023804
   16.004905        0.024273
   16.104905        0.023449
   16.204905        0.024110
   16.304905        0.023096
   16.404905        0.022046
   16.504905        0.020888
   16.604905        0.023086
   16.704905        0.021443
   16.804905        0.020162
   16.904905        0.020812
   17.004905        0.020314
   17.104905        0.018539
   17.204905        0.019048
   17.304905        0.018375
   17.404905        0.017024
   17.504905        0.018607
   17.604905        0.016527
   17.704905        0.016612
   17.804905        0.016254
   17.904905        0.017110
   18.004905        0.015156
   18.104905        0.015269
   18.204905        0.014375
   18.304905        0.014204
   18.404905        0.014728
   18.504905        0.013132
   18.604905        0.013476
   18.704905        0.012772
   18.804905        0.012822
   18.904905        0.012687
   19.004905        0.012172
   19.104905        0.011275
   19.204905        0.010860
   19.304905        0.011418
   19.404905        0.010792
   19.504905        0.011129
   19.604905        0.010755
   19.704905        0.011234
   19.804905        0.010547
   19.904905        0.010079
   20.004905        0.009999
   20.104905        0.009871
   20.204905        0.009757
   20.304905        0.009931
   20.404905        0.009937
   20.504905        0.010476
   20.604905        0.009015
   20.704905        0.009499
   20.804905        0.009657
   20.904905        0.009414
   21.004905        0.009394
   21.104905        0.008441
   21.204905        0.008836
   21.304905        0.008985
   21.404905        0.008722
   21.504905        0.008475
   21.604905        0.008664
   21.704905        0.008642
   21.804905        0.007757
   21.904905        0.008228
   22.004905        0.008123
   22.104905        0.007645
   22.204905        0.007462
   22.304905        0.007783
   22.404905        0.007376
   22.504905        0.006923
   22.604905        0.007077
   22.704905        0.007171
   22.804905        0.006895
   22.904905        0.007018
   23.004905        0.006360
   23.104905        0.007198
   23.204905        0.006567
   23.304905        0.006303
   23.404905        0.006288
   23.504905        0.006403
   23.604905        0.006647
   23.704905        0.006785
   23.804905        0.006100
   23.904905        0.005939
   24.004905        0.005915
   24.104905        0.005909
   24.204905        0.005636
   24.304905        0.006083
   24.404905        0.005651
   24.504905        0.005699
   24.604905        0.005849
   24.704905        0.004989
   24.804905        0.005664
   24.904905        0.005224
   25.004905        0.005461
   25.104905        0.005779
   25.204905        0.005601
   25.304905        0.005277
   25.404905        0.005207
   25.504905        0.005192
   25.604905        0.005192
   25.704905        0.005436
   25.804905        0.005022
   25.904905        0.005194
   26.004905        0.004984
   26.104905        0.004686
   26.204905        0.004847
   26.304905        0.004759
   26.404905        0.005086
   26.504905        0.005090
   26.604905        0.004524
   26.704905        0.004850
   26.804905        0.004514
   26.904905        0.004749
   27.004905        0.004831
   27.104905        0.004390
   27.204905        0.004893
   27.304905        0.004406
   27.404905        0.004798
   27.504905        0.004766
   27.604905        0.004711
   27.704905        0.004774
   27.804905        0.004920
   27.904905        0.004510
   28.004905        0.004575
   28.104905        0.004025
   28.204905        0.005153
   28.304905        0.004650
   28.404905        0.004673
   28.504905        0.004624
   28.604905        0.004588
   28.704905        0.004468
   28.804905        0.004691
   28.904905        0.004630
   29.004905        0.004930
   29.104905        0.004820
   29.204905        0.004566
   29.304905        0.004747
   29.404905        0.004361
   29.504905        0.004484
   29.604905        0.004591
   29.704905        0.004591
   29.804905        0.004628
   29.904905        0.004645
   30.004905        0.004669
   30.104905        0.004441
   30.204905        0.004692
   30.304905        0.004211
   30.404905        0.004793
   30.504905        0.004640
   30.604905        0.004585
   30.704905        0.004243
   30.804905        0.004438
   30.904905        0.004145
   31.004905        0.004257
   31.104905        0.004603
   31.204905        0.004721
   31.304905        0.004310
   31.404905        0.004325
   31.504905        0.004631
   31.604905        0.004377
   31.704905        0.004477
   31.804905        0.004194
   31.904905        0.004247
   32.004905        0.004591
   32.104905        0.004493
   32.204905        0.004336
   32.304905        0.004376
   32.404905        0.004424
   32.504905        0.004180
   32.604905        0.004454
   32.704905        0.004204
   32.804905        0.004071
   32.904905        0.003996
   33.004905        0.004055
   33.104905        0.003960
   33.204905        0.004305
   33.304905        0.004032
   33.404905        0.004237
   33.504905        0.004079
   33.604905        0.004002
   33.704905        0.004207
   33.804905        0.003882
   33.904905        0.003901
   34.004905        0.004106
   34.104905        0.004095
   34.204905        0.003858
   34.304905        0.003947
   34.404905        0.004113
   34.504905        0.004045
   34.604905        0.004163
   34.704905        0.003981
   34.804905        0.004186
   34.904905        0.004139
   35.004905        0.004224
   35.104905        0.003957
   35.204905        0.004122
   35.304905        0.003871
   35.404905        0.004161
   35.504905        0.003940
   35.604905        0.003877
   35.704905        0.004216
   35.804905        0.003913
   35.904905        0.004229
   36.004905        0.003892
   36.104905        0.004176
   36.204905        0.004007
   36.304905        0.003898
   36.404905        0.004170
   36.504905        0.003938
   36.604905        0.003908
   36.704905        0.004068
   36.804905        0.004018
   36.904905        0.004418
   37.004905        0.004095
   37.104905        0.004395
   37.204905        0.004496
   37.304905        0.004288
   37.404905        0.004134
   37.504905        0.004325
   37.604905        0.004403
   37.704905        0.004439
   37.804905        0.004592
   37.904905        0.004311
   38.004905        0.004096
   38.104905        0.004685
   38.204905        0.004391
   38.304905        0.004565
   38.404905        0.004353
   38.504905        0.004670
   38.604905        0.004636
   38.704905        0.004441
   38.804905        0.004554
   38.904905        0.004663
   39.004905        0.004869
   39.104905        0.004668
   39.204905        0.004849
   39.304905        0.005038
   39.404905        0.004654
   39.504905        0.005111
   39.604905        0.004565
   39.704905        0.004499
   39.804905        0.004895
   39.904905        0.005117
   40.004905        0.004672
   40.104905        0.005010
   40.204905        0.004614
   40.304905        0.004671
   40.404905        0.005052
   40.504905        0.005114
   40.604905        0.004858
   40.704905        0.004604
   40.804905        0.004695
   40.904905        0.004521
   41.004905        0.004797
   41.104905        0.005413
   41.204905        0.004577
   41.304905        0.004932
   41.404905        0.004642
   41.504905        0.004706
   41.604905        0.004771
   41.704905        0.004616
   41.804905        0.004739
   41.904905        0.005020
   42.004905        0.004885
   42.104905        0.004872
   42.204905        0.004851
   42.304905        0.004784
   42.404905        0.004548
   42.504905        0.004801
   42.604905        0.004771
   42.704905        0.004756
   42.804905        0.004667
   42.904905        0.004839
   43.004905        0.004981
   43.104905        0.004413
   43.204905        0.004540
   43.304905        0.004888
   43.404905        0.004577
   43.504905        0.004422
   43.604905        0.004716
   43.704905        0.004585
   43.804905        0.004551
   43.904905        0.004639
   44.004905        0.004703
   44.104905        0.004457
   44.204905        0.004653
   44.304905        0.004762
   44.404905        0.004754
   44.504905        0.004450
   44.604905        0.004263
   44.704905        0.004813
   44.804905        0.004707
   44.904905        0.004457
   45.004905        0.005041
   45.104905        0.004564
   45.204905        0.004629
   45.304905        0.004632
   45.404905        0.004996
   45.504905        0.005047
   45.604905        0.004872
   45.704905        0.004729
   45.804905        0.004622
   45.904905        0.004900
   46.004905        0.004846
   46.104905        0.004915
   46.204905        0.004964
   46.304905        0.005017
   46.404905        0.004782
   46.504905        0.004794
   46.604905        0.005276
   46.704905        0.004473
   46.804905        0.004650
   46.904905        0.004758
   47.004905        0.005264
   47.104905        0.005099
   47.204905        0.005077
   47.304905        0.005000
   47.404905        0.004895
   47.504905        0.004747
   47.604905        0.005609
   47.704905        0.004982
   47.804905        0.005439
   47.904905        0.005294
   48.004905        0.005384
   48.104905        0.005122
   48.204905        0.005462
   48.304905        0.005437
   48.404905        0.004970
   48.504905        0.005696
   48.604905        0.005085
   48.704905        0.005964
   48.804905        0.005267
   48.904905        0.005556
   49.004905        0.005293
   49.104905        0.005263
   49.204905        0.005276
   49.304905        0.005845
   49.404905        0.005521
   49.504905        0.005585
   49.604905        0.005699
   49.704905        0.005551
   49.804905        0.005357
   49.904905        0.005826
   50.004905        0.005721
   50.104905        0.005273
   50.204905        0.005639
   50.304905        0.005400
   50.404905        0.005614
   50.504905        0.005568
   50.604905        0.005727
   50.704905        0.005674
   50.804905        0.005379
   50.904905        0.005398
   51.004905        0.005237
   51.104905        0.005415
   51.204905        0.005345
   51.304905        0.005554
   51.404905        0.005507
   51.504905        0.005624
   51.604905        0.005520
   51.704905        0.005664
   51.804905        0.005505
   51.904905        0.005550
   52.004905        0.005197
   52.104905        0.005579
   52.204905        0.005903
   52.304905        0.005368
   52.404905        0.005535
   52.504905        0.005584
   52.604905        0.005760
   52.704905        0.005479
   52.804905        0.005667
   52.904905        0.005933
   53.004905        0.005808
   53.104905        0.005727
   53.204905        0.005949
   53.304905        0.005900
   53.404905        0.005900