  -46.644419        1.375945
  -46.544419        0.467672
  -46.444419        0.525543
  -46.344419        0.651303
  -46.244419        0.680205
  -46.144419        0.603066
  -46.044419        0.543449
  -45.944419        0.533789
  -45.844419        0.485046
  -45.744419        0.474775
  -45.644419        0.319155
  -45.544419        0.348014
  -45.444419        0.212592
  -45.344419        0.164283
  -45.244419        0.135314
  -45.144419        0.077315
  -45.044419        0.096265
  -44.944419        0.009650
  -44.844419        0.038595
  -44.744419        0.009472
  -44.644419        0.019262
  -44.544419        0.000000
  -44.444419        0.000000
  -44.344419        0.000000
  -44.244419        0.000000
  -44.144419        0.000000
  -44.044419        0.000000
  -43.944419        0.000000
  -43.844419        0.000000
  -43.744419        0.000000
  -43.644419        0.000000
  -43.544419        0.000000
  -43.444419        0.000000
  -43.344419        0.000000
  -43.244419        0.000000
  -43.144419        0.000000
  -43.044419        0.000000
  -42.944419        0.000000
  -42.844419        0.000000
  -42.744419        0.000000
  -42.644419        0.000000
  -42.544419        0.000000
  -42.444419        0.000000
  -42.344419        0.000000
  -42.244419        0.000000
  -42.144419        0.000000
  -42.044419        0.000000
  -41.944419        0.000000
  -41.844419        0.000000
  -41.744419        0.000000
  -41.644419        0.000000
  -41.544419        0.000000
  -41.444419        0.000000
  -41.344419        0.000000
  -41.244419        0.000000
  -41.144419        0.000000
  -41.044419        0.000000
  -40.944419        0.000000
  -40.844419        0.000000
  -40.744419        0.000000
  -40.644419        0.000000
  -40.544419        0.000000
  -40.444419        0.000000
  -40.344419        0.000000
  -40.244419        0.000000
  -40.144419        0.000000
  -40.044419        0.000000
  -39.944419        0.000000
  -39.844419        0.000000
  -39.744419        0.000000
  -39.644419        0.000000
  -39.544419        0.000000
  -39.444419        0.000000
  -39.344419        0.000000
  -39.244419        0.000000
  -39.144419        0.000000
  -39.044419        0.000000
  -38.944419        0.000000
  -38.844419        0.000000
  -38.744419        0.000000
  -38.644419        0.000000
  -38.544419        0.000000
  -38.444419        0.000000
  -38.344419        0.000000
  -38.244419        0.000000
  -38.144419        0.000000
  -38.044419        0.000000
  -37.944419        0.000000
  -37.844419        0.000000
  -37.744419        0.000000
  -37.644419        0.000000
  -37.544419        0.000000
  -37.444419        0.000000
  -37.344419        0.000000
  -37.244419        0.000000
  -37.144419        0.000000
  -37.044419        0.000000
  -36.944419        0.000000
  -36.844419        0.000000
  -36.744419        0.000000
  -36.644419        0.000000
  -36.544419        0.000000
  -36.444419        0.000000
  -36.344419        0.000000
  -36.244419        0.000000
  -36.144419        0.000000
  -36.044419        0.000000
  -35.944419        0.000000
  -35.844419        0.000000
  -35.744419        0.000000
  -35.644419        0.000000
  -35.544419        0.000000
  -35.444419        0.000000
  -35.344419        0.000000
  -35.244419        0.000000
  -35.144419        0.000000
  -35.044419        0.000000
  -34.944419        0.000000
  -34.844419        0.000000
  -34.744419        0.000000
  -34.644419        0.000000
  -34.544419        0.000000
  -34.444419        0.000000
  -34.344419        0.000000
  -34.244419        0.000000
  -34.144419        0.000000
  -34.044419        0.000000
  -33.944419        0.000000
  -33.844419        0.000000
  -33.744419        0.000000
  -33.644419        0.000000
  -33.544419        0.000000
  -33.444419        0.000000
  -33.344419        0.000000
  -33.244419        0.000000
  -33.144419        0.000000
  -33.044419        0.000000
  -32.944419        0.000000
  -32.844419        0.000000
  -32.744419        0.000000
  -32.644419        0.000000
  -32.544419        0.000000
  -32.444419        0.000000
  -32.344419        0.000000
  -32.244419        0.000000
  -32.144419        0.000000
  -32.044419        0.000000
  -31.944419        0.000000
  -31.844419        0.000000
  -31.744419        0.000000
  -31.644419        0.000000
  -31.544419        0.000000
  -31.444419        0.000000
  -31.344419        0.000000
  -31.244419        0.000000
  -31.144419        0.000050
  -31.044419        0.000088
  -30.944419        0.000089
  -30.844419        0.000083
  -30.744419        0.000551
  -30.644419        0.000574
  -30.544419        0.000487
  -30.444419        0.000929
  -30.344419        0.001464
  -30.244419        0.001604
  -30.144419        0.002830
  -30.044419        0.002735
  -29.944419        0.002645
  -29.844419        0.003750
  -29.744419        0.003343
  -29.644419        0.003543
  -29.544419        0.003825
  -29.444419        0.003697
  -29.344419        0.002906
  -29.244419        0.003542
  -29.144419        0.002844
  -29.044419        0.001592
  -28.944419        0.001486
  -28.844419        0.001304
  -28.744419        0.000771
  -28.644419        0.000667
  -28.544419        0.000445
  -28.444419        0.000410
  -28.344419        0.000229
  -28.244419        0.000258
  -28.144419        0.000250
  -28.044419        0.000383
  -27.944419        0.000460
  -27.844419        0.000529
  -27.744419        0.000703
  -27.644419        0.000917
  -27.544419        0.000782
  -27.444419        0.000962
  -27.344419        0.000983
  -27.244419        0.000725
  -27.144419        0.000962
  -27.044419        0.000828
  -26.944419        0.000897
  -26.844419        0.000845
  -26.744419        0.000648
  -26.644419        0.000703
  -26.544419        0.000425
  -26.444419        0.000516
  -26.344419        0.000384
  -26.244419        0.000179
  -26.144419        0.000299
  -26.044419        0.000237
  -25.944419        0.000233
  -25.844419        0.000423
  -25.744419        0.000640
  -25.644419        0.000506
  -25.544419        0.001100
  -25.444419        0.000928
  -25.344419        0.001548
  -25.244419        0.002230
  -25.144419        0.003357
  -25.044419        0.002956
  -24.944419        0.004432
  -24.844419        0.004876
  -24.744419        0.005644
  -24.644419        0.005899
  -24.544419        0.006741
  -24.444419        0.005519
  -24.344419        0.006416
  -24.244419        0.006055
  -24.144419        0.007838
  -24.044419        0.008641
  -23.944419        0.007307
  -23.844419        0.008425
  -23.744419        0.007290
  -23.644419        0.007017
  -23.544419        0.008334
  -23.444419        0.006927
  -23.344419        0.006500
  -23.244419        0.005949
  -23.144419        0.006262
  -23.044419        0.005528
  -22.944419        0.004991
  -22.844419        0.004333
  -22.744419        0.003095
  -22.644419        0.002327
  -22.544419        0.002041
  -22.444419        0.002116
  -22.344419        0.002713
  -22.244419        0.002688
  -22.144419        0.002897
  -22.044419        0.003705
  -21.944419        0.003501
  -21.844419        0.003684
  -21.744419        0.003998
  -21.644419        0.004735
  -21.544419        0.005302
  -21.444419        0.005175
  -21.344419        0.005636
  -21.244419        0.005414
  -21.144419        0.005571
  -21.044419        0.005057
  -20.944419        0.005747
  -20.844419        0.005442
  -20.744419        0.005070
  -20.644419        0.004182
  -20.544419        0.004568
  -20.444419        0.003800
  -20.344419        0.003214
  -20.244419        0.002977
  -20.144419        0.002089
  -20.044419        0.001541
  -19.944419        0.001346
  -19.844419        0.000963
  -19.744419        0.000354
  -19.644419        0.000466
  -19.544419        0.000257
  -19.444419        0.000197
  -19.344419        0.000144
  -19.244419        0.000085
  -19.144419        0.000069
  -19.044419        0.000075
  -18.944419        0.000059
  -18.844419        0.000122
  -18.744419        0.000181
  -18.644419        0.000228
  -18.544419        0.000309
  -18.444419        0.000426
  -18.344419        0.000523
  -18.244419        0.000796
  -18.144419        0.000671
  -18.044419        0.001078
  -17.944419        0.000926
  -17.844419        0.000836
  -17.744419        0.000683
  -17.644419        0.000559
  -17.544419        0.000720
  -17.444419        0.000798
  -17.344419        0.000466
  -17.244419        0.000290
  -17.144419        0.000326
  -17.044419        0.000459
  -16.944419        0.000388
  -16.844419        0.000168
  -16.744419        0.000096
  -16.644419        0.000147
  -16.544419        0.000150
  -16.444419        0.000028
  -16.344419        0.000004
  -16.244419        0.000017
  -16.144419        0.000000
  -16.044419        0.000000
  -15.944419        0.000042
  -15.844419        0.000017
  -15.744419        0.000067
  -15.644419        0.000072
  -15.544419        0.000167
  -15.444419        0.000485
  -15.344419        0.000512
  -15.244419        0.000731
  -15.144419        0.000726
  -15.044419        0.000916
  -14.944419        0.001358
  -14.844419        0.001524
  -14.744419        0.001679
  -14.644419        0.001767
  -14.544419        0.001775
  -14.444419        0.001664
  -14.344419        0.001284
  -14.244419        0.001090
  -14.144419        0.001028
  -14.044419        0.001042
  -13.944419        0.000947
  -13.844419        0.000814
  -13.744419        0.000933
  -13.644419        0.000854
  -13.544419        0.000860
  -13.444419        0.000920
  -13.344419        0.000730
  -13.244419        0.000980
  -13.144419        0.000964
  -13.044419        0.000912
  -12.944419        0.000888
  -12.844419        0.000929
  -12.744419        0.000732
  -12.644419        0.000957
  -12.544419        0.001080
  -12.444419        0.001310
  -12.344419        0.001438
  -12.244419        0.001578
  -12.144419        0.001797
  -12.044419        0.001733
  -11.944419        0.001872
  -11.844419        0.001735
  -11.744419        0.001286
  -11.644419        0.001094
  -11.544419        0.000742
  -11.444419        0.000604
  -11.344419        0.000607
  -11.244419        0.000400
  -11.144419        0.000553
  -11.044419        0.000783
  -10.944419        0.000724
  -10.844419        0.000832
  -10.744419        0.001413
  -10.644419        0.001687
  -10.544419        0.001599
  -10.444419        0.001951
  -10.344419        0.002292
  -10.244419        0.002215
  -10.144419        0.002002
  -10.044419        0.002224
   -9.944419        0.002251
   -9.844419        0.002562
   -9.744419        0.002395
   -9.644419        0.002896
   -9.544419        0.002951
   -9.444419        0.002963
   -9.344419        0.003071
   -9.244419        0.002971
   -9.144419        0.002935
   -9.044419        0.002431
   -8.944419        0.002516
   -8.844419        0.002521
   -8.744419        0.002663
   -8.644419        0.002940
   -8.544419        0.002892
   -8.444419        0.004159
   -8.344419        0.003463
   -8.244419        0.003660
   -8.144419        0.003736
   -8.044419        0.002960
   -7.944419        0.004095
   -7.844419        0.003755
   -7.744419        0.004087
   -7.644419        0.005298
   -7.544419        0.005856
   -7.444419        0.007824
   -7.344419        0.009166
   -7.244419        0.009468
   -7.144419        0.010107
   -7.044419        0.010381
   -6.944419        0.010170
   -6.844419        0.010551
   -6.744419        0.009995
   -6.644419        0.008906
   -6.544419        0.008934
   -6.444419        0.008806
   -6.344419        0.008551
   -6.244419        0.009360
   -6.144419        0.008981
   -6.044419        0.009568
   -5.944419        0.009437
   -5.844419        0.009140
   -5.744419        0.008794
   -5.644419        0.009804
   -5.544419        0.009261
   -5.444419        0.008833
   -5.344419        0.008093
   -5.244419        0.007619
   -5.144419        0.006814
   -5.044419        0.005938
   -4.944419        0.005524
   -4.844419        0.004612
   -4.744419        0.004021
   -4.644419        0.003704
   -4.544419        0.002996
   -4.444419        0.003016
   -4.344419        0.002585
   -4.244419        0.002408
   -4.144419        0.002203
   -4.044419        0.002160
   -3.944419        0.001828
   -3.844419        0.002048
   -3.744419        0.001905
   -3.644419        0.002477
   -3.544419        0.002339
   -3.444419        0.002803
   -3.344419        0.003005
   -3.244419        0.003227
   -3.144419        0.003302
   -3.044419        0.004076
   -2.944419        0.003962
   -2.844419        0.004313
   -2.744419        0.004208
   -2.644419        0.004760
   -2.544419        0.004841
   -2.444419        0.004762
   -2.344419        0.004860
   -2.244419        0.004876
   -2.144419        0.004391
   -2.044419        0.005162
   -1.944419        0.004949
   -1.844419        0.005168
   -1.744419        0.005093
   -1.644419        0.004718
   -1.544419        0.004695
   -1.444419        0.004488
   -1.344419        0.004245
   -1.244419        0.003698
   -1.144419        0.003720
   -1.044419        0.003403
   -0.944419        0.002935
   -0.844419        0.002784
   -0.744419        0.002184
   -0.644419        0.001820
   -0.544419        0.001630
   -0.444419        0.001435
   -0.344419        0.001196
   -0.244419        0.000818
   -0.144419        0.000720
   -0.044419        0.000372
    0.055581        0.000275
    0.155581        0.000143
    0.255581        0.000131
    0.355581        0.000042
    0.455581        0.000039
    0.555581        0.000017
    0.655581        0.000000
    0.755581        0.000000
    0.855581        0.000000
    0.955581        0.000000
    1.055581        0.000008
    1.155581        0.000000
    1.255581        0.000000
    1.355581        0.000000
    1.455581        0.000000
    1.555581        0.000000
    1.655581        0.000000
    1.755581        0.000000
    1.855581        0.000000
    1.955581        0.000000
    2.055581        0.000000
    2.155581        0.000000
    2.255581        0.000000
    2.355581        0.000000
    2.455581        0.000000
    2.555581        0.000000
    2.655581        0.000000
    2.755581        0.000000
    2.855581        0.000000
    2.955581        0.000000
    3.055581        0.000000
    3.155581        0.000000
    3.255581        0.000000
    3.355581        0.000000
    3.455581        0.000000
    3.555581        0.000000
    3.655581        0.000000
    3.755581        0.000000
    3.855581        0.000000
    3.955581        0.000000
    4.055581        0.000000
    4.155581        0.000000
    4.255581        0.000189
    4.355581        0.000194
    4.455581        0.000207
    4.555581        0.000102
    4.655581        0.000458
    4.755581        0.000556
    4.855581        0.000654
    4.955581        0.000709
    5.055581        0.000962
    5.155581        0.001544
    5.255581        0.002811
    5.355581        0.003135
    5.455581        0.004378
    5.555581        0.004664
    5.655581        0.005215
    5.755581        0.006314
    5.855581        0.008407
    5.955581        0.009780
    6.055581        0.011176
    6.155581        0.013491
    6.255581        0.019083
    6.355581        0.017428
    6.455581        0.024827
    6.555581        0.030446
    6.655581        0.033597
    6.755581        0.039399
    6.855581        0.041394
    6.955581        0.052433
    7.055581        0.055896
    7.155581        0.063643
    7.255581        0.068614
    7.355581        0.072837
    7.455581        0.075369
    7.555581        0.076525
    7.655581        0.077650
    7.755581        0.085700
    7.855581        0.073613
    7.955581        0.079837
    8.055581        0.071362
    8.155581        0.076531
    8.255581        0.077517
    8.355581        0.074026
    8.455581        0.070654
    8.555581        0.073724
    8.655581        0.083592
    8.755581        0.079603
    8.855581        0.082975
    8.955581        0.082862
    9.055581        0.081567
    9.155581        0.088828
    9.255581        0.079226
    9.355581        0.086445
    9.455581        0.090937
    9.555581        0.077523
    9.655581        0.076795
    9.755581        0.065692
    9.855581        0.062953
    9.955581        0.063425
   10.055581        0.057399
   10.155581        0.057705
   10.255581        0.058845
   10.355581        0.054859
   10.455581        0.054719
   10.555581        0.051788
   10.655581        0.053660
   10.755581        0.055689
   10.855581        0.054482
   10.955581        0.054383
   11.055581        0.055695
   11.155581        0.053916
   11.255581        0.055354
   11.355581        0.058847
   11.455581        0.055421
   11.555581        0.057034
   11.655581        0.058038
   11.755581        0.053703
   11.855581        0.056907
   11.955581        0.058183
   12.055581        0.058739
   12.155581        0.059727
   12.255581        0.061047
   12.355581        0.060824
   12.455581        0.060228
   12.555581        0.059121
   12.655581        0.059334
   12.755581        0.058605
   12.855581        0.057641
   12.955581        0.058815
   13.055581        0.058764
   13.155581        0.056573
   13.255581        0.063943
   13.355581        0.057433
   13.455581        0.064342
   13.555581        0.064407
   13.655581        0.064877
   13.755581        0.064665
   13.855581        0.058875
   13.955581        0.065415
   14.055581        0.062621
   14.155581        0.064731
   14.255581        0.067745
   14.355581        0.067646
   14.455581        0.069021
   14.555581        0.068887
   14.655581        0.067103
   14.755581        0.071406
   14.855581        0.074635
   14.955581        0.070097
   15.055581        0.067916
   15.155581        0.069784
   15.255581        0.071124
   15.355581        0.071572
   15.455581        0.069443
   15.555581        0.069166
   15.655581        0.070171
   15.755581        0.067993
   15.855581        0.068909
   15.955581        0.064117
   16.055581        0.060499
   16.155581        0.056292
   16.255581        0.059512
   16.355581        0.054182
   16.455581        0.046978
   16.555581        0.051195
   16.655581        0.043951
   16.755581        0.044134
   16.855581        0.040340
   16.955581        0.040696
   17.055581        0.039550
   17.155581        0.036416
   17.255581        0.035288
   17.355581        0.034830
   17.455581        0.031116
   17.555581        0.033183
   17.655581        0.030094
   17.755581        0.033276
   17.855581        0.030700
   17.955581        0.029034
   18.055581        0.029246
   18.155581        0.027797
   18.255581        0.026429
   18.355581        0.025788
   18.455581        0.024035
   18.555581        0.026696
   18.655581        0.023425
   18.755581        0.024492
   18.855581        0.021794
   18.955581        0.021512
   19.055581        0.021629
   19.155581        0.020416
   19.255581        0.020386
   19.355581        0.018660
   19.455581        0.019741
   19.555581        0.018575
   19.655581        0.020174
   19.755581        0.018508
   19.855581        0.018866
   19.955581        0.018099
   20.055581        0.017324
   20.155581        0.018023
   20.255581        0.017552
   20.355581        0.017364
   20.455581        0.016902
   20.555581        0.016719
   20.655581        0.015699
   20.755581        0.017082
   20.855581        0.015867
   20.955581        0.015643
   21.055581        0.016205
   21.155581        0.015370
   21.255581        0.015063
   21.355581        0.015348
   21.455581        0.015250
   21.555581        0.014543
   21.655581        0.014532
   21.755581        0.013743
   21.855581        0.013345
   21.955581        0.014209
   22.055581        0.013627
   22.155581        0.013503
   22.255581        0.013426
   22.355581        0.012935
   22.455581        0.013197
   22.555581        0.013055
   22.655581        0.012095
   22.755581        0.012614
   22.855581        0.012244
   22.955581        0.012370
   23.055581        0.012524
   23.155581        0.012004
   23.255581        0.011882
   23.355581        0.011055
   23.455581        0.011946
   23.555581        0.011455
   23.655581        0.010685
   23.755581        0.011076
   23.855581        0.011744
   23.955581        0.010371
   24.055581        0.010845
   24.155581        0.011163
   24.255581        0.010841
   24.355581        0.010981
   24.455581        0.010633
   24.555581        0.010238
   24.655581        0.010791
   24.755581        0.010543
   24.855581        0.009779
   24.955581        0.010866
   25.055581        0.010241
   25.155581        0.009548
   25.255581        0.010279
   25.355581        0.010754
   25.455581        0.009845
   25.555581        0.009656
   25.655581        0.009848
   25.755581        0.010085
   25.855581        0.009128
   25.955581        0.009752
   26.055581        0.009357
   26.155581        0.010403
   26.255581        0.009964
   26.355581        0.009814
   26.455581        0.009607
   26.555581        0.010253
   26.655581        0.009410
   26.755581        0.009401
   26.855581        0.010431
   26.955581        0.009309
   27.055581        0.009931
   27.155581        0.009348
   27.255581        0.009788
   27.355581        0.009625
   27.455581        0.010070
   27.555581        0.009767
   27.655581        0.009647
   27.755581        0.009758
   27.855581        0.009378
   27.955581        0.009603
   28.055581        0.009586
   28.155581        0.010020
   28.255581        0.009595
   28.355581        0.009493
   28.455581        0.009992
   28.555581        0.010102
   28.655581        0.009978
   28.755581        0.009322
   28.855581        0.010127
   28.955581        0.009612
   29.055581        0.010141
   29.155581        0.009883
   29.255581        0.009736
   29.355581        0.010130
   29.455581        0.009964
   29.555581        0.010213
   29.655581        0.009770
   29.755581        0.010381
   29.855581        0.010378
   29.955581        0.010052
   30.055581        0.010224
   30.155581        0.010023
   30.255581        0.009254
   30.355581        0.010128
   30.455581        0.009772
   30.555581        0.009498
   30.655581        0.009841
   30.755581        0.010075
   30.855581        0.009632
   30.955581        0.009750
   31.055581        0.009082
   31.155581        0.009898
   31.255581        0.009381
   31.355581        0.009478
   31.455581        0.008946
   31.555581        0.009135
   31.655581        0.009067
   31.755581        0.009167
   31.855581        0.008964
   31.955581        0.008676
   32.055581        0.008732
   32.155581        0.009009
   32.255581        0.008908
   32.355581        0.008652
   32.455581        0.008431
   32.555581        0.009073
   32.655581        0.008715
   32.755581        0.008631
   32.855581        0.009005
   32.955581        0.008130
   33.055581        0.008100
   33.155581        0.008349
   33.255581        0.008032
   33.355581        0.008603
   33.455581        0.008714
   33.555581        0.008330
   33.655581        0.008419
   33.755581        0.008435
   33.855581        0.008398
   33.955581        0.008541
   34.055581        0.008482
   34.155581        0.008513
   34.255581        0.008062
   34.355581        0.008976
   34.455581        0.008493
   34.555581        0.008306
   34.655581        0.008192
   34.755581        0.008541
   34.855581        0.008512
   34.955581        0.008476
   35.055581        0.007948
   35.155581        0.008819
   35.255581        0.008668
   35.355581        0.008938
   35.455581        0.008132
   35.555581        0.009053
   35.655581        0.008139
   35.755581        0.008251
   35.855581        0.008687
   35.955581        0.008257
   36.055581        0.008784
   36.155581        0.008627
   36.255581        0.007987
   36.355581        0.008825
   36.455581        0.008828
   36.555581        0.008595
   36.655581        0.008586
   36.755581        0.008934
   36.855581        0.008383
   36.955581        0.009043
   37.055581        0.008731
   37.155581        0.008738
   37.255581        0.008978
   37.355581        0.009054
   37.455581        0.008734
   37.555581        0.009084
   37.655581        0.008996
   37.755581        0.009051
   37.855581        0.009267
   37.955581        0.008891
   38.055581        0.009169
   38.155581        0.008548
   38.255581        0.010008
   38.355581        0.008923
   38.455581        0.009482
   38.555581        0.009638
   38.655581        0.009251
   38.755581        0.009589
   38.855581        0.009257
   38.955581        0.009218
   39.055581        0.009449
   39.155581        0.009420
   39.255581        0.010118
   39.355581        0.009652
   39.455581        0.009565
   39.555581        0.009240
   39.655581        0.010058
   39.755581        0.010366
   39.855581        0.009789
   39.955581        0.010170
   40.055581        0.009614
   40.155581        0.010235
   40.255581        0.010077
   40.355581        0.010166
   40.455581        0.010564
   40.555581        0.009953
   40.655581        0.009884
   40.755581        0.010482
   40.855581        0.009726
   40.955581        0.010573
   41.055581        0.009944
   41.155581        0.010529
   41.255581        0.010697
   41.355581        0.010614
   41.455581        0.010094
   41.555581        0.010352
   41.655581        0.010554
   41.755581        0.009631
   41.855581        0.010222
   41.955581        0.010948
   42.055581        0.010608
   42.155581        0.009994
   42.255581        0.011064
   42.355581        0.010041
   42.455581        0.010928
   42.555581        0.010253
   42.655581        0.010536
   42.755581        0.010038
   42.855581        0.011179
   42.955581        0.010717
   43.055581        0.010618
   43.155581        0.010825
   43.255581        0.010576
   43.355581        0.010328
   43.455581        0.011099
   43.555581        0.010213
   43.655581        0.010743
   43.755581        0.010573
   43.855581        0.011245
   43.955581        0.010936
   44.055581        0.010857
   44.155581        0.011357
   44.255581        0.010922
   44.355581        0.010403
   44.455581        0.011577
   44.555581        0.011093
   44.655581        0.011667
   44.755581        0.010791
   44.855581        0.011713
   44.955581        0.010997
   45.055581        0.011593
   45.155581        0.010902
   45.255581        0.011673
   45.355581        0.011843
   45.455581        0.011528
   45.555581        0.012107
   45.655581        0.011641
   45.755581        0.011734
   45.855581        0.011233
   45.955581        0.011692
   46.055581        0.011574
   46.155581        0.011477
   46.255581        0.011337
   46.355581        0.012289
   46.455581        0.011102
   46.555581        0.012935
   46.655581        0.011447
   46.755581        0.011099
   46.855581        0.010949
   46.955581        0.012984
   47.055581        0.011716
   47.155581        0.013096
   47.255581        0.011946
   47.355581        0.012540
   47.455581        0.011871
   47.555581        0.012715
   47.655581        0.012286
   47.755581        0.011611
   47.855581        0.011701
   47.955581        0.012159
   48.055581        0.012215
   48.155581        0.012232
   48.255581        0.012118
   48.355581        0.011459
   48.455581        0.012760
   48.555581        0.011999
   48.655581        0.011975
   48.755581        0.012005
   48.855581        0.012338
   48.955581        0.012452
   49.055581        0.011516
   49.155581        0.012381
   49.255581        0.011172
   49.355581        0.011877
   49.455581        0.012014
   49.555581        0.012363
   49.655581        0.011989
   49.755581        0.011461
   49.855581        0.012389
   49.955581        0.011286
   50.055581        0.011233
   50.155581        0.011400
   50.255581        0.011235
   50.355581        0.011602
   50.455581        0.011263
   50.555581        0.011437
   50.655581        0.010919
   50.755581        0.011714
   50.855581        0.010714
   50.955581        0.011270
   51.055581        0.011128
   51.155581        0.010718
   51.255581        0.010588
   51.355581        0.010868
   51.455581        0.011022
   51.555581        0.010640
   51.655581        0.010835
   51.755581        0.010363
   51.855581        0.010879
   51.955581        0.010804
   52.055581        0.011109
   52.155581        0.010955
   52.255581        0.010962
   52.355581        0.010879
   52.455581        0.011298
   52.555581        0.011286
   52.655581        0.011949
   52.755581        0.010667
   52.855581        0.011485
   52.955581        0.011569
   53.055581        0.011936
   53.155581        0.011202
   53.255581        0.011966