  -47.258505        1.356559
  -47.158505        0.444906
  -47.058505        0.556841
  -46.958505        0.571116
  -46.858505        0.594774
  -46.758505        0.712302
  -46.658505        0.774694
  -46.558505        0.648086
  -46.458505        0.759023
  -46.358505        0.782799
  -46.258505        0.626350
  -46.158505        0.543958
  -46.058505        0.417236
  -45.958505        0.514751
  -45.858505        0.315061
  -45.758505        0.324526
  -45.658505        0.208344
  -45.558505        0.174371
  -45.458505        0.125769
  -45.358505        0.091843
  -45.258505        0.072475
  -45.158505        0.019384
  -45.058505        0.033810
  -44.958505        0.019318
  -44.858505        0.009656
  -44.758505        0.000000
  -44.658505        0.009652
  -44.558505        0.000000
  -44.458505        0.000000
  -44.358505        0.000000
  -44.258505        0.000000
  -44.158505        0.004761
  -44.058505        0.000000
  -43.958505        0.000000
  -43.858505        0.000000
  -43.758505        0.000000
  -43.658505        0.000000
  -43.558505        0.000000
  -43.458505        0.000000
  -43.358505        0.000000
  -43.258505        0.000000
  -43.158505        0.000000
  -43.058505        0.000000
  -42.958505        0.000000
  -42.858505        0.000000
  -42.758505        0.000000
  -42.658505        0.000000
  -42.558505        0.000000
  -42.458505        0.000000
  -42.358505        0.000000
  -42.258505        0.000000
  -42.158505        0.000000
  -42.058505        0.000000
  -41.958505        0.000000
  -41.858505        0.000000
  -41.758505        0.000000
  -41.658505        0.000000
  -41.558505        0.000000
  -41.458505        0.000000
  -41.358505        0.000000
  -41.258505        0.000000
  -41.158505        0.000000
  -41.058505        0.000000
  -40.958505        0.000000
  -40.858505        0.000000
  -40.758505        0.000000
  -40.658505        0.000000
  -40.558505        0.000000
  -40.458505        0.000000
  -40.358505        0.000000
  -40.258505        0.000000
  -40.158505        0.000000
  -40.058505        0.000000
  -39.958505        0.000000
  -39.858505        0.000000
  -39.758505        0.000000
  -39.658505        0.000000
  -39.558505        0.000000
  -39.458505        0.000000
  -39.358505        0.000000
  -39.258505        0.000000
  -39.158505        0.000000
  -39.058505        0.000000
  -38.958505        0.000000
  -38.858505        0.000000
  -38.758505        0.000000
  -38.658505        0.000000
  -38.558505        0.000000
  -38.458505        0.000000
  -38.358505        0.000000
  -38.258505        0.000000
  -38.158505        0.000000
  -38.058505        0.000000
  -37.958505        0.000000
  -37.858505        0.000000
  -37.758505        0.000000
  -37.658505        0.000000
  -37.558505        0.000000
  -37.458505        0.000000
  -37.358505        0.000000
  -37.258505        0.000000
  -37.158505        0.000000
  -37.058505        0.000000
  -36.958505        0.000000
  -36.858505        0.000000
  -36.758505        0.000000
  -36.658505        0.000000
  -36.558505        0.000000
  -36.458505        0.000000
  -36.358505        0.000000
  -36.258505        0.000000
  -36.158505        0.000000
  -36.058505        0.000000
  -35.958505        0.000000
  -35.858505        0.000000
  -35.758505        0.000000
  -35.658505        0.000000
  -35.558505        0.000000
  -35.458505        0.000000
  -35.358505        0.000000
  -35.258505        0.000000
  -35.158505        0.000000
  -35.058505        0.000000
  -34.958505        0.000000
  -34.858505        0.000000
  -34.758505        0.000000
  -34.658505        0.000000
  -34.558505        0.000000
  -34.458505        0.000000
  -34.358505        0.000000
  -34.258505        0.000000
  -34.158505        0.000000
  -34.058505        0.000000
  -33.958505        0.000000
  -33.858505        0.000000
  -33.758505        0.000000
  -33.658505        0.000000
  -33.558505        0.000000
  -33.458505        0.000000
  -33.358505        0.000000
  -33.258505        0.000000
  -33.158505        0.000000
  -33.058505        0.000000
  -32.958505        0.000000
  -32.858505        0.000000
  -32.758505        0.000000
  -32.658505        0.000000
  -32.558505        0.000000
  -32.458505        0.000000
  -32.358505        0.000000
  -32.258505        0.000000
  -32.158505        0.000000
  -32.058505        0.000000
  -31.958505        0.000000
  -31.858505        0.000000
  -31.758505        0.000054
  -31.658505        0.000016
  -31.558505        0.000007
  -31.458505        0.000000
  -31.358505        0.000032
  -31.258505        0.000110
  -31.158505        0.000156
  -31.058505        0.000280
  -30.958505        0.000515
  -30.858505        0.000677
  -30.758505        0.000747
  -30.658505        0.001332
  -30.558505        0.001254
  -30.458505        0.002512
  -30.358505        0.003807
  -30.258505        0.003532
  -30.158505        0.003963
  -30.058505        0.004719
  -29.958505        0.004909
  -29.858505        0.005179
  -29.758505        0.005364
  -29.658505        0.005712
  -29.558505        0.004959
  -29.458505        0.004576
  -29.358505        0.005038
  -29.258505        0.003739
  -29.158505        0.002914
  -29.058505        0.002978
  -28.958505        0.002121
  -28.858505        0.001851
  -28.758505        0.001487
  -28.658505        0.001088
  -28.558505        0.001039
  -28.458505        0.000824
  -28.358505        0.000954
  -28.258505        0.001001
  -28.158505        0.001039
  -28.058505        0.000867
  -27.958505        0.001042
  -27.858505        0.001282
  -27.758505        0.001384
  -27.658505        0.001485
  -27.558505        0.001525
  -27.458505        0.001511
  -27.358505        0.001501
  -27.258505        0.001672
  -27.158505        0.001428
  -27.058505        0.001409
  -26.958505        0.001398
  -26.858505        0.001152
  -26.758505        0.001386
  -26.658505        0.001072
  -26.558505        0.000800
  -26.458505        0.000744
  -26.358505        0.000735
  -26.258505        0.000701
  -26.158505        0.000748
  -26.058505        0.000666
  -25.958505        0.000964
  -25.858505        0.001206
  -25.758505        0.001573
  -25.658505        0.001823
  -25.558505        0.001843
  -25.458505        0.002855
  -25.358505        0.003928
  -25.258505        0.004320
  -25.158505        0.004298
  -25.058505        0.005135
  -24.958505        0.006405
  -24.858505        0.006581
  -24.758505        0.006985
  -24.658505        0.007078
  -24.558505        0.008358
  -24.458505        0.008891
  -24.358505        0.009712
  -24.258505        0.009109
  -24.158505        0.010817
  -24.058505        0.012207
  -23.958505        0.009854
  -23.858505        0.009678
  -23.758505        0.011376
  -23.658505        0.011239
  -23.558505        0.010931
  -23.458505        0.010849
  -23.358505        0.008575
  -23.258505        0.007951
  -23.158505        0.006621
  -23.058505        0.006547
  -22.958505        0.005269
  -22.858505        0.005231
  -22.758505        0.003704
  -22.658505        0.003447
  -22.558505        0.003612
  -22.458505        0.003683
  -22.358505        0.004198
  -22.258505        0.003743
  -22.158505        0.003822
  -22.058505        0.004467
  -21.958505        0.004442
  -21.858505        0.005108
  -21.758505        0.005165
  -21.658505        0.006142
  -21.558505        0.005621
  -21.458505        0.006425
  -21.358505        0.006583
  -21.258505        0.006676
  -21.158505        0.006834
  -21.058505        0.006680
  -20.958505        0.007107
  -20.858505        0.005806
  -20.758505        0.005552
  -20.658505        0.005363
  -20.558505        0.004744
  -20.458505        0.004558
  -20.358505        0.003850
  -20.258505        0.003025
  -20.158505        0.002281
  -20.058505        0.002224
  -19.958505        0.001641
  -19.858505        0.001440
  -19.758505        0.000747
  -19.658505        0.000912
  -19.558505        0.000551
  -19.458505        0.000471
  -19.358505        0.000342
  -19.258505        0.000274
  -19.158505        0.000348
  -19.058505        0.000272
  -18.958505        0.000271
  -18.858505        0.000338
  -18.758505        0.000356
  -18.658505        0.000548
  -18.558505        0.000612
  -18.458505        0.000648
  -18.358505        0.000775
  -18.258505        0.000880
  -18.158505        0.001101
  -18.058505        0.000868
  -17.958505        0.001059
  -17.858505        0.000936
  -17.758505        0.001034
  -17.658505        0.000796
  -17.558505        0.000905
  -17.458505        0.000932
  -17.358505        0.000688
  -17.258505        0.000620
  -17.158505        0.000512
  -17.058505        0.000439
  -16.958505        0.000297
  -16.858505        0.000238
  -16.758505        0.000265
  -16.658505        0.000128
  -16.558505        0.000183
  -16.458505        0.000092
  -16.358505        0.000063
  -16.258505        0.000041
  -16.158505        0.000050
  -16.058505        0.000037
  -15.958505        0.000037
  -15.858505        0.000077
  -15.758505        0.000096
  -15.658505        0.000221
  -15.558505        0.000303
  -15.458505        0.000525
  -15.358505        0.000521
  -15.258505        0.000745
  -15.158505        0.000949
  -15.058505        0.001101
  -14.958505        0.001127
  -14.858505        0.001429
  -14.758505        0.001417
  -14.658505        0.001460
  -14.558505        0.001431
  -14.458505        0.001445
  -14.358505        0.001350
  -14.258505        0.001187
  -14.158505        0.001286
  -14.058505        0.001081
  -13.958505        0.001039
  -13.858505        0.001132
  -13.758505        0.001238
  -13.658505        0.001422
  -13.558505        0.001302
  -13.458505        0.001532
  -13.358505        0.001280
  -13.258505        0.001469
  -13.158505        0.001461
  -13.058505        0.001364
  -12.958505        0.001383
  -12.858505        0.001347
  -12.758505        0.001440
  -12.658505        0.001374
  -12.558505        0.001564
  -12.458505        0.001767
  -12.358505        0.001957
  -12.258505        0.001773
  -12.158505        0.001814
  -12.058505        0.001881
  -11.958505        0.001513
  -11.858505        0.001470
  -11.758505        0.001160
  -11.658505        0.001081
  -11.558505        0.000774
  -11.458505        0.000652
  -11.358505        0.000825
  -11.258505        0.000852
  -11.158505        0.000892
  -11.058505        0.001047
  -10.958505        0.001526
  -10.858505        0.001883
  -10.758505        0.002076
  -10.658505        0.002267
  -10.558505        0.002487
  -10.458505        0.002606
  -10.358505        0.002872
  -10.258505        0.003129
  -10.158505        0.003307
  -10.058505        0.003179
   -9.958505        0.003366
   -9.858505        0.003664
   -9.758505        0.003811
   -9.658505        0.004097
   -9.558505        0.004016
   -9.458505        0.004292
   -9.358505        0.003933
   -9.258505        0.003785
   -9.158505        0.003582
   -9.058505        0.004149
   -8.958505        0.003704
   -8.858505        0.004613
   -8.758505        0.004518
   -8.658505        0.004938
   -8.558505        0.004950
   -8.458505        0.005237
   -8.358505        0.004682
   -8.258505        0.004864
   -8.158505        0.005547
   -8.058505        0.004973
   -7.958505        0.005373
   -7.858505        0.005949
   -7.758505        0.006947
   -7.658505        0.007242
   -7.558505        0.008703
   -7.458505        0.008866
   -7.358505        0.009275
   -7.258505        0.010193
   -7.158505        0.010148
   -7.058505        0.010710
   -6.958505        0.010946
   -6.858505        0.011400
   -6.758505        0.011091
   -6.658505        0.011111
   -6.558505        0.010945
   -6.458505        0.010385
   -6.358505        0.011218
   -6.258505        0.010503
   -6.158505        0.010866
   -6.058505        0.011843
   -5.958505        0.011549
   -5.858505        0.011271
   -5.758505        0.011374
   -5.658505        0.010613
   -5.558505        0.011114
   -5.458505        0.010835
   -5.358505        0.010168
   -5.258505        0.009154
   -5.158505        0.008231
   -5.058505        0.007464
   -4.958505        0.006806
   -4.858505        0.006256
   -4.758505        0.005761
   -4.658505        0.005359
   -4.558505        0.004943
   -4.458505        0.004429
   -4.358505        0.004133
   -4.258505        0.003810
   -4.158505        0.003366
   -4.058505        0.003629
   -3.958505        0.003594
   -3.858505        0.003616
   -3.758505        0.004212
   -3.658505        0.003873
   -3.558505        0.004588
   -3.458505        0.005278
   -3.358505        0.005090
   -3.258505        0.005416
   -3.158505        0.005793
   -3.058505        0.006390
   -2.958505        0.006361
   -2.858505        0.006442
   -2.758505        0.006721
   -2.658505        0.007139
   -2.558505        0.007046
   -2.458505        0.006961
   -2.358505        0.007285
   -2.258505        0.007111
   -2.158505        0.007092
   -2.058505        0.007163
   -1.958505        0.006646
   -1.858505        0.006489
   -1.758505        0.006374
   -1.658505        0.006329
   -1.558505        0.005826
   -1.458505        0.005512
   -1.358505        0.005278
   -1.258505        0.004712
   -1.158505        0.004193
   -1.058505        0.004028
   -0.958505        0.003651
   -0.858505        0.002995
   -0.758505        0.002642
   -0.658505        0.002407
   -0.558505        0.001852
   -0.458505        0.001422
   -0.358505        0.001134
   -0.258505        0.000952
   -0.158505        0.000745
   -0.058505        0.000636
    0.041495        0.000384
    0.141495        0.000240
    0.241495        0.000235
    0.341495        0.000134
    0.441495        0.000090
    0.541495        0.000088
    0.641495        0.000027
    0.741495        0.000013
    0.841495        0.000005
    0.941495        0.000005
    1.041495        0.000008
    1.141495        0.000000
    1.241495        0.000000
    1.341495        0.000000
    1.441495        0.000000
    1.541495        0.000000
    1.641495        0.000000
    1.741495        0.000000
    1.841495        0.000000
    1.941495        0.000000
    2.041495        0.000000
    2.141495        0.000000
    2.241495        0.000000
    2.341495        0.000000
    2.441495        0.000000
    2.541495        0.000000
    2.641495        0.000000
    2.741495        0.000000
    2.841495        0.000000
    2.941495        0.000000
    3.041495        0.000000
    3.141495        0.000000
    3.241495        0.000000
    3.341495        0.000000
    3.441495        0.000029
    3.541495        0.000000
    3.641495        0.000047
    3.741495        0.000000
    3.841495        0.000106
    3.941495        0.000262
    4.041495        0.000146
    4.141495        0.000334
    4.241495        0.000323
    4.341495        0.000433
    4.441495        0.000627
    4.541495        0.001028
    4.641495        0.001630
    4.741495        0.002297
    4.841495        0.002721
    4.941495        0.003150
    5.041495        0.003592
    5.141495        0.005118
    5.241495        0.006460
    5.341495        0.008242
    5.441495        0.007763
    5.541495        0.010321
    5.641495        0.011261
    5.741495        0.016196
    5.841495        0.016483
    5.941495        0.019862
    6.041495        0.023343
    6.141495        0.027379
    6.241495        0.034445
    6.341495        0.042078
    6.441495        0.050042
    6.541495        0.053180
    6.641495        0.059080
    6.741495        0.065852
    6.841495        0.074509
    6.941495        0.078753
    7.041495        0.090458
    7.141495        0.090775
    7.241495        0.098795
    7.341495        0.096746
    7.441495        0.098658
    7.541495        0.099525
    7.641495        0.101283
    7.741495        0.103186
    7.841495        0.103794
    7.941495        0.094340
    8.041495        0.099437
    8.141495        0.097358
    8.241495        0.096873
    8.341495        0.091375
    8.441495        0.098726
    8.541495        0.100701
    8.641495        0.110010
    8.741495        0.114145
    8.841495        0.120635
    8.941495        0.120636
    9.041495        0.123374
    9.141495        0.130359
    9.241495        0.128168
    9.341495        0.130122
    9.441495        0.127387
    9.541495        0.116314
    9.641495        0.112696
    9.741495        0.111310
    9.841495        0.101452
    9.941495        0.099352
   10.041495        0.097318
   10.141495        0.094681
   10.241495        0.092321
   10.341495        0.091543
   10.441495        0.088121
   10.541495        0.090570
   10.641495        0.087629
   10.741495        0.092986
   10.841495        0.084767
   10.941495        0.088319
   11.041495        0.087042
   11.141495        0.088340
   11.241495        0.088969
   11.341495        0.089746
   11.441495        0.086708
   11.541495        0.091745
   11.641495        0.087571
   11.741495        0.086581
   11.841495        0.091062
   11.941495        0.089009
   12.041495        0.089864
   12.141495        0.087022
   12.241495        0.085846
   12.341495        0.090671
   12.441495        0.089759
   12.541495        0.090381
   12.641495        0.089366
   12.741495        0.091935
   12.841495        0.085673
   12.941495        0.091231
   13.041495        0.091854
   13.141495        0.087390
   13.241495        0.093510
   13.341495        0.090956
   13.441495        0.091280
   13.541495        0.089082
   13.641495        0.092846
   13.741495        0.091677
   13.841495        0.092645
   13.941495        0.098455
   14.041495        0.091322
   14.141495        0.099892
   14.241495        0.097068
   14.341495        0.098868
   14.441495        0.094806
   14.541495        0.096873
   14.641495        0.097363
   14.741495        0.097324
   14.841495        0.098406
   14.941495        0.100191
   15.041495        0.100264
   15.141495        0.094690
   15.241495        0.096380
   15.341495        0.096646
   15.441495        0.092089
   15.541495        0.087679
   15.641495        0.083860
   15.741495        0.085184
   15.841495        0.078860
   15.941495        0.075184
   16.041495        0.074131
   16.141495        0.067047
   16.241495        0.065054
   16.341495        0.062770
   16.441495        0.061421
   16.541495        0.057211
   16.641495        0.055254
   16.741495        0.054080
   16.841495        0.051985
   16.941495        0.050175
   17.041495        0.048384
   17.141495        0.047120
   17.241495        0.044778
   17.341495        0.043561
   17.441495        0.042818
   17.541495        0.043000
   17.641495        0.038983
   17.741495        0.039061
   17.841495        0.036832
   17.941495        0.037292
   18.041495        0.033887
   18.141495        0.032546
   18.241495        0.032418
   18.341495        0.031542
   18.441495        0.030546
   18.541495        0.028877
   18.641495        0.028501
   18.741495        0.027244
   18.841495        0.027930
   18.941495        0.026261
   19.041495        0.026088
   19.141495        0.025436
   19.241495        0.024295
   19.341495        0.024409
   19.441495        0.022691
   19.541495        0.023431
   19.641495        0.022588
   19.741495        0.022956
   19.841495        0.022526
   19.941495        0.022217
   20.041495        0.021912
   20.141495        0.022231
   20.241495        0.021401
   20.341495        0.021492
   20.441495        0.021184
   20.541495        0.020808
   20.641495        0.020878
   20.741495        0.020567
   20.841495        0.021161
   20.941495        0.021056
   21.041495        0.019931
   21.141495        0.020481
   21.241495        0.019042
   21.341495        0.019839
   21.441495        0.020017
   21.541495        0.019263
   21.641495        0.019162
   21.741495        0.019041
   21.841495        0.018738
   21.941495        0.018796
   22.041495        0.019063
   22.141495        0.018589
   22.241495        0.017959
   22.341495        0.017814
   22.441495        0.018060
   22.541495        0.017485
   22.641495        0.017035
   22.741495        0.018022
   22.841495        0.016968
   22.941495        0.017260
   23.041495        0.016729
   23.141495        0.016993
   23.241495        0.017517
   23.341495        0.016550
   23.441495        0.016436
   23.541495        0.016633
   23.641495        0.015949
   23.741495        0.015809
   23.841495        0.015595
   23.941495        0.016047
   24.041495        0.015499
   24.141495        0.015957
   24.241495        0.015338
   24.341495        0.015543
   24.441495        0.015381
   24.541495        0.015482
   24.641495        0.015283
   24.741495        0.014645
   24.841495        0.015605
   24.941495        0.014910
   25.041495        0.015066
   25.141495        0.015070
   25.241495        0.014934
   25.341495        0.014148
   25.441495        0.014773
   25.541495        0.014386
   25.641495        0.014530
   25.741495        0.014016
   25.841495        0.014633
   25.941495        0.014404
   26.041495        0.013999
   26.141495        0.014133
   26.241495        0.013977
   26.341495        0.014131
   26.441495        0.014202
   26.541495        0.014433
   26.641495        0.014578
   26.741495        0.014696
   26.841495        0.014335
   26.941495        0.013863
   27.041495        0.014424
   27.141495        0.013761
   27.241495        0.014431
   27.341495        0.014137
   27.441495        0.014707
   27.541495        0.013774
   27.641495        0.014503
   27.741495        0.014114
   27.841495        0.014209
   27.941495        0.014177
   28.041495        0.014130
   28.141495        0.014556
   28.241495        0.014672
   28.341495        0.014560
   28.441495        0.015269
   28.541495        0.014486
   28.641495        0.014119
   28.741495        0.014888
   28.841495        0.014981
   28.941495        0.014807
   29.041495        0.014400
   29.141495        0.014999
   29.241495        0.014307
   29.341495        0.015123
   29.441495        0.014884
   29.541495        0.014385
   29.641495        0.014803
   29.741495        0.014863
   29.841495        0.015097
   29.941495        0.014777
   30.041495        0.014672
   30.141495        0.014798
   30.241495        0.013671
   30.341495        0.015324
   30.441495        0.014189
   30.541495        0.014675
   30.641495        0.013984
   30.741495        0.014423
   30.841495        0.013632
   30.941495        0.013573
   31.041495        0.014195
   31.141495        0.014201
   31.241495        0.013684
   31.341495        0.013615
   31.441495        0.013417
   31.541495        0.013323
   31.641495        0.013105
   31.741495        0.013213
   31.841495        0.013245
   31.941495        0.013197
   32.041495        0.012977
   32.141495        0.012808
   32.241495        0.012737
   32.341495        0.012707
   32.441495        0.012460
   32.541495        0.012702
   32.641495        0.012806
   32.741495        0.012791
   32.841495        0.012880
   32.941495        0.012545
   33.041495        0.012272
   33.141495        0.012504
   33.241495        0.012143
   33.341495        0.013330
   33.441495        0.011917
   33.541495        0.012062
   33.641495        0.012635
   33.741495        0.012400
   33.841495        0.011397
   33.941495        0.012647
   34.041495        0.011991
   34.141495        0.012373
   34.241495        0.012219
   34.341495        0.012098
   34.441495        0.012099
   34.541495        0.012189
   34.641495        0.012018
   34.741495        0.012171
   34.841495        0.012218
   34.941495        0.012100
   35.041495        0.011801
   35.141495        0.012524
   35.241495        0.012363
   35.341495        0.012057
   35.441495        0.012978
   35.541495        0.012184
   35.641495        0.012415
   35.741495        0.012749
   35.841495        0.012364
   35.941495        0.013050
   36.041495        0.012664
   36.141495        0.012492
   36.241495        0.012523
   36.341495        0.012665
   36.441495        0.012276
   36.541495        0.013533
   36.641495        0.012643
   36.741495        0.013200
   36.841495        0.012895
   36.941495        0.013354
   37.041495        0.013217
   37.141495        0.012684
   37.241495        0.013198
   37.341495        0.012794
   37.441495        0.013086
   37.541495        0.013845
   37.641495        0.013167
   37.741495        0.012914
   37.841495        0.013498
   37.941495        0.013401
   38.041495        0.013484
   38.141495        0.013803
   38.241495        0.013442
   38.341495        0.013926
   38.441495        0.013734
   38.541495        0.013370
   38.641495        0.014202
   38.741495        0.014181
   38.841495        0.013534
   38.941495        0.014312
   39.041495        0.013656
   39.141495        0.014165
   39.241495        0.014960
   39.341495        0.014795
   39.441495        0.014338
   39.541495        0.014594
   39.641495        0.014759
   39.741495        0.015175
   39.841495        0.014399
   39.941495        0.015651
   40.041495        0.015012
   40.141495        0.015404
   40.241495        0.015088
   40.341495        0.015297
   40.441495        0.015372
   40.541495        0.015084
   40.641495        0.015413
   40.741495        0.016277
   40.841495        0.015205
   40.941495        0.015335
   41.041495        0.015475
   41.141495        0.016046
   41.241495        0.016197
   41.341495        0.015987
   41.441495        0.016181
   41.541495        0.015397
   41.641495        0.015803
   41.741495        0.016052
   41.841495        0.016810
   41.941495        0.016061
   42.041495        0.015507
   42.141495        0.016459
   42.241495        0.016343
   42.341495        0.016479
   42.441495        0.015338
   42.541495        0.016426
   42.641495        0.016553
   42.741495        0.015761
   42.841495        0.016645
   42.941495        0.015895
   43.041495        0.016816
   43.141495        0.016475
   43.241495        0.016178
   43.341495        0.016527
   43.441495        0.016210
   43.541495        0.016733
   43.641495        0.016931
   43.741495        0.016485
   43.841495        0.017389
   43.941495        0.016732
   44.041495        0.016493
   44.141495        0.017218
   44.241495        0.016930
   44.341495        0.017024
   44.441495        0.017337
   44.541495        0.017091
   44.641495        0.016524
   44.741495        0.016320
   44.841495        0.017059
   44.941495        0.017981
   45.041495        0.017780
   45.141495        0.016747
   45.241495        0.017563
   45.341495        0.017239
   45.441495        0.017630
   45.541495        0.017506
   45.641495        0.017486
   45.741495        0.017134
   45.841495        0.018928
   45.941495        0.018319
   46.041495        0.018138
   46.141495        0.017722
   46.241495        0.018581
   46.341495        0.019095
   46.441495        0.019296
   46.541495        0.018577
   46.641495        0.019179
   46.741495        0.018332
   46.841495        0.019540
   46.941495        0.018954
   47.041495        0.018894
   47.141495        0.018177
   47.241495        0.019438
   47.341495        0.019513
   47.441495        0.019110
   47.541495        0.018407
   47.641495        0.018868
   47.741495        0.019682
   47.841495        0.018232
   47.941495        0.020012
   48.041495        0.018613
   48.141495        0.018942
   48.241495        0.019155
   48.341495        0.018702
   48.441495        0.018433
   48.541495        0.018369
   48.641495        0.018375
   48.741495        0.018580
   48.841495        0.018212
   48.941495        0.018464
   49.041495        0.018225
   49.141495        0.018028
   49.241495        0.018551
   49.341495        0.017666
   49.441495        0.017278
   49.541495        0.017911
   49.641495        0.018105
   49.741495        0.016434
   49.841495        0.017233
   49.941495        0.017597
   50.041495        0.016779
   50.141495        0.016517
   50.241495        0.016956
   50.341495        0.016759
   50.441495        0.016446
   50.541495        0.016604
   50.641495        0.016485
   50.741495        0.016015
   50.841495        0.016288
   50.941495        0.016209
   51.041495        0.016377
   51.141495        0.015779
   51.241495        0.016708
   51.341495        0.016200
   51.441495        0.016016
   51.541495        0.016875
   51.641495        0.016814
   51.741495        0.016364
   51.841495        0.016511
   51.941495        0.017125
   52.041495        0.016974
   52.141495        0.016852
   52.241495        0.017082
   52.341495        0.017494
   52.441495        0.016764
   52.541495        0.017202
   52.641495        0.017289