  -45.788650        0.968583
  -45.688650        0.000000
  -45.588650        0.000000
  -45.488650        0.000000
  -45.388650        0.000000
  -45.288650        0.000000
  -45.188650        0.000000
  -45.088650        0.000000
  -44.988650        0.000000
  -44.888650        0.000000
  -44.788650        0.000000
  -44.688650        0.000000
  -44.588650        0.000000
  -44.488650        0.000000
  -44.388650        0.000000
  -44.288650        0.000000
  -44.188650        0.000000
  -44.088650        0.000000
  -43.988650        0.000000
  -43.888650        0.000000
  -43.788650        0.000000
  -43.688650        0.000000
  -43.588650        0.000000
  -43.488650        0.000000
  -43.388650        0.000000
  -43.288650        0.000000
  -43.188650        0.000000
  -43.088650        0.000000
  -42.988650        0.000000
  -42.888650        0.000000
  -42.788650        0.000000
  -42.688650        0.000000
  -42.588650        0.000000
  -42.488650        0.000000
  -42.388650        0.000000
  -42.288650        0.000000
  -42.188650        0.000000
  -42.088650        0.000000
  -41.988650        0.000000
  -41.888650        0.000000
  -41.788650        0.000000
  -41.688650        0.000000
  -41.588650        0.000000
  -41.488650        0.000000
  -41.388650        0.000000
  -41.288650        0.000000
  -41.188650        0.000000
  -41.088650        0.000000
  -40.988650        0.000000
  -40.888650        0.000000
  -40.788650        0.000000
  -40.688650        0.000000
  -40.588650        0.000000
  -40.488650        0.000000
  -40.388650        0.000000
  -40.288650        0.000000
  -40.188650        0.000000
  -40.088650        0.000000
  -39.988650        0.000000
  -39.888650        0.000000
  -39.788650        0.000000
  -39.688650        0.000000
  -39.588650        0.000000
  -39.488650        0.000000
  -39.388650        0.000000
  -39.288650        0.000000
  -39.188650        0.000000
  -39.088650        0.000000
  -38.988650        0.000000
  -38.888650        0.000000
  -38.788650        0.000000
  -38.688650        0.000000
  -38.588650        0.000000
  -38.488650        0.000000
  -38.388650        0.000000
  -38.288650        0.000000
  -38.188650        0.000000
  -38.088650        0.000000
  -37.988650        0.000000
  -37.888650        0.000000
  -37.788650        0.000000
  -37.688650        0.000000
  -37.588650        0.000000
  -37.488650        0.000000
  -37.388650        0.000000
  -37.288650        0.000000
  -37.188650        0.000000
  -37.088650        0.000000
  -36.988650        0.000000
  -36.888650        0.000000
  -36.788650        0.000000
  -36.688650        0.000000
  -36.588650        0.000000
  -36.488650        0.000000
  -36.388650        0.000000
  -36.288650        0.000000
  -36.188650        0.000000
  -36.088650        0.000000
  -35.988650        0.000000
  -35.888650        0.000000
  -35.788650        0.000000
  -35.688650        0.000000
  -35.588650        0.000000
  -35.488650        0.000000
  -35.388650        0.000000
  -35.288650        0.000000
  -35.188650        0.000000
  -35.088650        0.000000
  -34.988650        0.000000
  -34.888650        0.000000
  -34.788650        0.000000
  -34.688650        0.000000
  -34.588650        0.000000
  -34.488650        0.000000
  -34.388650        0.000000
  -34.288650        0.000000
  -34.188650        0.000000
  -34.088650        0.000000
  -33.988650        0.000000
  -33.888650        0.000000
  -33.788650        0.000000
  -33.688650        0.000000
  -33.588650        0.000000
  -33.488650        0.000000
  -33.388650        0.000000
  -33.288650        0.000000
  -33.188650        0.000000
  -33.088650        0.000000
  -32.988650        0.000000
  -32.888650        0.000000
  -32.788650        0.000000
  -32.688650        0.000000
  -32.588650        0.000000
  -32.488650        0.000000
  -32.388650        0.000000
  -32.288650        0.000000
  -32.188650        0.000000
  -32.088650        0.000000
  -31.988650        0.000000
  -31.888650        0.000000
  -31.788650        0.000000
  -31.688650        0.000000
  -31.588650        0.000000
  -31.488650        0.000000
  -31.388650        0.000000
  -31.288650        0.000000
  -31.188650        0.000000
  -31.088650        0.000000
  -30.988650        0.000000
  -30.888650        0.000000
  -30.788650        0.000000
  -30.688650        0.000000
  -30.588650        0.000000
  -30.488650        0.000000
  -30.388650        0.000000
  -30.288650        0.000000
  -30.188650        0.000000
  -30.088650        0.000000
  -29.988650        0.000000
  -29.888650        0.000000
  -29.788650        0.000000
  -29.688650        0.000000
  -29.588650        0.000000
  -29.488650        0.000000
  -29.388650        0.000000
  -29.288650        0.000000
  -29.188650        0.000000
  -29.088650        0.000000
  -28.988650        0.000000
  -28.888650        0.000000
  -28.788650        0.000000
  -28.688650        0.000000
  -28.588650        0.000000
  -28.488650        0.000000
  -28.388650        0.000000
  -28.288650        0.000000
  -28.188650        0.000000
  -28.088650        0.000000
  -27.988650        0.000000
  -27.888650        0.000000
  -27.788650        0.000000
  -27.688650        0.000000
  -27.588650        0.000000
  -27.488650        0.000000
  -27.388650        0.000000
  -27.288650        0.000000
  -27.188650        0.000000
  -27.088650        0.000000
  -26.988650        0.000000
  -26.888650        0.000000
  -26.788650        0.000000
  -26.688650        0.000000
  -26.588650        0.000000
  -26.488650        0.000000
  -26.388650        0.000000
  -26.288650        0.000000
  -26.188650        0.000000
  -26.088650        0.000000
  -25.988650        0.000143
  -25.888650        0.000033
  -25.788650        0.000089
  -25.688650        0.000172
  -25.588650        0.000269
  -25.488650        0.000397
  -25.388650        0.000536
  -25.288650        0.000605
  -25.188650        0.000989
  -25.088650        0.000779
  -24.988650        0.000953
  -24.888650        0.001181
  -24.788650        0.000896
  -24.688650        0.000998
  -24.588650        0.001166
  -24.488650        0.001319
  -24.388650        0.000956
  -24.288650        0.001040
  -24.188650        0.000810
  -24.088650        0.000766
  -23.988650        0.000477
  -23.888650        0.000623
  -23.788650        0.000369
  -23.688650        0.000443
  -23.588650        0.000221
  -23.488650        0.000118
  -23.388650        0.000207
  -23.288650        0.000087
  -23.188650        0.000075
  -23.088650        0.000047
  -22.988650        0.000050
  -22.888650        0.000006
  -22.788650        0.000092
  -22.688650        0.000171
  -22.588650        0.000426
  -22.488650        0.000315
  -22.388650        0.000363
  -22.288650        0.000327
  -22.188650        0.000592
  -22.088650        0.000806
  -21.988650        0.000880
  -21.888650        0.001053
  -21.788650        0.000936
  -21.688650        0.001255
  -21.588650        0.001034
  -21.488650        0.000749
  -21.388650        0.001009
  -21.288650        0.000845
  -21.188650        0.000413
  -21.088650        0.000670
  -20.988650        0.000361
  -20.888650        0.000403
  -20.788650        0.000337
  -20.688650        0.000470
  -20.588650        0.000198
  -20.488650        0.000304
  -20.388650        0.000113
  -20.288650        0.000078
  -20.188650        0.000069
  -20.088650        0.000019
  -19.988650        0.000026
  -19.888650        0.000003
  -19.788650        0.000043
  -19.688650        0.000001
  -19.588650        0.000001
  -19.488650        0.000000
  -19.388650        0.000001
  -19.288650        0.000000
  -19.188650        0.000001
  -19.088650        0.000000
  -18.988650        0.000000
  -18.888650        0.000000
  -18.788650        0.000000
  -18.688650        0.000000
  -18.588650        0.000000
  -18.488650        0.000000
  -18.388650        0.000000
  -18.288650        0.000000
  -18.188650        0.000000
  -18.088650        0.000000
  -17.988650        0.000000
  -17.888650        0.000000
  -17.788650        0.000000
  -17.688650        0.000000
  -17.588650        0.000000
  -17.488650        0.000000
  -17.388650        0.000000
  -17.288650        0.000000
  -17.188650        0.000000
  -17.088650        0.000000
  -16.988650        0.000000
  -16.888650        0.000000
  -16.788650        0.000000
  -16.688650        0.000000
  -16.588650        0.000000
  -16.488650        0.000000
  -16.388650        0.000000
  -16.288650        0.000000
  -16.188650        0.000000
  -16.088650        0.000000
  -15.988650        0.000000
  -15.888650        0.000009
  -15.788650        0.000002
  -15.688650        0.000011
  -15.588650        0.000042
  -15.488650        0.000014
  -15.388650        0.000079
  -15.288650        0.000083
  -15.188650        0.000180
  -15.088650        0.000147
  -14.988650        0.000157
  -14.888650        0.000230
  -14.788650        0.000314
  -14.688650        0.000353
  -14.588650        0.000250
  -14.488650        0.000294
  -14.388650        0.000348
  -14.288650        0.000293
  -14.188650        0.000265
  -14.088650        0.000225
  -13.988650        0.000143
  -13.888650        0.000167
  -13.788650        0.000151
  -13.688650        0.000132
  -13.588650        0.000062
  -13.488650        0.000039
  -13.388650        0.000041
  -13.288650        0.000045
  -13.188650        0.000014
  -13.088650        0.000023
  -12.988650        0.000019
  -12.888650        0.000017
  -12.788650        0.000023
  -12.688650        0.000061
  -12.588650        0.000046
  -12.488650        0.000068
  -12.388650        0.000094
  -12.288650        0.000166
  -12.188650        0.000139
  -12.088650        0.000143
  -11.988650        0.000183
  -11.888650        0.000184
  -11.788650        0.000191
  -11.688650        0.000112
  -11.588650        0.000093
  -11.488650        0.000108
  -11.388650        0.000071
  -11.288650        0.000039
  -11.188650        0.000063
  -11.088650        0.000042
  -10.988650        0.000042
  -10.888650        0.000044
  -10.788650        0.000068
  -10.688650        0.000092
  -10.588650        0.000121
  -10.488650        0.000112
  -10.388650        0.000181
  -10.288650        0.000184
  -10.188650        0.000230
  -10.088650        0.000341
   -9.988650        0.000359
   -9.888650        0.000369
   -9.788650        0.000384
   -9.688650        0.000412
   -9.588650        0.000495
   -9.488650        0.000400
   -9.388650        0.000422
   -9.288650        0.000582
   -9.188650        0.000441
   -9.088650        0.000367
   -8.988650        0.000313
   -8.888650        0.000272
   -8.788650        0.000202
   -8.688650        0.000130
   -8.588650        0.000076
   -8.488650        0.000060
   -8.388650        0.000065
   -8.288650        0.000092
   -8.188650        0.000085
   -8.088650        0.000138
   -7.988650        0.000196
   -7.888650        0.000369
   -7.788650        0.000725
   -7.688650        0.000708
   -7.588650        0.000980
   -7.488650        0.001191
   -7.388650        0.001497
   -7.288650        0.001592
   -7.188650        0.001414
   -7.088650        0.001977
   -6.988650        0.001509
   -6.888650        0.001438
   -6.788650        0.001387
   -6.688650        0.001255
   -6.588650        0.001275
   -6.488650        0.001328
   -6.388650        0.001291
   -6.288650        0.000974
   -6.188650        0.000979
   -6.088650        0.001121
   -5.988650        0.001448
   -5.888650        0.001511
   -5.788650        0.001429
   -5.688650        0.001225
   -5.588650        0.001342
   -5.488650        0.001577
   -5.388650        0.001066
   -5.288650        0.000899
   -5.188650        0.001041
   -5.088650        0.001078
   -4.988650        0.000741
   -4.888650        0.000608
   -4.788650        0.000609
   -4.688650        0.000564
   -4.588650        0.000501
   -4.488650        0.000503
   -4.388650        0.000335
   -4.288650        0.000360
   -4.188650        0.000350
   -4.088650        0.000324
   -3.988650        0.000313
   -3.888650        0.000288
   -3.788650        0.000296
   -3.688650        0.000270
   -3.588650        0.000248
   -3.488650        0.000244
   -3.388650        0.000292
   -3.288650        0.000267
   -3.188650        0.000265
   -3.088650        0.000291
   -2.988650        0.000275
   -2.888650        0.000309
   -2.788650        0.000317
   -2.688650        0.000348
   -2.588650        0.000293
   -2.488650        0.000342
   -2.388650        0.000471
   -2.288650        0.000437
   -2.188650        0.000627
   -2.088650        0.000543
   -1.988650        0.000678
   -1.888650        0.000693
   -1.788650        0.000726
   -1.688650        0.000657
   -1.588650        0.000610
   -1.488650        0.000620
   -1.388650        0.000656
   -1.288650        0.000595
   -1.188650        0.000480
   -1.088650        0.000506
   -0.988650        0.000386
   -0.888650        0.000407
   -0.788650        0.000275
   -0.688650        0.000248
   -0.588650        0.000155
   -0.488650        0.000151
   -0.388650        0.000130
   -0.288650        0.000108
   -0.188650        0.000061
   -0.088650        0.000040
    0.011350        0.000059
    0.111350        0.000039
    0.211350        0.000023
    0.311350        0.000020
    0.411350        0.000007
    0.511350        0.000006
    0.611350        0.000001
    0.711350        0.000000
    0.811350        0.000001
    0.911350        0.000001
    1.011350        0.000000
    1.111350        0.000000
    1.211350        0.000000
    1.311350        0.000000
    1.411350        0.000000
    1.511350        0.000000
    1.611350        0.000000
    1.711350        0.000000
    1.811350        0.000000
    1.911350        0.000000
    2.011350        0.000000
    2.111350        0.000000
    2.211350        0.000000
    2.311350        0.000000
    2.411350        0.000000
    2.511350        0.000000
    2.611350        0.000000
    2.711350        0.000000
    2.811350        0.000000
    2.911350        0.000000
    3.011350        0.000000
    3.111350        0.000000
    3.211350        0.000000
    3.311350        0.000000
    3.411350        0.000000
    3.511350        0.000000
    3.611350        0.000000
    3.711350        0.000000
    3.811350        0.000000
    3.911350        0.000000
    4.011350        0.000000
    4.111350        0.000000
    4.211350        0.000000
    4.311350        0.000000
    4.411350        0.000000
    4.511350        0.000000
    4.611350        0.000000
    4.711350        0.000000
    4.811350        0.000000
    4.911350        0.000000
    5.011350        0.000000
    5.111350        0.000000
    5.211350        0.000000
    5.311350        0.000000
    5.411350        0.000074
    5.511350        0.000000
    5.611350        0.000000
    5.711350        0.000143
    5.811350        0.000365
    5.911350        0.000480
    6.011350        0.001015
    6.111350        0.001107
    6.211350        0.001059
    6.311350        0.001460
    6.411350        0.002370
    6.511350        0.002603
    6.611350        0.005198
    6.711350        0.004506
    6.811350        0.004893
    6.911350        0.008080
    7.011350        0.006619
    7.111350        0.009457
    7.211350        0.009556
    7.311350        0.012152
    7.411350        0.015973
    7.511350        0.010046
    7.611350        0.011951
    7.711350        0.012962
    7.811350        0.011368
    7.911350        0.010073
    8.011350        0.011532
    8.111350        0.012938
    8.211350        0.010602
    8.311350        0.010490
    8.411350        0.013289
    8.511350        0.010691
    8.611350        0.008915
    8.711350        0.009941
    8.811350        0.011340
    8.911350        0.009765
    9.011350        0.010881
    9.111350        0.009188
    9.211350        0.009994
    9.311350        0.006427
    9.411350        0.005821
    9.511350        0.004755
    9.611350        0.004411
    9.711350        0.005733
    9.811350        0.004240
    9.911350        0.004019
   10.011350        0.005141
   10.111350        0.005166
   10.211350        0.004197
   10.311350        0.004902
   10.411350        0.004607
   10.511350        0.004612
   10.611350        0.004393
   10.711350        0.004790
   10.811350        0.004700
   10.911350        0.004474
   11.011350        0.005182
   11.111350        0.004797
   11.211350        0.004803
   11.311350        0.005544
   11.411350        0.005712
   11.511350        0.005173
   11.611350        0.005483
   11.711350        0.005283
   11.811350        0.005787
   11.911350        0.005478
   12.011350        0.005546
   12.111350        0.005594
   12.211350        0.005772
   12.311350        0.005545
   12.411350        0.006104
   12.511350        0.006558
   12.611350        0.006240
   12.711350        0.006893
   12.811350        0.006398
   12.911350        0.006091
   13.011350        0.007665
   13.111350        0.007361
   13.211350        0.008192
   13.311350        0.008101
   13.411350        0.008472
   13.511350        0.009014
   13.611350        0.008055
   13.711350        0.008304
   13.811350        0.007991
   13.911350        0.008297
   14.011350        0.007715
   14.111350        0.008296
   14.211350        0.008450
   14.311350        0.008083
   14.411350        0.009088
   14.511350        0.007469
   14.611350        0.007923
   14.711350        0.008344
   14.811350        0.008430
   14.911350        0.007974
   15.011350        0.008552
   15.111350        0.006446
   15.211350        0.006653
   15.311350        0.006992
   15.411350        0.006927
   15.511350        0.006641
   15.611350        0.006301
   15.711350        0.006222
   15.811350        0.006581
   15.911350        0.006199
   16.011350        0.005922
   16.111350        0.004970
   16.211350        0.005838
   16.311350        0.005458
   16.411350        0.005224
   16.511350        0.005081
   16.611350        0.004983
   16.711350        0.004126
   16.811350        0.005047
   16.911350        0.004596
   17.011350        0.005144
   17.111350        0.004550
   17.211350        0.004436
   17.311350        0.004036
   17.411350        0.004259
   17.511350        0.004436
   17.611350        0.004326
   17.711350        0.004337
   17.811350        0.004203
   17.911350        0.004146
   18.011350        0.003786
   18.111350        0.003814
   18.211350        0.003368
   18.311350        0.003850
   18.411350        0.003595
   18.511350        0.003580
   18.611350        0.003247
   18.711350        0.003801
   18.811350        0.003501
   18.911350        0.003423
   19.011350        0.003647
   19.111350        0.003381
   19.211350        0.003229
   19.311350        0.003149
   19.411350        0.003265
   19.511350        0.003309
   19.611350        0.003345
   19.711350        0.002874
   19.811350        0.003124
   19.911350        0.003070
   20.011350        0.003542
   20.111350        0.003031
   20.211350        0.003022
   20.311350        0.003226
   20.411350        0.002979
   20.511350        0.002628
   20.611350        0.002970
   20.711350        0.002642
   20.811350        0.002810
   20.911350        0.002810
   21.011350        0.002748
   21.111350        0.002340
   21.211350        0.002794
   21.311350        0.002518
   21.411350        0.002369
   21.511350        0.002522
   21.611350        0.002450
   21.711350        0.002158
   21.811350        0.002087
   21.911350        0.002112
   22.011350        0.002098
   22.111350        0.002132
   22.211350        0.002179
   22.311350        0.001912
   22.411350        0.002050
   22.511350        0.001984
   22.611350        0.001735
   22.711350        0.001896
   22.811350        0.002011
   22.911350        0.001659
   23.011350        0.001663
   23.111350        0.001717
   23.211350        0.001909
   23.311350        0.001591
   23.411350        0.001494
   23.511350        0.001539
   23.611350        0.001530
   23.711350        0.001310
   23.811350        0.001557
   23.911350        0.001500
   24.011350        0.001500
   24.111350        0.001535
   24.211350        0.001331
   24.311350        0.001496
   24.411350        0.001339
   24.511350        0.001456
   24.611350        0.001323
   24.711350        0.001452
   24.811350        0.001452
   24.911350        0.001351
   25.011350        0.001242
   25.111350        0.001372
   25.211350        0.001196
   25.311350        0.001349
   25.411350        0.001247
   25.511350        0.001177
   25.611350        0.001470
   25.711350        0.001214
   25.811350        0.001114
   25.911350        0.001383
   26.011350        0.001253
   26.111350        0.001430
   26.211350        0.001186
   26.311350        0.001231
   26.411350        0.001264
   26.511350        0.001089
   26.611350        0.001261
   26.711350        0.001195
   26.811350        0.001097
   26.911350        0.001227
   27.011350        0.001136
   27.111350        0.001150
   27.211350        0.001322
   27.311350        0.001120
   27.411350        0.001172
   27.511350        0.001197
   27.611350        0.001133
   27.711350        0.001238
   27.811350        0.001148
   27.911350        0.001047
   28.011350        0.001179
   28.111350        0.001195
   28.211350        0.001160
   28.311350        0.001213
   28.411350        0.001073
   28.511350        0.001149
   28.611350        0.001143
   28.711350        0.001186
   28.811350        0.001190
   28.911350        0.001080
   29.011350        0.001200
   29.111350        0.001209
   29.211350        0.001188
   29.311350        0.001202
   29.411350        0.001276
   29.511350        0.001109
   29.611350        0.001174
   29.711350        0.001167
   29.811350        0.001138
   29.911350        0.001154
   30.011350        0.001103
   30.111350        0.001246
   30.211350        0.001204
   30.311350        0.001117
   30.411350        0.001318
   30.511350        0.001269
   30.611350        0.001284
   30.711350        0.001127
   30.811350        0.001055
   30.911350        0.001183
   31.011350        0.000991
   31.111350        0.001091
   31.211350        0.001089
   31.311350        0.001088
   31.411350        0.001167
   31.511350        0.001199
   31.611350        0.001011
   31.711350        0.000956
   31.811350        0.000986
   31.911350        0.000990
   32.011350        0.001000
   32.111350        0.001004
   32.211350        0.001028
   32.311350        0.001045
   32.411350        0.001026
   32.511350        0.000980
   32.611350        0.000939
   32.711350        0.000981
   32.811350        0.000937
   32.911350        0.000957
   33.011350        0.000981
   33.111350        0.000987
   33.211350        0.000950
   33.311350        0.001024
   33.411350        0.000958
   33.511350        0.000904
   33.611350        0.000914
   33.711350        0.000943
   33.811350        0.000894
   33.911350        0.000792
   34.011350        0.000887
   34.111350        0.000855
   34.211350        0.000884
   34.311350        0.000872
   34.411350        0.000886
   34.511350        0.000786
   34.611350        0.000860
   34.711350        0.000856
   34.811350        0.000757
   34.911350        0.000855
   35.011350        0.000856
   35.111350        0.000814
   35.211350        0.000874
   35.311350        0.000839
   35.411350        0.000817
   35.511350        0.000736
   35.611350        0.000795
   35.711350        0.000836
   35.811350        0.000772
   35.911350        0.000862
   36.011350        0.000844
   36.111350        0.000812
   36.211350        0.000798
   36.311350        0.000973
   36.411350        0.000754
   36.511350        0.000963
   36.611350        0.000916
   36.711350        0.000832
   36.811350        0.000818
   36.911350        0.000985
   37.011350        0.000896
   37.111350        0.000916
   37.211350        0.000926
   37.311350        0.000930
   37.411350        0.000849
   37.511350        0.001017
   37.611350        0.000849
   37.711350        0.000980
   37.811350        0.001038
   37.911350        0.000962
   38.011350        0.000923
   38.111350        0.000964
   38.211350        0.000923
   38.311350        0.000971
   38.411350        0.001049
   38.511350        0.000974
   38.611350        0.000997
   38.711350        0.000861
   38.811350        0.001060
   38.911350        0.000974
   39.011350        0.001184
   39.111350        0.000934
   39.211350        0.001119
   39.311350        0.001117
   39.411350        0.001096
   39.511350        0.001057
   39.611350        0.001062
   39.711350        0.001186
   39.811350        0.001125
   39.911350        0.001090
   40.011350        0.001197
   40.111350        0.001056
   40.211350        0.001190
   40.311350        0.001140
   40.411350        0.001291
   40.511350        0.001119
   40.611350        0.001249
   40.711350        0.001180
   40.811350        0.001245
   40.911350        0.001300
   41.011350        0.001186
   41.111350        0.001163
   41.211350        0.001113
   41.311350        0.001024
   41.411350        0.001070
   41.511350        0.001033
   41.611350        0.001086
   41.711350        0.001073
   41.811350        0.000982
   41.911350        0.001226
   42.011350        0.001065
   42.111350        0.001085
   42.211350        0.001086
   42.311350        0.001043
   42.411350        0.000958
   42.511350        0.001051
   42.611350        0.001065
   42.711350        0.001033
   42.811350        0.001095
   42.911350        0.000920
   43.011350        0.001000
   43.111350        0.001021
   43.211350        0.001044
   43.311350        0.001018
   43.411350        0.000917
   43.511350        0.001158
   43.611350        0.001124
   43.711350        0.000965
   43.811350        0.001046
   43.911350        0.001091
   44.011350        0.001141
   44.111350        0.001069
   44.211350        0.001089
   44.311350        0.000988
   44.411350        0.001049
   44.511350        0.000882
   44.611350        0.001021
   44.711350        0.001007
   44.811350        0.001030
   44.911350        0.001072
   45.011350        0.001100
   45.111350        0.001080
   45.211350        0.001038
   45.311350        0.001080
   45.411350        0.001036
   45.511350        0.001204
   45.611350        0.001051
   45.711350        0.001119
   45.811350        0.001035
   45.911350        0.001151
   46.011350        0.001149
   46.111350        0.001109
   46.211350        0.001120
   46.311350        0.001178
   46.411350        0.001095
   46.511350        0.001008
   46.611350        0.001127
   46.711350        0.001059
   46.811350        0.001158
   46.911350        0.001034
   47.011350        0.001003
   47.111350        0.001221
   47.211350        0.000965
   47.311350        0.001161
   47.411350        0.001178
   47.511350        0.001089
   47.611350        0.001032
   47.711350        0.001057
   47.811350        0.001317
   47.911350        0.001217
   48.011350        0.001112
   48.111350        0.001198
   48.211350        0.001169
   48.311350        0.001217
   48.411350        0.001123
   48.511350        0.001209
   48.611350        0.001225
   48.711350        0.001191
   48.811350        0.001201
   48.911350        0.001173
   49.011350        0.001089
   49.111350        0.001261
   49.211350        0.001350
   49.311350        0.001269
   49.411350        0.001161
   49.511350        0.001315
   49.611350        0.001432
   49.711350        0.001254
   49.811350        0.001157
   49.911350        0.001254
   50.011350        0.001191
   50.111350        0.001348
   50.211350        0.001166
   50.311350        0.001335
   50.411350        0.001445
   50.511350        0.001182
   50.611350        0.001249
   50.711350        0.001292
   50.811350        0.001254
   50.911350        0.001267
   51.011350        0.001127
   51.111350        0.001231
   51.211350        0.001263
   51.311350        0.001353
   51.411350        0.001270
   51.511350        0.001267
   51.611350        0.001250
   51.711350        0.001287
   51.811350        0.001285
   51.911350        0.001208
   52.011350        0.001262
   52.111350        0.001337
   52.211350        0.001270
   52.311350        0.001253
   52.411350        0.001339
   52.511350        0.001168
   52.611350        0.001259
   52.711350        0.001232
   52.811350        0.001317
   52.911350        0.001256
   53.011350        0.001321
   53.111350        0.001343
   53.211350        0.001404
   53.311350        0.001406
   53.411350        0.001334
   53.511350        0.001255
   53.611350        0.001298
   53.711350        0.001478
   53.811350        0.001309
   53.911350        0.001331
   54.011350        0.001370
   54.111350        0.001510