-46.3971 0.025182
-46.2971 0.0034400000000000003
-46.1971 0.0027660000000000002
-46.0971 0.003128
-45.9971 0.001907
-45.8971 0.001521
-45.7971 0.00026799999999999995
-45.6971 0.001108
-45.5971 0.002633
-45.4971 0.0013459999999999998
-45.3971 0.0016330000000000001
-45.2971 0.001224
-45.1971 0.000769
-45.0971 0.000279
-44.9971 0.0
-44.8971 0.000317
-44.7971 0.0
-44.6971 0.0
-44.5971 0.0
-44.4971 0.0
-44.3971 0.0
-44.2971 0.0
-44.1971 0.0
-44.0971 0.0
-43.9971 0.0
-43.8971 0.0
-43.7971 0.0
-43.6971 0.0
-43.5971 0.0
-43.4971 0.0
-43.3971 0.0
-43.2971 0.0
-43.1971 0.0
-43.0971 0.0
-42.9971 0.0
-42.8971 0.0
-42.7971 0.0
-42.6971 0.0
-42.5971 0.0
-42.4971 0.0
-42.3971 0.0
-42.2971 0.0
-42.1971 0.0
-42.0971 0.0
-41.9971 0.0
-41.8971 0.0
-41.7971 0.0
-41.6971 0.0
-41.5971 0.0
-41.4971 0.0
-41.3971 0.0
-41.2971 0.0
-41.1971 0.0
-41.0971 0.0
-40.9971 0.0
-40.8971 0.0
-40.7971 0.0
-40.6971 0.0
-40.5971 0.0
-40.4971 0.0
-40.3971 0.0
-40.2971 0.0
-40.1971 0.0
-40.0971 0.0
-39.9971 0.0
-39.8971 0.0
-39.7971 0.0
-39.6971 0.0
-39.5971 0.0
-39.4971 0.0
-39.3971 0.0
-39.2971 0.0
-39.1971 0.0
-39.0971 0.0
-38.9971 0.0
-38.8971 0.0
-38.7971 0.0
-38.6971 0.0
-38.5971 0.0
-38.4971 0.0
-38.3971 0.0
-38.2971 0.0
-38.1971 0.0
-38.0971 0.0
-37.9971 0.0
-37.8971 0.0
-37.7971 0.0
-37.6971 0.0
-37.5971 0.0
-37.4971 0.0
-37.3971 0.0
-37.2971 0.0
-37.1971 0.0
-37.0971 0.0
-36.9971 0.0
-36.8971 0.0
-36.7971 0.0
-36.6971 0.0
-36.5971 0.0
-36.4971 0.0
-36.3971 0.0
-36.2971 0.0
-36.1971 0.0
-36.0971 0.0
-35.9971 0.0
-35.8971 0.0
-35.7971 0.0
-35.6971 0.0
-35.5971 0.0
-35.4971 0.0
-35.3971 0.0
-35.2971 0.0
-35.1971 0.0
-35.0971 0.0
-34.9971 0.0
-34.8971 0.0
-34.7971 0.0
-34.6971 0.0
-34.5971 0.0
-34.4971 0.0
-34.3971 0.0
-34.2971 0.0
-34.1971 0.0
-34.0971 0.0
-33.9971 0.0
-33.8971 0.0
-33.7971 0.0
-33.6971 0.0
-33.5971 0.0
-33.4971 0.0
-33.3971 0.0
-33.2971 0.0
-33.1971 0.0
-33.0971 0.0
-32.9971 0.0
-32.8971 0.0
-32.7971 0.0
-32.6971 0.0
-32.5971 0.0
-32.4971 0.0
-32.3971 0.0
-32.2971 0.0
-32.1971 0.0
-32.0971 0.0
-31.9971 0.0
-31.8971 0.0
-31.7971 0.0
-31.6971 0.0
-31.5971 0.0
-31.4971 0.0
-31.3971 0.0
-31.2971 0.0
-31.1971 0.0
-31.0971 0.0
-30.9971 0.0
-30.8971 1.1e-05
-30.7971 3.2e-05
-30.6971 0.0
-30.5971 2.4999999999999998e-05
-30.4971 0.0
-30.3971 6.4e-05
-30.2971 0.000132
-30.1971 0.000212
-30.0971 8.400000000000001e-05
-29.9971 0.000194
-29.8971 0.000296
-29.7971 0.00020700000000000002
-29.6971 0.000397
-29.5971 0.000407
-29.4971 0.000656
-29.3971 0.000322
-29.2971 0.000606
-29.1971 0.000398
-29.0971 0.000139
-28.9971 0.00020400000000000003
-28.8971 0.000303
-28.7971 0.000147
-28.6971 0.00017299999999999998
-28.5971 0.00010899999999999999
-28.4971 0.000144
-28.3971 5.3e-05
-28.2971 0.00015900000000000002
-28.1971 0.000143
-28.0971 0.000156
-27.9971 7.599999999999999e-05
-27.8971 0.00018199999999999998
-27.7971 0.000254
-27.6971 0.000173
-27.5971 0.000224
-27.4971 0.00038300000000000004
-27.3971 0.000278
-27.2971 0.000298
-27.1971 0.000324
-27.0971 0.000381
-26.9971 0.000361
-26.8971 0.000294
-26.7971 0.009112
-26.6971 0.000214
-26.5971 0.000387
-26.4971 0.008973
-26.3971 0.009051
-26.2971 0.017921
-26.1971 0.008982
-26.0971 0.044539999999999996
-25.9971 0.062185000000000004
-25.8971 0.097614
-25.7971 0.16877899999999998
-25.6971 0.21362700000000004
-25.5971 0.222434
-25.4971 0.382389
-25.3971 0.5783469999999999
-25.2971 0.578243
-25.1971 0.8369949999999999
-25.0971 1.122635
-24.9971 1.239527
-24.8971 1.231043
-24.7971 1.445767
-24.6971 1.7231480000000001
-24.5971 1.616403
-24.4971 1.724488
-24.3971 1.698412
-24.2971 1.484096
-24.1971 1.6631850000000001
-24.0971 1.323491
-23.9971 1.172188
-23.8971 1.1994500000000001
-23.7971 1.020723
-23.6971 0.8865540000000001
-23.5971 0.48406000000000005
-23.4971 0.457114
-23.3971 0.323494
-23.2971 0.30474100000000004
-23.1971 0.250473
-23.0971 0.233524
-22.9971 0.196389
-22.8971 0.232315
-22.7971 0.28654300000000005
-22.6971 0.39067700000000005
-22.5971 0.48164399999999996
-22.4971 0.693024
-22.3971 0.888242
-22.2971 1.1611879999999999
-22.1971 1.5915419999999998
-22.0971 1.7888340000000003
-21.9971 1.897405
-21.8971 2.444683
-21.7971 2.5729919999999997
-21.6971 2.735947
-21.5971 3.2493100000000004
-21.4971 3.3053570000000003
-21.3971 3.140412
-21.2971 3.062043
-21.1971 2.974606
-21.0971 3.060813
-20.9971 2.594741
-20.8971 2.367442
-20.7971 2.088784
-20.6971 1.6694759999999997
-20.5971 1.454602
-20.4971 1.225574
-20.3971 1.1341620000000001
-20.2971 0.9057689999999999
-20.1971 0.646733
-20.0971 0.41802
-19.9971 0.30254
-19.8971 0.20250300000000002
-19.7971 0.154164
-19.6971 0.07361499999999999
-19.5971 0.081952
-19.4971 0.027902999999999997
-19.3971 0.008493
-19.2971 0.009382
-19.1971 0.009355
-19.0971 8e-06
-18.9971 3.5e-05
-18.8971 7.000000000000001e-05
-18.7971 0.0
-18.6971 2.1e-05
-18.5971 6e-06
-18.4971 2.1000000000000002e-05
-18.3971 7.8e-05
-18.2971 0.0
-18.1971 1.5e-05
-18.0971 8.099999999999999e-05
-17.9971 5.7e-05
-17.8971 1.9e-05
-17.7971 5.8e-05
-17.6971 7.900000000000001e-05
-17.5971 5.1e-05
-17.4971 0.00010400000000000001
-17.3971 0.000141
-17.2971 5.9999999999999995e-05
-17.1971 0.00019099999999999998
-17.0971 4.600000000000001e-05
-16.9971 3.6e-05
-16.8971 0.0
-16.7971 2.1e-05
-16.6971 0.00010899999999999999
-16.5971 3.0000000000000004e-05
-16.4971 1.2e-05
-16.3971 0.008042
-16.2971 0.016091
-16.1971 0.008126
-16.0971 0.024128
-15.9971 0.047969000000000005
-15.8971 0.10381699999999999
-15.7971 0.088025
-15.6971 0.232729
-15.5971 0.336751
-15.4971 0.44958699999999996
-15.3971 0.641201
-15.2971 0.8885699999999999
-15.1971 0.921331
-15.0971 1.324735
-14.9971 1.49058
-14.8971 1.5080390000000001
-14.7971 1.6673209999999998
-14.6971 1.715687
-14.5971 1.85836
-14.4971 1.676405
-14.3971 1.5806529999999999
-14.2971 1.443464
-14.1971 1.184101
-14.0971 0.9678729999999999
-13.9971 0.779098
-13.8971 0.617834
-13.7971 0.6003780000000001
-13.6971 0.39606399999999997
-13.5971 0.209511
-13.4971 0.244265
-13.3971 0.14764
-13.2971 0.20809999999999998
-13.1971 0.27739600000000003
-13.0971 0.27725099999999997
-12.9971 0.415543
-12.8971 0.7041810000000001
-12.7971 0.852892
-12.6971 1.079931
-12.5971 1.412922
-12.4971 1.75977
-12.3971 1.741806
-12.2971 1.9900559999999998
-12.1971 2.0316170000000002
-12.0971 1.6843249999999999
-11.9971 1.657139
-11.8971 1.602483
-11.7971 1.579209
-11.6971 1.207567
-11.5971 1.100744
-11.4971 0.9615330000000001
-11.3971 0.7069000000000001
-11.2971 0.706701
-11.1971 0.70095
-11.0971 0.519719
-10.9971 0.756473
-10.8971 0.690321
-10.7971 0.978751
-10.6971 1.216005
-10.5971 1.5003529999999998
-10.4971 1.671602
-10.3971 1.9405709999999998
-10.2971 2.23502
-10.1971 2.144575
-10.0971 2.309648
-9.99713 2.484865
-9.89713 2.5216849999999997
-9.79713 2.802712
-9.69713 2.6907799999999997
-9.59713 3.027182
-9.49713 2.931739
-9.39713 2.7299039999999994
-9.29713 2.743271
-9.19713 2.566801
-9.09713 2.3257619999999997
-8.99713 2.0968660000000003
-8.89713 1.6859899999999999
-8.79713 1.562946
-8.69713 1.220157
-8.59713 1.203123
-8.49713 0.9848260000000001
-8.39713 0.758238
-8.29713 0.626075
-8.19713 0.8547130000000001
-8.09713 0.729923
-7.99713 0.939858
-7.89713 1.2744329999999997
-7.79713 1.355425
-7.69713 1.752708
-7.59713 2.0740439999999998
-7.49713 2.501877
-7.39713 3.097131
-7.29713 2.994554
-7.19713 3.194499
-7.09713 3.4313399999999996
-6.99713 3.707805
-6.89713 3.901383
-6.79713 3.776827
-6.69713 4.050532
-6.59713 4.330353
-6.49713 3.9469740000000004
-6.39713 4.2534659999999995
-6.29713 3.981031
-6.19713 4.021031000000001
-6.09713 3.6807939999999997
-5.99713 3.749374
-5.89713 3.464818
-5.79713 3.4560139999999997
-5.69713 3.667731
-5.59713 3.832186
-5.49713 3.6162210000000004
-5.39713 4.045014
-5.29713 4.189325
-5.19713 4.332759
-5.09713 4.564954
-4.99713 4.754897999999999
-4.89713 5.092419
-4.79713 5.015761
-4.69713 5.225333999999999
-4.59713 5.214081999999999
-4.49713 5.328554
-4.39713 5.247149
-4.29713 5.406547
-4.19713 5.289522
-4.09713 5.502046
-3.99713 5.180567
-3.89713 5.42799
-3.79713 5.216565999999999
-3.69713 5.101111
-3.59713 5.35888
-3.49713 5.404216
-3.39713 5.644916
-3.29713 5.363193999999999
-3.19713 5.308905
-3.09713 5.333873
-2.99713 5.2372309999999995
-2.89713 5.0359490000000005
-2.79713 4.866086
-2.69713 4.971648999999999
-2.59713 4.730779
-2.49713 4.766267
-2.39713 4.623562
-2.29713 4.287737
-2.19713 3.9774130000000003
-2.09713 4.149312
-1.99713 4.147051
-1.89713 4.449604
-1.79713 4.597283
-1.69713 4.947976
-1.59713 5.134042999999999
-1.49713 5.140593
-1.39713 5.551444
-1.29713 5.448162
-1.19713 5.673177000000001
-1.09713 5.71632
-0.997128 5.264055
-0.897128 5.003933
-0.797128 4.5664560000000005
-0.697128 4.034818
-0.597128 3.5290350000000004
-0.497128 2.936876
-0.397128 2.625513
-0.297128 1.9006129999999999
-0.197128 1.643611
-0.097128 1.205349
0.002872 0.948183
0.102872 0.739685
0.202872 0.45660899999999993
0.302872 0.202449
0.402872 0.161931
0.502872 0.099917
0.602872 0.06324300000000001
0.702872 0.028545
0.802872 0.00016900000000000002
0.902872 0.004574
1.00287 0.005273
1.10287 0.019714
1.20287 0.0
1.30287 0.0
1.40287 0.0
1.50287 0.0
1.60287 0.0
1.70287 0.0
1.80287 0.0
1.90287 0.0
2.00287 0.0
2.10287 0.0
2.20287 0.0
2.30287 0.0
2.40287 0.0
2.50287 0.0
2.60287 0.0
2.70287 0.0
2.80287 0.0
2.90287 0.0
3.00287 0.0
3.10287 0.0
3.20287 0.0
3.30287 0.0
3.40287 0.0
3.50287 0.0
3.60287 0.0
3.70287 0.0
3.80287 0.0
3.90287 0.0
4.00287 0.0
4.10287 0.0
4.20287 4.5e-05
4.30287 0.0
4.40287 0.0
4.50287 0.0
4.60287 0.0
4.70287 3.3e-05
4.80287 4.4999999999999996e-05
4.90287 0.00013499999999999997
5.00287 0.000117
5.10287 0.000349
5.20287 0.000672
5.30287 0.000148
5.40287 0.026626
5.50287 0.033971
5.60287 0.083785
5.70287 0.057422999999999995
5.80287 0.051373
5.90287 0.106959
6.00287 0.235509
6.10287 0.25156
6.20287 0.457114
6.30287 0.635919
6.40287 0.68397
6.50287 0.9349149999999999
6.60287 1.1049529999999999
6.70287 1.40203
6.80287 1.589391
6.90287 1.6294570000000002
7.00287 1.814543
7.10287 2.022986
7.20287 2.0611690000000005
7.30287 2.19977
7.40287 1.9298250000000001
7.50287 2.127598
7.60287 1.9219080000000002
7.70287 1.8781530000000002
7.80287 1.732672
7.90287 1.697288
8.00287 1.760218
8.10287 1.5860359999999998
8.20287 1.378964
8.30287 1.4134620000000002
8.40287 1.299525
8.50287 1.221414
8.60287 1.202963
8.70287 1.129081
8.80287 1.018395
8.90287 1.018913
9.00287 0.9943360000000001
9.10287 0.990174
9.20287 1.143609
9.30287 1.166872
9.40287 1.2397909999999999
9.50287 1.351072
9.60287 1.3331400000000002
9.70287 1.471986
9.80287 1.585435
9.90287 1.6254840000000002
10.0029 1.68403
10.1029 1.792347
10.2029 1.8657409999999999
10.3029 1.921861
10.4029 1.9888029999999999
10.5029 1.986947
10.6029 1.9957670000000003
10.7029 2.072023
10.8029 2.010145
10.9029 2.034262
11.0029 2.129328
11.1029 2.125331
11.2029 2.148265
11.3029 2.1423900000000002
11.4029 2.159778
11.5029 2.276449
11.6029 2.139412
11.7029 2.231866
11.8029 2.217325
11.9029 2.264738
12.0029 2.335059
12.1029 2.253374
12.2029 2.297397
12.3029 2.315913
12.4029 2.3043270000000002
12.5029 2.296052
12.6029 2.360892
12.7029 2.307324
12.8029 2.241514
12.9029 2.2177759999999997
13.0029 2.327596
13.1029 2.199539
13.2029 2.2390950000000003
13.3029 2.223758
13.4029 2.10648
13.5029 2.191033
13.6029 2.044109
13.7029 2.1502030000000003
13.8029 2.057078
13.9029 2.080198
14.0029 2.0814389999999996
14.1029 2.0141440000000004
14.2029 2.017356
14.3029 2.084174
14.4029 2.05657
14.5029 2.07181
14.6029 1.95932
14.7029 2.011046
14.8029 2.0159249999999997
14.9029 2.016268
15.0029 1.990975
15.1029 2.04847
15.2029 2.02855
15.3029 2.049588
15.4029 2.046442
15.5029 2.0664949999999997
15.6029 2.082367
15.7029 2.0554650000000003
15.8029 2.206375
15.9029 2.140871
16.0029 2.248666
16.1029 2.204014
16.2029 2.19697
16.3029 2.342965
16.4029 2.240477
16.5029 2.312659
16.6029 2.285441
16.7029 2.296045
16.8029 2.3324030000000002
16.9029 2.3275530000000004
17.0029 2.295052
17.1029 2.249147
17.2029 2.275708
17.3029 2.166193
17.4029 2.239242
17.5029 2.172232
17.6029 2.201095
17.7029 2.0926419999999997
17.8029 2.200944
17.9029 2.075722
18.0029 2.1848039999999997
18.1029 2.073514
18.2029 1.989944
18.3029 2.0444839999999997
18.4029 1.983364
18.5029 1.945017
18.6029 1.9324659999999998
18.7029 1.9837600000000002
18.8029 1.9882099999999998
18.9029 1.839996
19.0029 1.977894
19.1029 1.838664
19.2029 1.9637810000000002
19.3029 1.9054640000000003
19.4029 1.857699
19.5029 1.969153
19.6029 1.828726
19.7029 1.990348
19.8029 1.9029509999999998
19.9029 1.90402
20.0029 1.934421
20.1029 1.853575
20.2029 1.941999
20.3029 1.904295
20.4029 1.9594779999999998
20.5029 1.903231
20.6029 1.954386
20.7029 1.878737
20.8029 1.882889
20.9029 1.936903
21.0029 1.874785
21.1029 1.926352
21.2029 1.8968230000000001
21.3029 1.842172
21.4029 1.80621
21.5029 1.8319320000000001
21.6029 1.8880569999999999
21.7029 1.8072089999999998
21.8029 1.845357
21.9029 1.787682
22.0029 1.8302990000000001
22.1029 1.839798
22.2029 1.7640749999999998
22.3029 1.785085
22.4029 1.7822090000000002
22.5029 1.7207919999999999
22.6029 1.7234450000000003
22.7029 1.714197
22.8029 1.817653
22.9029 1.724488
23.0029 1.762566
23.1029 1.7580060000000002
23.2029 1.76592
23.3029 1.7115559999999999
23.4029 1.749604
23.5029 1.748234
23.6029 1.740187
23.7029 1.8186129999999998
23.8029 1.675668
23.9029 1.786962
24.0029 1.7901220000000002
24.1029 1.72055
24.2029 1.8602980000000002
24.3029 1.7285949999999999
24.4029 1.9007290000000001
24.5029 1.782552
24.6029 1.8280560000000001
24.7029 1.796597
24.8029 1.753785
24.9029 1.840544
25.0029 1.7462039999999999
25.1029 1.831613
25.2029 1.8444000000000003
25.3029 1.948915
25.4029 1.773295
25.5029 1.9228699999999999
25.6029 1.857423
25.7029 1.891399
25.8029 1.8845480000000001
25.9029 1.836621
26.0029 1.966755
26.1029 1.940419
26.2029 1.8745760000000002
26.3029 1.964747
26.4029 1.886778
26.5029 1.9203869999999998
26.6029 1.940661
26.7029 2.0180409999999998
26.8029 1.908357
26.9029 1.978527
27.0029 1.965354
27.1029 1.921006
27.2029 1.940097
27.3029 1.930702
27.4029 1.987934
27.5029 1.884197
27.6029 2.011198
27.7029 1.938565
27.8029 1.94278
27.9029 1.9589640000000001
28.0029 1.9955880000000001
28.1029 1.9508860000000001
28.2029 1.945529
28.3029 1.9839109999999998
28.4029 1.9988489999999999
28.5029 1.9024139999999998
28.6029 1.907625
28.7029 1.970707
28.8029 1.9803600000000001
28.9029 1.9982659999999999
29.0029 1.8916420000000003
29.1029 2.005535
29.2029 1.8637370000000002
29.3029 2.01687
29.4029 1.9145789999999998
29.5029 1.891487
29.6029 2.013411
29.7029 1.9291559999999999
29.8029 2.023043
29.9029 1.9339399999999998
30.0029 1.8814579999999999
30.1029 2.1037909999999997
30.2029 1.80524
30.3029 1.9662929999999998
30.4029 1.8855209999999998
30.5029 2.055106
30.6029 1.9200599999999999
30.7029 1.9201510000000002
30.8029 1.896573
30.9029 1.905984
31.0029 1.887509
31.1029 1.947122
31.2029 1.972145
31.3029 1.859353
31.4029 1.957023
31.5029 1.8130060000000001
31.6029 1.9151340000000001
31.7029 1.980721
31.8029 1.810395
31.9029 1.8818960000000002
32.0029 1.829981
32.1029 1.919875
32.2029 1.902444
32.3029 1.841149
32.4029 1.841424
32.5029 1.842706
32.6029 1.836313
32.7029 1.809229
32.8029 1.8457439999999998
32.9029 1.8714629999999999
33.0029 1.7973620000000001
33.1029 1.835926
33.2029 1.821422
33.3029 1.669358
33.4029 1.872157
33.5029 1.789427
33.6029 1.761336
33.7029 1.767057
33.8029 1.740043
33.9029 1.789467
34.0029 1.7694960000000002
34.1029 1.72529
34.2029 1.7263519999999999
34.3029 1.7469689999999998
34.4029 1.6349209999999998
34.5029 1.8144770000000001
34.6029 1.6798060000000001
34.7029 1.70712
34.8029 1.706066
34.9029 1.72607
35.0029 1.6893960000000001
35.1029 1.730637
35.2029 1.64216
35.3029 1.720347
35.4029 1.677227
35.5029 1.7237930000000001
35.6029 1.802738
35.7029 1.57041
35.8029 1.6979579999999999
35.9029 1.648879
36.0029 1.7283750000000002
36.1029 1.6327029999999998
36.2029 1.6510690000000001
36.3029 1.607328
36.4029 1.6530389999999997
36.5029 1.673028
36.6029 1.591748
36.7029 1.6821099999999998
36.8029 1.608996
36.9029 1.6679119999999998
37.0029 1.5988300000000002
37.1029 1.6378469999999998
37.2029 1.590842
37.3029 1.652415
37.4029 1.606299
37.5029 1.601595
37.6029 1.6353119999999999
37.7029 1.601094
37.8029 1.525526
37.9029 1.598881
38.0029 1.662315
38.1029 1.5519129999999999
38.2029 1.637873
38.3029 1.59946
38.4029 1.59525
38.5029 1.519613
38.6029 1.5900859999999999
38.7029 1.5904070000000001
38.8029 1.5765409999999997
38.9029 1.581576
39.0029 1.5728689999999999
39.1029 1.520138
39.2029 1.543587
39.3029 1.566992
39.4029 1.5897139999999998
39.5029 1.5297580000000002
39.6029 1.513273
39.7029 1.534926
39.8029 1.5374130000000001
39.9029 1.521328
40.0029 1.506087
40.1029 1.5174470000000002
40.2029 1.5561899999999997
40.3029 1.4930569999999999
40.4029 1.544129
40.5029 1.491539
40.6029 1.494634
40.7029 1.493775
40.8029 1.4847990000000002
40.9029 1.469222
41.0029 1.4456499999999999
41.1029 1.4808670000000002
41.2029 1.4525109999999999
41.3029 1.435808
41.4029 1.410134
41.5029 1.432886
41.6029 1.4528720000000002
41.7029 1.4011810000000002
41.8029 1.420679
41.9029 1.329294
42.0029 1.380044
42.1029 1.386493
42.2029 1.353854
42.3029 1.4162910000000002
42.4029 1.420647
42.5029 1.310805
42.6029 1.3180699999999999
42.7029 1.330341
42.8029 1.327872
42.9029 1.326361
43.0029 1.401449
43.1029 1.288104
43.2029 1.278077
43.3029 1.3032990000000002
43.4029 1.3078549999999998
43.5029 1.270455
43.6029 1.260029
43.7029 1.2310800000000002
43.8029 1.2484879999999998
43.9029 1.2899569999999998
44.0029 1.227087
44.1029 1.234084
44.2029 1.2407949999999999
44.3029 1.224849
44.4029 1.212205
44.5029 1.219086
44.6029 1.219218
44.7029 1.21808
44.8029 1.144069
44.9029 1.234055
45.0029 1.214764
45.1029 1.16131
45.2029 1.1873939999999998
45.3029 1.156734
45.4029 1.224544
45.5029 1.192408
45.6029 1.1698369999999998
45.7029 1.196603
45.8029 1.2165659999999998
45.9029 1.135726
46.0029 1.148062
46.1029 1.195549
46.2029 1.153411
46.3029 1.232711
46.4029 1.1195179999999998
46.5029 1.181965
46.6029 1.1575760000000002
46.7029 1.170324
46.8029 1.1624409999999998
46.9029 1.156215
47.0029 1.1142239999999999
47.1029 1.190725
47.2029 1.151796
47.3029 1.130576
47.4029 1.161214
47.5029 1.1393410000000002
47.6029 1.112783
47.7029 1.19098
47.8029 1.129848
47.9029 1.141398
48.0029 1.123004
48.1029 1.202505
48.2029 1.101928
48.3029 1.132244
48.4029 1.180936
48.5029 1.1232769999999999
48.6029 1.1178810000000001
48.7029 1.168775
48.8029 1.1528839999999998
48.9029 1.123456
49.0029 1.173417
49.1029 1.125747
49.2029 1.1446239999999999
49.3029 1.125177
49.4029 1.131098
49.5029 1.132567
49.6029 1.109145
49.7029 1.146866
49.8029 1.1221240000000001
49.9029 1.1131140000000002
50.0029 1.152664
50.1029 1.130494
50.2029 1.083605
50.3029 1.156594
50.4029 1.101539
50.5029 1.1033650000000002
50.6029 1.1396410000000001
50.7029 1.144842
50.8029 1.113019
50.9029 1.106351
51.0029 1.1184370000000001
51.1029 1.137068
51.2029 1.1580469999999998
51.3029 1.119073
51.4029 1.130271
51.5029 1.109451
51.6029 1.1138620000000001
51.7029 1.145265
51.8029 1.123532
51.9029 1.146983
52.0029 1.118538
52.1029 1.1082969999999999
52.2029 1.161613
52.3029 1.168234
52.4029 1.15286
52.5029 1.136212
52.6029 1.141304
52.7029 1.1397810000000002
52.8029 1.199095
52.9029 1.148877
53.0029 1.160712
53.1029 1.1517449999999998
53.2029 1.193087
53.3029 1.1286509999999998
53.4029 1.169968
53.5029 1.1359430000000001
53.6029 1.188551
53.7029 1.159217
53.8029 1.2222099999999998
53.9029 1.1271630000000001
54.0029 1.159321
54.1029 1.189101
54.2029 1.143783
54.3029 1.233988
54.4029 1.097286
54.5029 1.1499890000000001
54.6029 1.165977
54.7029 1.153643
54.8029 1.18465
54.9029 1.109581
55.0029 1.214341
55.1029 1.1085340000000001
55.2029 1.143361
55.3029 1.154419
55.4029 1.146125
55.5029 1.1565560000000001
55.6029 1.1549989999999999
55.7029 1.145223
55.8029 1.1411799999999999
55.9029 1.18224
56.0029 1.1301510000000001
56.1029 1.185228
56.2029 1.153417
56.3029 1.1316700000000002
56.4029 1.131947
56.5029 1.163044
56.6029 1.116755
56.7029 1.16906
56.8029 1.1566109999999998
56.9029 1.154404
57.0029 1.1186
57.1029 1.158655
57.2029 1.245937
57.3029 1.126727
57.4029 1.211495
57.5029 1.199827
57.6029 1.19149
57.7029 1.131601
57.8029 1.218277
57.9029 1.165567
58.0029 1.202963
58.1029 1.252083
58.2029 1.2129100000000002
58.3029 1.218148
58.4029 1.192109
58.5029 1.260751
58.6029 1.238358
58.7029 1.218831
58.8029 1.222783
58.9029 1.257128
59.0029 1.2727870000000001
59.1029 1.208785
59.2029 1.239918
59.3029 1.335617
59.4029 1.215942
59.5029 1.281172
59.6029 1.3129330000000001
59.7029 1.298191
59.8029 1.2748549999999998
59.9029 1.330095
60.0029 1.26117
60.1029 1.270528
60.2029 1.330503
60.3029 1.340854
60.4029 1.280648
60.5029 1.286535
60.6029 1.360969
60.7029 1.3125339999999999
60.8029 1.3692959999999998
60.9029 1.301437
61.0029 1.350871
61.1029 1.284722
61.2029 1.358467
61.3029 1.342968
61.4029 1.290216
61.5029 1.3281630000000002
61.6029 1.3178340000000002
61.7029 1.31227
61.8029 1.343502
61.9029 1.3655249999999999
62.0029 1.313584
62.1029 1.3742269999999999
62.2029 1.362984
62.3029 1.338963
62.4029 1.351079
62.5029 1.377473
62.6029 1.415884
62.7029 1.33649
62.8029 1.348316
62.9029 1.4180840000000001
63.0029 1.304071
63.1029 1.426867
63.2029 1.366294
63.3029 1.378793
63.4029 1.444045
63.5029 1.391181
63.6029 1.419228
63.7029 1.416653
63.8029 1.4389539999999998
63.9029 1.40561
64.0029 1.41066
64.1029 1.440125
64.2029 1.432018
64.3029 1.412815
64.4029 1.494727
64.5029 1.420196
64.6029 1.439615
64.7029 1.4264599999999998
64.8029 1.430399
64.9029 1.488795
65.0029 1.4463380000000001
65.1029 1.381994
65.2029 1.519115
65.3029 1.367844
65.4029 1.3793
65.5029 1.428575
65.6029 1.3446589999999998
65.7029 1.4567789999999998
65.8029 1.322019
65.9029 1.333319
66.0029 1.451725
66.1029 1.3542880000000002
66.2029 1.2999370000000001
66.3029 1.3824619999999999
66.4029 1.336078
66.5029 1.317646
66.6029 1.309685
66.7029 1.3174940000000002
66.8029 1.3318059999999998
66.9029 1.294676
67.0029 1.2856539999999999
67.1029 1.3184429999999998
67.2029 1.19567
67.3029 1.28304
67.4029 1.268682
67.5029 1.207162
67.6029 1.255452
67.7029 1.205721
67.8029 1.2560790000000002
67.9029 1.1906189999999999
68.0029 1.2140440000000001
68.1029 1.182323
68.2029 1.182785
68.3029 1.124396
68.4029 1.1241189999999999
68.5029 1.133026
68.6029 1.084931
68.7029 1.147827
68.8029 1.034992
68.9029 1.041449
69.0029 1.106153
69.1029 1.006326
69.2029 1.051561
69.3029 1.047247
69.4029 1.018234
69.5029 0.971686
69.6029 0.981859
69.7029 0.989087
69.8029 1.024548
69.9029 0.968003
70.0029 0.9770460000000001
70.1029 0.938582
70.2029 0.9212410000000001
70.3029 0.909335
70.4029 0.9163049999999999
70.5029 0.955175
70.6029 0.8852169999999999
70.7029 0.947599
70.8029 0.901805
70.9029 0.9450939999999999
71.0029 0.912149
71.1029 0.885775
71.2029 0.915752
71.3029 0.952893
71.4029 0.8915170000000001
71.5029 0.878757
71.6029 0.87524
71.7029 0.903046
71.8029 0.915231
71.9029 0.893254
72.0029 0.8745099999999999
72.1029 0.876555
72.2029 0.88103
72.3029 0.857092
72.4029 0.885066
72.5029 0.842209
72.6029 0.86188
72.7029 0.857565
72.8029 0.832908
72.9029 0.840645
73.0029 0.82354
73.1029 0.826048
73.2029 0.7815019999999999
73.3029 0.817329
73.4029 0.8331329999999999
73.5029 0.800709
73.6029 0.8242630000000001
73.7029 0.754449
73.8029 0.758532
73.9029 0.755429
74.0029 0.734773
74.1029 0.751481
74.2029 0.7197490000000001
74.3029 0.6666960000000001
74.4029 0.716133
74.5029 0.687929
74.6029 0.657539
74.7029 0.700368
74.8029 0.67276
74.9029 0.642643
75.0029 0.6616899999999999
75.1029 0.6533990000000001
75.2029 0.603318
75.3029 0.6379450000000001
75.4029 0.61593
75.5029 0.577206
75.6029 0.589158
75.7029 0.592475
75.8029 0.564495
75.9029 0.545265
76.0029 0.543238
76.1029 0.567823
76.2029 0.515478
76.3029 0.533487
76.4029 0.542442
76.5029 0.483391
76.6029 0.492273
76.7029 0.499953
76.8029 0.47591500000000003
76.9029 0.5428970000000001
77.0029 0.48527
77.1029 0.49998299999999996
77.2029 0.508407
77.3029 0.492029
77.4029 0.49137699999999995
77.5029 0.509953
77.6029 0.48680799999999996
77.7029 0.507946
77.8029 0.54523
77.9029 0.49367200000000006
78.0029 0.513982
78.1029 0.493025
78.2029 0.525785
78.3029 0.5187189999999999
78.4029 0.521155
78.5029 0.48899000000000004
78.6029 0.529871
78.7029 0.5290469999999999
78.8029 0.536585
78.9029 0.546454
79.0029 0.547396
79.1029 0.529323
79.2029 0.532339
79.3029 0.562037
79.4029 0.5177900000000001
79.5029 0.564775
79.6029 0.5174839999999999
79.7029 0.549069
79.8029 0.51444
79.9029 0.528227
80.0029 0.528801
80.1029 0.532367
80.2029 0.510134
80.3029 0.494357
80.4029 0.512525
80.5029 0.506307
80.6029 0.49700000000000005
80.7029 0.511177
80.8029 0.46836900000000004
80.9029 0.460856
81.0029 0.46080899999999997
81.1029 0.426732
81.2029 0.40577799999999997
81.3029 0.422968
81.4029 0.43086199999999997
81.5029 0.375184
81.6029 0.413947
81.7029 0.35787
81.8029 0.378955
81.9029 0.371075
82.0029 0.360273
82.1029 0.34156600000000004
82.2029 0.298568
82.3029 0.33009
82.4029 0.27580499999999997
82.5029 0.34669099999999997
82.6029 0.275164
82.7029 0.290863
82.8029 0.300815
82.9029 0.231689
83.0029 0.265331
83.1029 0.259282
83.2029 0.201521
83.3029 0.279068
83.4029 0.251059
83.5029 0.223652
83.6029 0.226761
83.7029 0.228705
83.8029 0.249055
83.9029 0.18585600000000002
84.0029 0.189863
84.1029 0.222128
84.2029 0.19758
84.3029 0.211154
84.4029 0.21698800000000001
84.5029 0.255071
84.6029 0.211313
84.7029 0.217221
84.8029 0.23090100000000002
84.9029 0.215501
85.0029 0.28619700000000003
85.1029 0.2178
85.2029 0.31467199999999995
85.3029 0.25817
85.4029 0.312146
85.5029 0.310648
85.6029 0.267557
85.7029 0.27642000000000005
85.8029 0.37051
85.9029 0.384917
86.0029 0.339957
86.1029 0.34177
86.2029 0.38351999999999997
86.3029 0.350721
86.4029 0.33436699999999997
86.5029 0.41712699999999997
86.6029 0.33225999999999994
86.7029 0.38822
86.8029 0.396265
86.9029 0.35090099999999996
87.0029 0.37955800000000006
87.1029 0.36593899999999996
87.2029 0.38404799999999994
87.3029 0.350861
87.4029 0.338433
87.5029 0.352885
87.6029 0.354083
87.7029 0.30304600000000004
87.8029 0.347009
87.9029 0.339331
88.0029 0.31514700000000007
88.1029 0.31650100000000003
88.2029 0.260716
88.3029 0.28167
88.4029 0.268123
88.5029 0.26302400000000004
88.6029 0.272093
88.7029 0.246702
88.8029 0.214395
88.9029 0.275514
89.0029 0.276393
89.1029 0.228948
89.2029 0.206354
89.3029 0.23493400000000003
89.4029 0.232411
89.5029 0.229831
89.6029 0.185787
89.7029 0.228164
89.8029 0.230466
89.9029 0.210063
90.0029 0.23768999999999998
90.1029 0.19400900000000001
90.2029 0.20129
90.3029 0.22412200000000002
90.4029 0.21743800000000002
90.5029 0.24578399999999997
90.6029 0.22712
90.7029 0.220696
90.8029 0.231335
90.9029 0.24887000000000004
91.0029 0.235462
91.1029 0.22766
91.2029 0.278499
91.3029 0.22117699999999998
91.4029 0.234406
91.5029 0.238606
91.6029 0.26061500000000004
91.7029 0.21253999999999998
91.8029 0.239492
91.9029 0.186554
92.0029 0.223085
92.1029 0.190453
92.2029 0.198477
92.3029 0.24154599999999998
92.4029 0.213228
92.5029 0.16731100000000002
92.6029 0.145375
92.7029 0.128372
92.8029 0.152378
92.9029 0.16054
93.0029 0.150694
93.1029 0.140575
93.2029 0.14057299999999998
93.3029 0.137385
93.4029 0.125364
93.5029 0.12052500000000001
93.6029 0.107816
93.7029 0.092888
93.8029 0.097855
93.9029 0.048353
94.0029 0.07541300000000001
94.1029 0.055052
94.2029 0.07125899999999999
94.3029 0.07495100000000002
94.4029 0.042078000000000004
94.5029 0.045052
94.6029 0.02162
94.7029 0.039553
94.8029 0.047964
94.9029 0.023118
95.0029 0.009713999999999999
95.1029 0.013241999999999999
95.2029 0.045171
95.3029 0.031541
95.4029 0.017075
95.5029 0.032174
95.6029 0.019089000000000002
95.7029 0.005252
95.8029 0.014623999999999998
95.9029 0.008022
96.0029 0.006122000000000001
96.1029 0.016214
96.2029 0.010753
96.3029 0.025948
96.4029 0.011420999999999999
96.5029 0.010703
96.6029 0.008144
96.7029 0.005359
96.8029 0.000176
96.9029 0.005777
97.0029 0.0
97.1029 0.005045999999999999
97.2029 0.009892999999999999
97.3029 0.0047420000000000006
97.4029 0.016075
97.5029 0.008718
97.6029 0.000298
97.7029 0.005427
97.8029 0.000161
97.9029 0.004612
98.0029 0.00027400000000000005
98.1029 0.010056
98.2029 0.0
98.3029 0.001399
98.4029 0.0
98.5029 0.0036999999999999997
98.6029 0.0
98.7029 0.006334
98.8029 0.00044100000000000004
98.9029 0.00036
99.0029 0.005552
99.1029 0.000189
99.2029 0.000116
99.3029 0.004359999999999999
99.4029 0.003624
99.5029 0.0
99.6029 0.01017
99.7029 0.009574000000000001
99.8029 0.009028
99.9029 0.007397
100.003 0.020381
100.103 0.021056000000000002
100.203 0.023160000000000004
100.303 0.020873000000000003
100.403 0.07684300000000001
100.503 0.064332
100.603 0.040359
100.703 0.050752000000000005
100.803 0.05279999999999999
100.903 0.073832
101.003 0.079799
101.103 0.090692
101.203 0.080552
101.303 0.116199
101.403 0.12187600000000001
101.503 0.127183
101.603 0.116079
101.703 0.174879
101.803 0.18190300000000004
101.903 0.14795500000000003
102.003 0.181728
102.103 0.172023
102.203 0.202212
102.303 0.22273500000000002
102.403 0.196295
102.503 0.251448
102.603 0.20962899999999998
102.703 0.242102
102.803 0.24086999999999997
102.903 0.201052
103.003 0.225625
103.103 0.21240900000000001
103.203 0.24884499999999998
103.303 0.25246799999999997
103.403 0.241165
103.503 0.244309
