  -46.772474      0.018664
  -46.672474      0.003940
  -46.572474      0.005761
  -46.472474      0.004923
  -46.372474      0.006428
  -46.272474      0.005801
  -46.172474      0.006791
  -46.072474      0.008264
  -45.972474      0.008727
  -45.872474      0.008781
  -45.772474      0.006831
  -45.672474      0.006812
  -45.572474      0.007898
  -45.472474      0.004979
  -45.372474      0.004666
  -45.272474      0.002637
  -45.172474      0.002567
  -45.072474      0.004034
  -44.972474      0.001229
  -44.872474      0.001019
  -44.772474      0.002847
  -44.672474      0.000594
  -44.572474      0.000593
  -44.472474      0.000326
  -44.372474      0.000176
  -44.272474      0.000000
  -44.172474      0.000000
  -44.072474      0.000000
  -43.972474      0.000000
  -43.872474      0.000000
  -43.772474      0.000000
  -43.672474      0.000000
  -43.572474      0.000000
  -43.472474      0.000000
  -43.372474      0.000000
  -43.272474      0.000000
  -43.172474      0.000000
  -43.072474      0.000000
  -42.972474      0.000000
  -42.872474      0.000000
  -42.772474      0.000000
  -42.672474      0.000000
  -42.572474      0.000000
  -42.472474      0.000000
  -42.372474      0.000000
  -42.272474      0.000000
  -42.172474      0.000000
  -42.072474      0.000000
  -41.972474      0.000000
  -41.872474      0.000000
  -41.772474      0.000000
  -41.672474      0.000000
  -41.572474      0.000000
  -41.472474      0.000000
  -41.372474      0.000000
  -41.272474      0.000000
  -41.172474      0.000000
  -41.072474      0.000000
  -40.972474      0.000000
  -40.872474      0.000000
  -40.772474      0.000000
  -40.672474      0.000000
  -40.572474      0.000000
  -40.472474      0.000000
  -40.372474      0.000000
  -40.272474      0.000000
  -40.172474      0.000000
  -40.072474      0.000000
  -39.972474      0.000000
  -39.872474      0.000000
  -39.772474      0.000000
  -39.672474      0.000000
  -39.572474      0.000000
  -39.472474      0.000000
  -39.372474      0.000000
  -39.272474      0.000000
  -39.172474      0.000000
  -39.072474      0.000000
  -38.972474      0.000000
  -38.872474      0.000000
  -38.772474      0.000000
  -38.672474      0.000000
  -38.572474      0.000000
  -38.472474      0.000000
  -38.372474      0.000000
  -38.272474      0.000000
  -38.172474      0.000000
  -38.072474      0.000000
  -37.972474      0.000000
  -37.872474      0.000000
  -37.772474      0.000000
  -37.672474      0.000000
  -37.572474      0.000000
  -37.472474      0.000000
  -37.372474      0.000000
  -37.272474      0.000000
  -37.172474      0.000000
  -37.072474      0.000000
  -36.972474      0.000000
  -36.872474      0.000000
  -36.772474      0.000000
  -36.672474      0.000000
  -36.572474      0.000000
  -36.472474      0.000000
  -36.372474      0.000000
  -36.272474      0.000000
  -36.172474      0.000000
  -36.072474      0.000000
  -35.972474      0.000000
  -35.872474      0.000000
  -35.772474      0.000000
  -35.672474      0.000000
  -35.572474      0.000000
  -35.472474      0.000000
  -35.372474      0.000000
  -35.272474      0.000000
  -35.172474      0.000000
  -35.072474      0.000000
  -34.972474      0.000000
  -34.872474      0.000000
  -34.772474      0.000000
  -34.672474      0.000000
  -34.572474      0.000000
  -34.472474      0.000000
  -34.372474      0.000000
  -34.272474      0.000000
  -34.172474      0.000000
  -34.072474      0.000000
  -33.972474      0.000000
  -33.872474      0.000000
  -33.772474      0.000000
  -33.672474      0.000000
  -33.572474      0.000000
  -33.472474      0.000000
  -33.372474      0.000000
  -33.272474      0.000000
  -33.172474      0.000000
  -33.072474      0.000000
  -32.972474      0.000000
  -32.872474      0.000000
  -32.772474      0.000000
  -32.672474      0.000000
  -32.572474      0.000000
  -32.472474      0.000000
  -32.372474      0.000000
  -32.272474      0.000000
  -32.172474      0.000000
  -32.072474      0.000000
  -31.972474      0.000000
  -31.872474      0.000000
  -31.772474      0.000000
  -31.672474      0.000030
  -31.572474      0.000000
  -31.472474      0.000000
  -31.372474      0.000047
  -31.272474      0.000010
  -31.172474      0.000068
  -31.072474      0.000102
  -30.972474      0.000050
  -30.872474      0.000135
  -30.772474      0.000186
  -30.672474      0.000377
  -30.572474      0.000568
  -30.472474      0.000530
  -30.372474      0.000681
  -30.272474      0.000926
  -30.172474      0.001213
  -30.072474      0.001203
  -29.972474      0.001379
  -29.872474      0.001730
  -29.772474      0.001449
  -29.672474      0.001681
  -29.572474      0.001583
  -29.472474      0.002025
  -29.372474      0.001707
  -29.272474      0.001885
  -29.172474      0.001328
  -29.072474      0.000846
  -28.972474      0.000674
  -28.872474      0.000634
  -28.772474      0.000642
  -28.672474      0.000510
  -28.572474      0.000403
  -28.472474      0.000574
  -28.372474      0.000576
  -28.272474      0.000545
  -28.172474      0.000414
  -28.072474      0.000783
  -27.972474      0.000936
  -27.872474      0.001141
  -27.772474      0.000844
  -27.672474      0.001270
  -27.572474      0.001377
  -27.472474      0.001726
  -27.372474      0.001578
  -27.272474      0.001568
  -27.172474      0.001528
  -27.072474      0.001895
  -26.972474      0.001378
  -26.872474      0.000977
  -26.772474      0.001314
  -26.672474      0.001187
  -26.572474      0.010004
  -26.472474      0.018271
  -26.372474      0.000826
  -26.272474      0.000407
  -26.172474      0.017896
  -26.072474      0.080352
  -25.972474      0.062445
  -25.872474      0.115795
  -25.772474      0.186734
  -25.672474      0.275486
  -25.572474      0.471745
  -25.472474      0.426962
  -25.372474      0.640596
  -25.272474      0.845513
  -25.172474      1.094895
  -25.072474      1.317588
  -24.972474      1.239956
  -24.872474      1.346988
  -24.772474      1.391360
  -24.672474      1.320961
  -24.572474      1.344082
  -24.472474      1.127665
  -24.372474      1.160280
  -24.272474      0.901631
  -24.172474      0.902636
  -24.072474      0.882986
  -23.972474      0.592693
  -23.872474      0.464510
  -23.772474      0.513016
  -23.672474      0.296392
  -23.572474      0.207033
  -23.472474      0.162846
  -23.372474      0.102439
  -23.272474      0.097421
  -23.172474      0.037657
  -23.072474      0.073188
  -22.972474      0.116121
  -22.872474      0.169758
  -22.772474      0.260496
  -22.672474      0.548522
  -22.572474      0.646035
  -22.472474      0.955648
  -22.372474      1.324364
  -22.272474      1.203188
  -22.172474      1.697887
  -22.072474      1.964584
  -21.972474      2.213792
  -21.872474      2.611170
  -21.772474      2.432289
  -21.672474      2.687903
  -21.572474      2.734729
  -21.472474      2.471579
  -21.372474      2.218334
  -21.272474      2.139627
  -21.172474      1.876383
  -21.072474      1.586220
  -20.972474      1.685540
  -20.872474      1.197710
  -20.772474      0.934090
  -20.672474      0.898357
  -20.572474      0.659169
  -20.472474      0.512165
  -20.372474      0.261030
  -20.272474      0.278107
  -20.172474      0.186596
  -20.072474      0.190560
  -19.972474      0.090472
  -19.872474      0.055444
  -19.772474      0.027662
  -19.672474      0.019374
  -19.572474      0.000405
  -19.472474      0.009803
  -19.372474      0.000183
  -19.272474      0.000203
  -19.172474      0.009425
  -19.072474      0.000030
  -18.972474      0.000031
  -18.872474      0.000062
  -18.772474      0.000098
  -18.672474      0.000036
  -18.572474      0.000118
  -18.472474      0.000067
  -18.372474      0.000129
  -18.272474      0.000191
  -18.172474      0.000216
  -18.072474      0.000208
  -17.972474      0.000294
  -17.872474      0.000446
  -17.772474      0.000468
  -17.672474      0.000405
  -17.572474      0.000319
  -17.472474      0.000267
  -17.372474      0.000367
  -17.272474      0.000285
  -17.172474      0.000493
  -17.072474      0.000232
  -16.972474      0.000281
  -16.872474      0.000339
  -16.772474      0.000175
  -16.672474      0.000062
  -16.572474      0.000111
  -16.472474      0.000009
  -16.372474      0.008102
  -16.272474      0.000033
  -16.172474      0.007998
  -16.072474      0.007974
  -15.972474      0.071872
  -15.872474      0.112124
  -15.772474      0.200259
  -15.672474      0.176203
  -15.572474      0.376637
  -15.472474      0.568352
  -15.372474      0.696784
  -15.272474      0.904923
  -15.172474      1.041418
  -15.072474      1.129392
  -14.972474      1.225027
  -14.872474      1.547227
  -14.772474      1.330792
  -14.672474      1.218870
  -14.572474      1.524396
  -14.472474      1.123061
  -14.372474      1.041068
  -14.272474      0.850293
  -14.172474      0.563182
  -14.072474      0.515058
  -13.972474      0.467413
  -13.872474      0.211284
  -13.772474      0.283531
  -13.672474      0.188232
  -13.572474      0.117327
  -13.472474      0.097512
  -13.372474      0.086031
  -13.272474      0.164359
  -13.172474      0.205446
  -13.072474      0.383096
  -12.972474      0.510145
  -12.872474      0.760226
  -12.772474      0.962178
  -12.672474      1.126783
  -12.572474      1.265691
  -12.472474      1.379920
  -12.372474      1.477947
  -12.272474      1.574705
  -12.172474      1.464338
  -12.072474      1.364035
  -11.972474      1.189886
  -11.872474      0.946776
  -11.772474      0.855079
  -11.672474      0.912545
  -11.572474      0.645442
  -11.472474      0.608655
  -11.372474      0.364173
  -11.272474      0.363589
  -11.172474      0.437911
  -11.072474      0.436688
  -10.972474      0.622140
  -10.872474      0.676130
  -10.772474      0.828237
  -10.672474      1.229578
  -10.572474      1.266713
  -10.472474      1.583190
  -10.372474      1.660935
  -10.272474      1.992985
  -10.172474      1.818401
  -10.072474      2.134803
   -9.972474      2.350701
   -9.872474      2.303385
   -9.772474      2.445964
   -9.672474      2.115471
   -9.572474      2.330205
   -9.472474      2.206328
   -9.372474      2.075905
   -9.272474      1.910412
   -9.172474      1.632501
   -9.072474      1.322897
   -8.972474      1.093686
   -8.872474      1.195822
   -8.772474      0.874283
   -8.672474      0.623700
   -8.572474      0.514217
   -8.472474      0.484962
   -8.372474      0.334593
   -8.272474      0.560331
   -8.172474      0.658215
   -8.072474      0.970502
   -7.972474      1.212332
   -7.872474      1.184427
   -7.772474      1.644492
   -7.672474      2.296798
   -7.572474      2.180232
   -7.472474      2.457961
   -7.372474      2.708368
   -7.272474      3.015500
   -7.172474      2.786039
   -7.072474      2.996168
   -6.972474      2.863406
   -6.872474      3.109967
   -6.772474      3.049568
   -6.672474      2.984449
   -6.572474      2.883114
   -6.472474      3.075144
   -6.372474      2.945248
   -6.272474      2.767408
   -6.172474      2.693417
   -6.072474      3.114725
   -5.972474      2.862396
   -5.872474      2.742321
   -5.772474      2.842865
   -5.672474      2.956077
   -5.572474      2.878246
   -5.472474      2.880015
   -5.372474      3.243262
   -5.272474      3.257199
   -5.172474      3.467064
   -5.072474      3.542203
   -4.972474      3.672644
   -4.872474      3.603819
   -4.772474      3.720877
   -4.672474      3.789842
   -4.572474      3.828208
   -4.472474      3.703370
   -4.372474      3.569098
   -4.272474      3.684270
   -4.172474      3.733599
   -4.072474      3.890272
   -3.972474      3.646610
   -3.872474      3.920255
   -3.772474      3.767362
   -3.672474      4.126763
   -3.572474      3.834874
   -3.472474      4.211188
   -3.372474      4.138029
   -3.272474      4.170596
   -3.172474      4.244838
   -3.072474      3.968264
   -2.972474      3.822013
   -2.872474      3.811669
   -2.772474      3.830248
   -2.672474      3.696825
   -2.572474      3.609162
   -2.472474      3.704027
   -2.372474      3.595558
   -2.272474      3.759306
   -2.172474      3.797613
   -2.072474      3.838875
   -1.972474      4.081571
   -1.872474      4.333266
   -1.772474      4.239603
   -1.672474      4.513104
   -1.572474      4.502157
   -1.472474      4.460027
   -1.372474      4.288043
   -1.272474      4.115515
   -1.172474      3.932464
   -1.072474      3.407663
   -0.972474      3.474083
   -0.872474      2.948909
   -0.772474      2.471788
   -0.672474      2.025042
   -0.572474      1.684706
   -0.472474      1.236323
   -0.372474      1.106749
   -0.272474      0.783515
   -0.172474      0.435686
   -0.072474      0.371588
    0.027526      0.293640
    0.127526      0.178099
    0.227526      0.114420
    0.327526      0.059406
    0.427526      0.049860
    0.527526      0.011633
    0.627526      0.018072
    0.727526      0.010243
    0.827526      0.001069
    0.927526      0.000028
    1.027526      0.000080
    1.127526      0.000000
    1.227526      0.000000
    1.327526      0.000072
    1.427526      0.000000
    1.527526      0.000000
    1.627526      0.000000
    1.727526      0.000000
    1.827526      0.000000
    1.927526      0.000000
    2.027526      0.000000
    2.127526      0.000000
    2.227526      0.000000
    2.327526      0.000000
    2.427526      0.000000
    2.527526      0.000000
    2.627526      0.000000
    2.727526      0.000000
    2.827526      0.000000
    2.927526      0.000000
    3.027526      0.000000
    3.127526      0.000000
    3.227526      0.000000
    3.327526      0.000000
    3.427526      0.000000
    3.527526      0.000000
    3.627526      0.000000
    3.727526      0.000000
    3.827526      0.000000
    3.927526      0.000000
    4.027526      0.000094
    4.127526      0.000092
    4.227526      0.000000
    4.327526      0.000100
    4.427526      0.000059
    4.527526      0.000050
    4.627526      0.000239
    4.727526      0.000310
    4.827526      0.000259
    4.927526      0.000719
    5.027526      0.000674
    5.127526      0.001055
    5.227526      0.001690
    5.327526      0.002334
    5.427526      0.010261
    5.527526      0.006356
    5.627526      0.021313
    5.727526      0.072954
    5.827526      0.088995
    5.927526      0.201731
    6.027526      0.306767
    6.127526      0.406932
    6.227526      0.561840
    6.327526      0.745519
    6.427526      1.012550
    6.527526      1.081312
    6.627526      1.061051
    6.727526      1.416429
    6.827526      1.362370
    6.927526      1.710802
    7.027526      1.613420
    7.127526      1.518245
    7.227526      1.558120
    7.327526      1.523870
    7.427526      1.383261
    7.527526      1.610954
    7.627526      1.386616
    7.727526      1.358640
    7.827526      1.298237
    7.927526      1.185486
    8.027526      1.164455
    8.127526      0.980278
    8.227526      0.888959
    8.327526      0.921217
    8.427526      0.843056
    8.527526      0.753313
    8.627526      0.728484
    8.727526      0.748148
    8.827526      0.638568
    8.927526      0.697726
    9.027526      0.718108
    9.127526      0.718668
    9.227526      0.694515
    9.327526      0.795315
    9.427526      0.887123
    9.527526      0.962435
    9.627526      1.001217
    9.727526      1.016106
    9.827526      1.161034
    9.927526      1.178815
   10.027526      1.212238
   10.127526      1.307246
   10.227526      1.391350
   10.327526      1.392351
   10.427526      1.426849
   10.527526      1.490037
   10.627526      1.487731
   10.727526      1.519444
   10.827526      1.594928
   10.927526      1.574195
   11.027526      1.594456
   11.127526      1.605033
   11.227526      1.626410
   11.327526      1.682193
   11.427526      1.673243
   11.527526      1.663021
   11.627526      1.686304
   11.727526      1.763583
   11.827526      1.766125
   11.927526      1.704019
   12.027526      1.807541
   12.127526      1.783200
   12.227526      1.827123
   12.327526      1.814401
   12.427526      1.763830
   12.527526      1.790797
   12.627526      1.812036
   12.727526      1.779835
   12.827526      1.821881
   12.927526      1.749824
   13.027526      1.734767
   13.127526      1.726951
   13.227526      1.757305
   13.327526      1.713524
   13.427526      1.697828
   13.527526      1.679161
   13.627526      1.614441
   13.727526      1.679693
   13.827526      1.589389
   13.927526      1.612133
   14.027526      1.603675
   14.127526      1.558916
   14.227526      1.622440
   14.327526      1.580099
   14.427526      1.582363
   14.527526      1.587344
   14.627526      1.560525
   14.727526      1.560929
   14.827526      1.601824
   14.927526      1.539758
   15.027526      1.519751
   15.127526      1.496018
   15.227526      1.537239
   15.327526      1.541399
   15.427526      1.550708
   15.527526      1.519329
   15.627526      1.549999
   15.727526      1.605281
   15.827526      1.651449
   15.927526      1.590442
   16.027526      1.707402
   16.127526      1.642383
   16.227526      1.652589
   16.327526      1.715755
   16.427526      1.738528
   16.527526      1.768926
   16.627526      1.669999
   16.727526      1.788866
   16.827526      1.733475
   16.927526      1.782046
   17.027526      1.794618
   17.127526      1.767713
   17.227526      1.734299
   17.327526      1.724229
   17.427526      1.691815
   17.527526      1.669507
   17.627526      1.683881
   17.727526      1.637873
   17.827526      1.645226
   17.927526      1.650896
   18.027526      1.570351
   18.127526      1.594371
   18.227526      1.504173
   18.327526      1.547263
   18.427526      1.545371
   18.527526      1.536290
   18.627526      1.484388
   18.727526      1.478195
   18.827526      1.502596
   18.927526      1.460751
   19.027526      1.495671
   19.127526      1.474075
   19.227526      1.467172
   19.327526      1.453957
   19.427526      1.450976
   19.527526      1.469378
   19.627526      1.474210
   19.727526      1.441359
   19.827526      1.496065
   19.927526      1.471132
   20.027526      1.451102
   20.127526      1.471681
   20.227526      1.506280
   20.327526      1.503893
   20.427526      1.421870
   20.527526      1.481383
   20.627526      1.494536
   20.727526      1.446746
   20.827526      1.488335
   20.927526      1.480020
   21.027526      1.428234
   21.127526      1.436325
   21.227526      1.460777
   21.327526      1.380432
   21.427526      1.436568
   21.527526      1.458856
   21.627526      1.380914
   21.727526      1.374403
   21.827526      1.384046
   21.927526      1.389435
   22.027526      1.409336
   22.127526      1.355682
   22.227526      1.355894
   22.327526      1.394223
   22.427526      1.300189
   22.527526      1.294350
   22.627526      1.378315
   22.727526      1.343943
   22.827526      1.304965
   22.927526      1.339385
   23.027526      1.345376
   23.127526      1.278898
   23.227526      1.337254
   23.327526      1.304903
   23.427526      1.292066
   23.527526      1.352357
   23.627526      1.346080
   23.727526      1.279941
   23.827526      1.325712
   23.927526      1.318354
   24.027526      1.373105
   24.127526      1.319740
   24.227526      1.364188
   24.327526      1.387755
   24.427526      1.355911
   24.527526      1.415789
   24.627526      1.346674
   24.727526      1.342510
   24.827526      1.384913
   24.927526      1.443479
   25.027526      1.384101
   25.127526      1.403615
   25.227526      1.417413
   25.327526      1.484891
   25.427526      1.394795
   25.527526      1.462781
   25.627526      1.447894
   25.727526      1.455047
   25.827526      1.402734
   25.927526      1.445593
   26.027526      1.509990
   26.127526      1.439206
   26.227526      1.412269
   26.327526      1.485387
   26.427526      1.466478
   26.527526      1.477687
   26.627526      1.490606
   26.727526      1.423035
   26.827526      1.472517
   26.927526      1.482232
   27.027526      1.490965
   27.127526      1.479226
   27.227526      1.476291
   27.327526      1.452572
   27.427526      1.440670
   27.527526      1.504769
   27.627526      1.497848
   27.727526      1.418477
   27.827526      1.449441
   27.927526      1.520273
   28.027526      1.441520
   28.127526      1.452254
   28.227526      1.461222
   28.327526      1.474357
   28.427526      1.481868
   28.527526      1.370416
   28.627526      1.467604
   28.727526      1.446023
   28.827526      1.439244
   28.927526      1.470600
   29.027526      1.464064
   29.127526      1.496317
   29.227526      1.401148
   29.327526      1.466886
   29.427526      1.459660
   29.527526      1.425490
   29.627526      1.453295
   29.727526      1.438973
   29.827526      1.475067
   29.927526      1.439712
   30.027526      1.415355
   30.127526      1.445782
   30.227526      1.389267
   30.327526      1.421088
   30.427526      1.456252
   30.527526      1.392098
   30.627526      1.461074
   30.727526      1.450784
   30.827526      1.402967
   30.927526      1.456200
   31.027526      1.352794
   31.127526      1.436872
   31.227526      1.449121
   31.327526      1.350792
   31.427526      1.407014
   31.527526      1.408377
   31.627526      1.342349
   31.727526      1.425950
   31.827526      1.373670
   31.927526      1.447383
   32.027526      1.382967
   32.127526      1.388606
   32.227526      1.340156
   32.327526      1.377629
   32.427526      1.370445
   32.527526      1.345042
   32.627526      1.398508
   32.727526      1.341156
   32.827526      1.320171
   32.927526      1.326578
   33.027526      1.404043
   33.127526      1.339643
   33.227526      1.333764
   33.327526      1.241450
   33.427526      1.329131
   33.527526      1.309995
   33.627526      1.288693
   33.727526      1.322530
   33.827526      1.301209
   33.927526      1.332433
   34.027526      1.287008
   34.127526      1.326972
   34.227526      1.274079
   34.327526      1.303616
   34.427526      1.264004
   34.527526      1.329743
   34.627526      1.306927
   34.727526      1.256846
   34.827526      1.306031
   34.927526      1.285580
   35.027526      1.299826
   35.127526      1.217413
   35.227526      1.300370
   35.327526      1.276555
   35.427526      1.206741
   35.527526      1.312287
   35.627526      1.166662
   35.727526      1.323925
   35.827526      1.264995
   35.927526      1.255173
   36.027526      1.193227
   36.127526      1.261750
   36.227526      1.223498
   36.327526      1.250142
   36.427526      1.257851
   36.527526      1.235524
   36.627526      1.203625
   36.727526      1.193641
   36.827526      1.213449
   36.927526      1.257703
   37.027526      1.205837
   37.127526      1.240137
   37.227526      1.221942
   37.327526      1.186244
   37.427526      1.196915
   37.527526      1.259742
   37.627526      1.176842
   37.727526      1.201206
   37.827526      1.239591
   37.927526      1.183149
   38.027526      1.224208
   38.127526      1.241065
   38.227526      1.211967
   38.327526      1.163381
   38.427526      1.225421
   38.527526      1.246173
   38.627526      1.198662
   38.727526      1.181121
   38.827526      1.208370
   38.927526      1.177176
   39.027526      1.208988
   39.127526      1.172595
   39.227526      1.231424
   39.327526      1.206094
   39.427526      1.140548
   39.527526      1.176170
   39.627526      1.210937
   39.727526      1.159059
   39.827526      1.222664
   39.927526      1.169510
   40.027526      1.167212
   40.127526      1.130078
   40.227526      1.163150
   40.327526      1.136952
   40.427526      1.175012
   40.527526      1.165845
   40.627526      1.206461
   40.727526      1.099871
   40.827526      1.162993
   40.927526      1.070836
   41.027526      1.164325
   41.127526      1.098022
   41.227526      1.130614
   41.327526      1.072415
   41.427526      1.165071
   41.527526      1.087432
   41.627526      1.064105
   41.727526      1.080363
   41.827526      1.055094
   41.927526      1.073069
   42.027526      1.045178
   42.127526      1.030555
   42.227526      1.039694
   42.327526      0.985019
   42.427526      1.103777
   42.527526      0.969828
   42.627526      0.992896
   42.727526      1.020052
   42.827526      0.970078
   42.927526      0.969478
   43.027526      0.992253
   43.127526      1.001611
   43.227526      0.963560
   43.327526      0.985977
   43.427526      0.940239
   43.527526      0.943034
   43.627526      0.951038
   43.727526      0.994488
   43.827526      0.958552
   43.927526      0.945371
   44.027526      0.969736
   44.127526      0.900652
   44.227526      0.968753
   44.327526      0.906183
   44.427526      0.953602
   44.527526      0.916285
   44.627526      0.913720
   44.727526      0.945841
   44.827526      0.901109
   44.927526      0.879100
   45.027526      0.913199
   45.127526      0.904456
   45.227526      0.921884
   45.327526      0.915440
   45.427526      0.948289
   45.527526      0.903738
   45.627526      0.893265
   45.727526      0.902549
   45.827526      0.931368
   45.927526      0.865683
   46.027526      0.959222
   46.127526      0.855455
   46.227526      0.960283
   46.327526      0.906100
   46.427526      0.868784
   46.527526      0.854266
   46.627526      0.911181
   46.727526      0.921772
   46.827526      0.919378
   46.927526      0.852083
   47.027526      0.894540
   47.127526      0.914794
   47.227526      0.880991
   47.327526      0.897679
   47.427526      0.880162
   47.527526      0.901204
   47.627526      0.871714
   47.727526      0.883812
   47.827526      0.856271
   47.927526      0.894026
   48.027526      0.907104
   48.127526      0.880015
   48.227526      0.828465
   48.327526      0.896954
   48.427526      0.866436
   48.527526      0.902722
   48.627526      0.831433
   48.727526      0.837375
   48.827526      0.901625
   48.927526      0.833485
   49.027526      0.869811
   49.127526      0.909799
   49.227526      0.876789
   49.327526      0.877308
   49.427526      0.872759
   49.527526      0.854878
   49.627526      0.892338
   49.727526      0.852935
   49.827526      0.898602
   49.927526      0.846067
   50.027526      0.883149
   50.127526      0.869550
   50.227526      0.847902
   50.327526      0.849911
   50.427526      0.847594
   50.527526      0.899909
   50.627526      0.878026
   50.727526      0.865597
   50.827526      0.835973
   50.927526      0.837479
   51.027526      0.850902
   51.127526      0.890088
   51.227526      0.850106
   51.327526      0.862355
   51.427526      0.846844
   51.527526      0.873259
   51.627526      0.882658
   51.727526      0.880323
   51.827526      0.898967
   51.927526      0.885565
   52.027526      0.897185
   52.127526      0.863148
   52.227526      0.889343
   52.327526      0.883404
   52.427526      0.924085
   52.527526      0.894834
   52.627526      0.890685
   52.727526      0.904420
   52.827526      0.883598
   52.927526      0.935669
   53.027526      0.882654
   53.127526      0.907456
   53.227526      0.896826
   53.327526      0.932084
   53.427526      0.913141
   53.527526      0.906621
   53.627526      0.891610
   53.727526      0.870330
   53.827526      0.930880
   53.927526      0.907758
   54.027526      0.939543
   54.127526      0.909760
   54.227526      0.875887
   54.327526      0.882477
   54.427526      0.890668
   54.527526      0.894760
   54.627526      0.925404
   54.727526      0.916187
   54.827526      0.876736
   54.927526      0.869550
   55.027526      0.909473
   55.127526      0.907359
   55.227526      0.885414
   55.327526      0.850703
   55.427526      0.897215
   55.527526      0.868576
   55.627526      0.868519
   55.727526      0.887598
   55.827526      0.861581
   55.927526      0.876235
   56.027526      0.899797
   56.127526      0.859803
   56.227526      0.909228
   56.327526      0.842056
   56.427526      0.900390
   56.527526      0.861162
   56.627526      0.903930
   56.727526      0.900140
   56.827526      0.884708
   56.927526      0.895677
   57.027526      0.878700
   57.127526      0.885886
   57.227526      0.898668
   57.327526      0.880686
   57.427526      0.887211
   57.527526      0.907328
   57.627526      0.895473
   57.727526      0.926746
   57.827526      0.877096
   57.927526      0.890483
   58.027526      0.902880
   58.127526      0.897692
   58.227526      0.944264
   58.327526      0.940633
   58.427526      0.930372
   58.527526      0.945515
   58.627526      0.942835
   58.727526      0.988218
   58.827526      0.976516
   58.927526      0.969005
   59.027526      0.942057
   59.127526      0.991906
   59.227526      0.990874
   59.327526      0.963074
   59.427526      1.027061
   59.527526      1.004444
   59.627526      0.993243
   59.727526      0.966221
   59.827526      1.024183
   59.927526      1.017745
   60.027526      1.019442
   60.127526      0.996582
   60.227526      1.015804
   60.327526      1.052288
   60.427526      1.009616
   60.527526      0.976283
   60.627526      1.044906
   60.727526      1.007790
   60.827526      0.995190
   60.927526      1.025473
   61.027526      1.003251
   61.127526      1.028125
   61.227526      0.988031
   61.327526      1.028461
   61.427526      1.016270
   61.527526      1.010615
   61.627526      1.063376
   61.727526      0.979113
   61.827526      1.058323
   61.927526      1.002716
   62.027526      1.027769
   62.127526      1.057820
   62.227526      0.990373
   62.327526      1.062657
   62.427526      1.011397
   62.527526      1.061331
   62.627526      1.034454
   62.727526      1.035550
   62.827526      1.037786
   62.927526      1.089696
   63.027526      1.107077
   63.127526      1.044956
   63.227526      1.054638
   63.327526      1.063762
   63.427526      1.064097
   63.527526      1.076706
   63.627526      1.069616
   63.727526      1.154562
   63.827526      1.048303
   63.927526      1.125155
   64.027526      1.105140
   64.127526      1.140974
   64.227526      1.133867