  -46.495095      0.023297
  -46.395095      0.003337
  -46.295095      0.004490
  -46.195095      0.006874
  -46.095095      0.006408
  -45.995095      0.006039
  -45.895095      0.007362
  -45.795095      0.006550
  -45.695095      0.006028
  -45.595095      0.004720
  -45.495095      0.002777
  -45.395095      0.003218
  -45.295095      0.002673
  -45.195095      0.001752
  -45.095095      0.002094
  -44.995095      0.000613
  -44.895095      0.001149
  -44.795095      0.000538
  -44.695095      0.000000
  -44.595095      0.000000
  -44.495095      0.000000
  -44.395095      0.000000
  -44.295095      0.000000
  -44.195095      0.000000
  -44.095095      0.000000
  -43.995095      0.000000
  -43.895095      0.000000
  -43.795095      0.000000
  -43.695095      0.000000
  -43.595095      0.000000
  -43.495095      0.000000
  -43.395095      0.000000
  -43.295095      0.000000
  -43.195095      0.000000
  -43.095095      0.000000
  -42.995095      0.000000
  -42.895095      0.000000
  -42.795095      0.000000
  -42.695095      0.000000
  -42.595095      0.000000
  -42.495095      0.000000
  -42.395095      0.000000
  -42.295095      0.000000
  -42.195095      0.000000
  -42.095095      0.000000
  -41.995095      0.000000
  -41.895095      0.000000
  -41.795095      0.000000
  -41.695095      0.000000
  -41.595095      0.000000
  -41.495095      0.000000
  -41.395095      0.000000
  -41.295095      0.000000
  -41.195095      0.000000
  -41.095095      0.000000
  -40.995095      0.000000
  -40.895095      0.000000
  -40.795095      0.000000
  -40.695095      0.000000
  -40.595095      0.000000
  -40.495095      0.000000
  -40.395095      0.000000
  -40.295095      0.000000
  -40.195095      0.000000
  -40.095095      0.000000
  -39.995095      0.000000
  -39.895095      0.000000
  -39.795095      0.000000
  -39.695095      0.000000
  -39.595095      0.000000
  -39.495095      0.000000
  -39.395095      0.000000
  -39.295095      0.000000
  -39.195095      0.000000
  -39.095095      0.000000
  -38.995095      0.000000
  -38.895095      0.000000
  -38.795095      0.000000
  -38.695095      0.000000
  -38.595095      0.000000
  -38.495095      0.000000
  -38.395095      0.000000
  -38.295095      0.000000
  -38.195095      0.000000
  -38.095095      0.000000
  -37.995095      0.000000
  -37.895095      0.000000
  -37.795095      0.000000
  -37.695095      0.000000
  -37.595095      0.000000
  -37.495095      0.000000
  -37.395095      0.000000
  -37.295095      0.000000
  -37.195095      0.000000
  -37.095095      0.000000
  -36.995095      0.000000
  -36.895095      0.000000
  -36.795095      0.000000
  -36.695095      0.000000
  -36.595095      0.000000
  -36.495095      0.000000
  -36.395095      0.000000
  -36.295095      0.000000
  -36.195095      0.000000
  -36.095095      0.000000
  -35.995095      0.000000
  -35.895095      0.000000
  -35.795095      0.000000
  -35.695095      0.000000
  -35.595095      0.000000
  -35.495095      0.000000
  -35.395095      0.000000
  -35.295095      0.000000
  -35.195095      0.000000
  -35.095095      0.000000
  -34.995095      0.000000
  -34.895095      0.000000
  -34.795095      0.000000
  -34.695095      0.000000
  -34.595095      0.000000
  -34.495095      0.000000
  -34.395095      0.000000
  -34.295095      0.000000
  -34.195095      0.000000
  -34.095095      0.000000
  -33.995095      0.000000
  -33.895095      0.000000
  -33.795095      0.000000
  -33.695095      0.000000
  -33.595095      0.000000
  -33.495095      0.000000
  -33.395095      0.000000
  -33.295095      0.000000
  -33.195095      0.000000
  -33.095095      0.000000
  -32.995095      0.000000
  -32.895095      0.000000
  -32.795095      0.000000
  -32.695095      0.000000
  -32.595095      0.000000
  -32.495095      0.000000
  -32.395095      0.000000
  -32.295095      0.000000
  -32.195095      0.000000
  -32.095095      0.000000
  -31.995095      0.000000
  -31.895095      0.000000
  -31.795095      0.000000
  -31.695095      0.000000
  -31.595095      0.000000
  -31.495095      0.000000
  -31.395095      0.000000
  -31.295095      0.000000
  -31.195095      0.000000
  -31.095095      0.000085
  -30.995095      0.000000
  -30.895095      0.000014
  -30.795095      0.000076
  -30.695095      0.000058
  -30.595095      0.000180
  -30.495095      0.000217
  -30.395095      0.000310
  -30.295095      0.000715
  -30.195095      0.000713
  -30.095095      0.000635
  -29.995095      0.001001
  -29.895095      0.001063
  -29.795095      0.001767
  -29.695095      0.001501
  -29.595095      0.001403
  -29.495095      0.000933
  -29.395095      0.001154
  -29.295095      0.000647
  -29.195095      0.000845
  -29.095095      0.000885
  -28.995095      0.000476
  -28.895095      0.000436
  -28.795095      0.000222
  -28.695095      0.000509
  -28.595095      0.000339
  -28.495095      0.000456
  -28.395095      0.000445
  -28.295095      0.000208
  -28.195095      0.000209
  -28.095095      0.000548
  -27.995095      0.000579
  -27.895095      0.000803
  -27.795095      0.000664
  -27.695095      0.000772
  -27.595095      0.001010
  -27.495095      0.000684
  -27.395095      0.001050
  -27.295095      0.001034
  -27.195095      0.001052
  -27.095095      0.000883
  -26.995095      0.000888
  -26.895095      0.000752
  -26.795095      0.000672
  -26.695095      0.000722
  -26.595095      0.000723
  -26.495095      0.009254
  -26.395095      0.000392
  -26.295095      0.009210
  -26.195095      0.000334
  -26.095095      0.009267
  -25.995095      0.071410
  -25.895095      0.097688
  -25.795095      0.106868
  -25.695095      0.142328
  -25.595095      0.204355
  -25.495095      0.355813
  -25.395095      0.462509
  -25.295095      0.694481
  -25.195095      0.587612
  -25.095095      1.069055
  -24.995095      1.024504
  -24.895095      1.256845
  -24.795095      1.488774
  -24.695095      1.542461
  -24.595095      1.917103
  -24.495095      1.661677
  -24.395095      1.679298
  -24.295095      1.189865
  -24.195095      1.580705
  -24.095095      1.261499
  -23.995095      1.208589
  -23.895095      0.966997
  -23.795095      0.708279
  -23.695095      0.499101
  -23.595095      0.381093
  -23.495095      0.306155
  -23.395095      0.242189
  -23.295095      0.189153
  -23.195095      0.108865
  -23.095095      0.117234
  -22.995095      0.126938
  -22.895095      0.134099
  -22.795095      0.196329
  -22.695095      0.299789
  -22.595095      0.459280
  -22.495095      0.663391
  -22.395095      0.773568
  -22.295095      0.894602
  -22.195095      1.229887
  -22.095095      1.799981
  -21.995095      1.970659
  -21.895095      2.377547
  -21.795095      2.635022
  -21.695095      2.717524
  -21.595095      3.112066
  -21.495095      3.258016
  -21.395095      2.926390
  -21.295095      3.233418
  -21.195095      2.795388
  -21.095095      2.612263
  -20.995095      2.304096
  -20.895095      1.915343
  -20.795095      1.779637
  -20.695095      1.601623
  -20.595095      1.028089
  -20.495095      0.801771
  -20.395095      0.661104
  -20.295095      0.462634
  -20.195095      0.466017
  -20.095095      0.251200
  -19.995095      0.210786
  -19.895095      0.118666
  -19.795095      0.071754
  -19.695095      0.080412
  -19.595095      0.055659
  -19.495095      0.044619
  -19.395095      0.028087
  -19.295095      0.017153
  -19.195095      0.000103
  -19.095095      0.009423
  -18.995095      0.009410
  -18.895095      0.000039
  -18.795095      0.018396
  -18.695095      0.018202
  -18.595095      0.000028
  -18.495095      0.000093
  -18.395095      0.000134
  -18.295095      0.000078
  -18.195095      0.000159
  -18.095095      0.000147
  -17.995095      0.000181
  -17.895095      0.000218
  -17.795095      0.000206
  -17.695095      0.000234
  -17.595095      0.000251
  -17.495095      0.000291
  -17.395095      0.000233
  -17.295095      0.000234
  -17.195095      0.000216
  -17.095095      0.000143
  -16.995095      0.000181
  -16.895095      0.000125
  -16.795095      0.000108
  -16.695095      0.000018
  -16.595095      0.000149
  -16.495095      0.000047
  -16.395095      0.000039
  -16.295095      0.000027
  -16.195095      0.008121
  -16.095095      0.016002
  -15.995095      0.007897
  -15.895095      0.016084
  -15.795095      0.104249
  -15.695095      0.080244
  -15.595095      0.240542
  -15.495095      0.424169
  -15.395095      0.544606
  -15.295095      0.689409
  -15.195095      0.728335
  -15.095095      1.025663
  -14.995095      1.360969
  -14.895095      1.644340
  -14.795095      1.577976
  -14.695095      1.754492
  -14.595095      1.721486
  -14.495095      1.809357
  -14.395095      1.388628
  -14.295095      1.261039
  -14.195095      1.138976
  -14.095095      0.874918
  -13.995095      0.642753
  -13.895095      0.542963
  -13.795095      0.399263
  -13.695095      0.274760
  -13.595095      0.181646
  -13.495095      0.154656
  -13.395095      0.116338
  -13.295095      0.071969
  -13.195095      0.131653
  -13.095095      0.216263
  -12.995095      0.271107
  -12.895095      0.577912
  -12.795095      0.685171
  -12.695095      0.967621
  -12.595095      1.033222
  -12.495095      1.453868
  -12.395095      1.744258
  -12.295095      1.837834
  -12.195095      1.866692
  -12.095095      1.889615
  -11.995095      2.053861
  -11.895095      1.675676
  -11.795095      1.265632
  -11.695095      1.134031
  -11.595095      0.918128
  -11.495095      0.762421
  -11.395095      0.576331
  -11.295095      0.402413
  -11.195095      0.446802
  -11.095095      0.372025
  -10.995095      0.490835
  -10.895095      0.563483
  -10.795095      0.871308
  -10.695095      1.046460
  -10.595095      1.098032
  -10.495095      1.515840
  -10.395095      1.784167
  -10.295095      2.022247
  -10.195095      2.317164
  -10.095095      2.173736
   -9.995095      2.219642
   -9.895095      2.524645
   -9.795095      2.722772
   -9.695095      2.526251
   -9.595095      2.980516
   -9.495095      2.799828
   -9.395095      2.494274
   -9.295095      2.535386
   -9.195095      2.333687
   -9.095095      2.165977
   -8.995095      1.729284
   -8.895095      1.563404
   -8.795095      1.249939
   -8.695095      1.057581
   -8.595095      0.997027
   -8.495095      0.619064
   -8.395095      0.370249
   -8.295095      0.511494
   -8.195095      0.466740
   -8.095095      0.592360
   -7.995095      0.820488
   -7.895095      0.962449
   -7.795095      1.399130
   -7.695095      1.739880
   -7.595095      1.981302
   -7.495095      2.381546
   -7.395095      2.788045
   -7.295095      2.743420
   -7.195095      3.255709
   -7.095095      3.273689
   -6.995095      3.463977
   -6.895095      3.616727
   -6.795095      3.547683
   -6.695095      3.773882
   -6.595095      3.606965
   -6.495095      3.451397
   -6.395095      3.556424
   -6.295095      3.534004
   -6.195095      3.326505
   -6.095095      3.520030
   -5.995095      3.352436
   -5.895095      3.183642
   -5.795095      3.384273
   -5.695095      3.201543
   -5.595095      3.308008
   -5.495095      3.389239
   -5.395095      3.413818
   -5.295095      3.469290
   -5.195095      3.930524
   -5.095095      3.995335
   -4.995095      4.444687
   -4.895095      4.396966
   -4.795095      4.384642
   -4.695095      4.571117
   -4.595095      4.745449
   -4.495095      4.512792
   -4.395095      4.623711
   -4.295095      4.825045
   -4.195095      4.698061
   -4.095095      4.516781
   -3.995095      4.634332
   -3.895095      4.554092
   -3.795095      4.805570
   -3.695095      4.787782
   -3.595095      4.756158
   -3.495095      5.068486
   -3.395095      5.091106
   -3.295095      4.827605
   -3.195095      4.676981
   -3.095095      4.773640
   -2.995095      4.902816
   -2.895095      4.818012
   -2.795095      4.675134
   -2.695095      4.355890
   -2.595095      4.219004
   -2.495095      4.073437
   -2.395095      3.984383
   -2.295095      4.021753
   -2.195095      3.960904
   -2.095095      3.826779
   -1.995095      3.979460
   -1.895095      4.213309
   -1.795095      4.133355
   -1.695095      4.587544
   -1.595095      4.893448
   -1.495095      4.717615
   -1.395095      4.962123
   -1.295095      5.116961
   -1.195095      5.137917
   -1.095095      4.987272
   -0.995095      4.788964
   -0.895095      4.709697
   -0.795095      4.080771
   -0.695095      3.482389
   -0.595095      2.969440
   -0.495095      2.509493
   -0.395095      2.032242
   -0.295095      1.530135
   -0.195095      1.287448
   -0.095095      0.850252
    0.004905      0.512091
    0.104905      0.419432
    0.204905      0.275547
    0.304905      0.180420
    0.404905      0.153625
    0.504905      0.090940
    0.604905      0.069396
    0.704905      0.043902
    0.804905      0.029349
    0.904905      0.030685
    1.004905      0.026463
    1.104905      0.025031
    1.204905      0.020370
    1.304905      0.015617
    1.404905      0.000000
    1.504905      0.008506
    1.604905      0.000000
    1.704905      0.000142
    1.804905      0.000000
    1.904905      0.000000
    2.004905      0.000000
    2.104905      0.000000
    2.204905      0.000000
    2.304905      0.000000
    2.404905      0.000000
    2.504905      0.000000
    2.604905      0.000000
    2.704905      0.000000
    2.804905      0.000000
    2.904905      0.000000
    3.004905      0.000000
    3.104905      0.000000
    3.204905      0.000000
    3.304905      0.000000
    3.404905      0.000000
    3.504905      0.000000
    3.604905      0.000000
    3.704905      0.000000
    3.804905      0.000000
    3.904905      0.000000
    4.004905      0.000000
    4.104905      0.000000
    4.204905      0.000116
    4.304905      0.000000
    4.404905      0.000000
    4.504905      0.000131
    4.604905      0.000000
    4.704905      0.000163
    4.804905      0.000058
    4.904905      0.000294
    5.004905      0.000115
    5.104905      0.000681
    5.204905      0.000723
    5.304905      0.001480
    5.404905      0.010025
    5.504905      0.009004
    5.604905      0.003818
    5.704905      0.011001
    5.804905      0.035254
    5.904905      0.083346
    6.004905      0.082364
    6.104905      0.186028
    6.204905      0.227134
    6.304905      0.384792
    6.404905      0.574290
    6.504905      0.821341
    6.604905      0.906170
    6.704905      0.990848
    6.804905      1.221550
    6.904905      1.556442
    7.004905      1.692611
    7.104905      1.901173
    7.204905      1.833688
    7.304905      2.101071
    7.404905      2.110899
    7.504905      1.951439
    7.604905      1.865773
    7.704905      1.869558
    7.804905      1.596278
    7.904905      1.543761
    8.004905      1.471469
    8.104905      1.311700
    8.204905      1.269840
    8.304905      1.289742
    8.404905      1.212721
    8.504905      1.086662
    8.604905      1.022939
    8.704905      0.884088
    8.804905      0.828725
    8.904905      0.909187
    9.004905      0.858954
    9.104905      0.836294
    9.204905      0.933736
    9.304905      0.972323
    9.404905      1.009734
    9.504905      1.037824
    9.604905      1.128347
    9.704905      1.275493
    9.804905      1.285248
    9.904905      1.407207
   10.004905      1.473519
   10.104905      1.579952
   10.204905      1.674651
   10.304905      1.617145
   10.404905      1.711654
   10.504905      1.802222
   10.604905      1.738674
   10.704905      1.789994
   10.804905      1.847269
   10.904905      1.840751
   11.004905      1.806981
   11.104905      1.873951
   11.204905      1.896906
   11.304905      1.937235
   11.404905      1.924872
   11.504905      1.954066
   11.604905      2.068257
   11.704905      2.008999
   11.804905      2.045751
   11.904905      2.049639
   12.004905      2.104314
   12.104905      2.060271
   12.204905      2.159938
   12.304905      2.116594
   12.404905      2.129269
   12.504905      2.044670
   12.604905      2.107801
   12.704905      2.106751
   12.804905      2.045038
   12.904905      2.043166
   13.004905      2.049279
   13.104905      2.061363
   13.204905      2.038714
   13.304905      2.012678
   13.404905      2.016853
   13.504905      1.903279
   13.604905      1.941705
   13.704905      1.900448
   13.804905      1.958326
   13.904905      1.803997
   14.004905      1.943334
   14.104905      1.799185
   14.204905      1.870104
   14.304905      1.814476
   14.404905      1.851290
   14.504905      1.791748
   14.604905      1.787668
   14.704905      1.822333
   14.804905      1.826255
   14.904905      1.746243
   15.004905      1.790442
   15.104905      1.780900
   15.204905      1.747344
   15.304905      1.849633
   15.404905      1.837004
   15.504905      1.826633
   15.604905      1.846733
   15.704905      1.866462
   15.804905      1.814510
   15.904905      1.841963
   16.004905      1.934768
   16.104905      1.902662
   16.204905      1.991816
   16.304905      1.985271
   16.404905      2.037746
   16.504905      2.074396
   16.604905      2.095752
   16.704905      2.097831
   16.804905      1.984082
   16.904905      2.174896
   17.004905      2.109736
   17.104905      2.027705
   17.204905      2.082719
   17.304905      2.099490
   17.404905      2.076755
   17.504905      2.074851
   17.604905      1.992209
   17.704905      1.994880
   17.804905      1.916390
   17.904905      2.015512
   18.004905      1.849398
   18.104905      1.855180
   18.204905      1.849766
   18.304905      1.843912
   18.404905      1.835091
   18.504905      1.760998
   18.604905      1.729881
   18.704905      1.768683
   18.804905      1.792196
   18.904905      1.762625
   19.004905      1.721457
   19.104905      1.726676
   19.204905      1.653126
   19.304905      1.754458
   19.404905      1.710533
   19.504905      1.741338
   19.604905      1.693454
   19.704905      1.798377
   19.804905      1.706850
   19.904905      1.699774
   20.004905      1.698109
   20.104905      1.742873
   20.204905      1.666281
   20.304905      1.736422
   20.404905      1.722277
   20.504905      1.796530
   20.604905      1.718653
   20.704905      1.734854
   20.804905      1.754811
   20.904905      1.707756
   21.004905      1.744568
   21.104905      1.695772
   21.204905      1.689783
   21.304905      1.709419
   21.404905      1.726637
   21.504905      1.624521
   21.604905      1.704579
   21.704905      1.702036
   21.804905      1.659320
   21.904905      1.650680
   22.004905      1.673988
   22.104905      1.623797
   22.204905      1.607575
   22.304905      1.609476
   22.404905      1.645329
   22.504905      1.555586
   22.604905      1.621320
   22.704905      1.616155
   22.804905      1.591590
   22.904905      1.619312
   23.004905      1.490939
   23.104905      1.615466
   23.204905      1.575699
   23.304905      1.593331
   23.404905      1.522811
   23.504905      1.600264
   23.604905      1.602612
   23.704905      1.634799
   23.804905      1.546532
   23.904905      1.538560
   24.004905      1.598932
   24.104905      1.601320
   24.204905      1.538420
   24.304905      1.627287
   24.404905      1.552746
   24.504905      1.608945
   24.604905      1.679822
   24.704905      1.538967
   24.804905      1.675035
   24.904905      1.625311
   25.004905      1.548110
   25.104905      1.708466
   25.204905      1.612483
   25.304905      1.658728
   25.404905      1.688533
   25.504905      1.596465
   25.604905      1.714103
   25.704905      1.700333
   25.804905      1.693844
   25.904905      1.712427
   26.004905      1.672209
   26.104905      1.625745
   26.204905      1.720127
   26.304905      1.702172
   26.404905      1.712508
   26.504905      1.725037
   26.604905      1.667109
   26.704905      1.747026
   26.804905      1.700680
   26.904905      1.679625
   27.004905      1.760608
   27.104905      1.634269
   27.204905      1.793494
   27.304905      1.702995
   27.404905      1.748912
   27.504905      1.712586
   27.604905      1.736160
   27.704905      1.721935
   27.804905      1.734648
   27.904905      1.697950
   28.004905      1.742967
   28.104905      1.620855
   28.204905      1.821254
   28.304905      1.671735
   28.404905      1.638265
   28.504905      1.728931
   28.604905      1.702773
   28.704905      1.688344
   28.804905      1.746961
   28.904905      1.703028
   29.004905      1.748333
   29.104905      1.703309
   29.204905      1.712418
   29.304905      1.733360
   29.404905      1.688160
   29.504905      1.685398
   29.604905      1.710392
   29.704905      1.722373
   29.804905      1.719424
   29.904905      1.704956
   30.004905      1.764328
   30.104905      1.675563
   30.204905      1.744195
   30.304905      1.644437
   30.404905      1.677460
   30.504905      1.730769
   30.604905      1.740229
   30.704905      1.632767
   30.804905      1.735852
   30.904905      1.665073
   31.004905      1.627623
   31.104905      1.708920
   31.204905      1.707721
   31.304905      1.698659
   31.404905      1.642678
   31.504905      1.745151
   31.604905      1.633106
   31.704905      1.714591
   31.804905      1.608670
   31.904905      1.625868
   32.004905      1.676999
   32.104905      1.655185
   32.204905      1.605615
   32.304905      1.663432
   32.404905      1.612867
   32.504905      1.616371
   32.604905      1.653921
   32.704905      1.649420
   32.804905      1.608784
   32.904905      1.583567
   33.004905      1.563509
   33.104905      1.582856
   33.204905      1.647187
   33.304905      1.529727
   33.404905      1.640776
   33.504905      1.554831
   33.604905      1.603447
   33.704905      1.578596
   33.804905      1.516939
   33.904905      1.554612
   34.004905      1.606937
   34.104905      1.523135
   34.204905      1.523314
   34.304905      1.555995
   34.404905      1.506153
   34.504905      1.535669
   34.604905      1.549942
   34.704905      1.505526
   34.804905      1.515536
   34.904905      1.523488
   35.004905      1.528789
   35.104905      1.444231
   35.204905      1.553677
   35.304905      1.479846
   35.404905      1.530457
   35.504905      1.476355
   35.604905      1.481469
   35.704905      1.516286
   35.804905      1.436216
   35.904905      1.505565
   36.004905      1.465921
   36.104905      1.551516
   36.204905      1.457355
   36.304905      1.434358
   36.404905      1.505773
   36.504905      1.448497
   36.604905      1.440898
   36.704905      1.444345
   36.804905      1.410371
   36.904905      1.497170
   37.004905      1.466141
   37.104905      1.490780
   37.204905      1.472422
   37.304905      1.440495
   37.404905      1.411404
   37.504905      1.440068
   37.604905      1.423588
   37.704905      1.506059
   37.804905      1.425634
   37.904905      1.393250
   38.004905      1.403396
   38.104905      1.475021
   38.204905      1.400396
   38.304905      1.408760
   38.404905      1.408058
   38.504905      1.415954
   38.604905      1.421933
   38.704905      1.411669
   38.804905      1.448695
   38.904905      1.409230
   39.004905      1.426548
   39.104905      1.349063
   39.204905      1.422948
   39.304905      1.422772
   39.404905      1.383535
   39.504905      1.439381
   39.604905      1.375835
   39.704905      1.346126
   39.804905      1.398517
   39.904905      1.407760
   40.004905      1.352446
   40.104905      1.421851
   40.204905      1.362870
   40.304905      1.347885
   40.404905      1.374199
   40.504905      1.391350
   40.604905      1.376058
   40.704905      1.369253
   40.804905      1.298336
   40.904905      1.299999
   41.004905      1.296743
   41.104905      1.394251
   41.204905      1.280145
   41.304905      1.318291
   41.404905      1.255493
   41.504905      1.324265
   41.604905      1.288451
   41.704905      1.278163
   41.804905      1.269389
   41.904905      1.292039
   42.004905      1.310237
   42.104905      1.214411
   42.204905      1.258658
   42.304905      1.237054
   42.404905      1.219286
   42.504905      1.217470
   42.604905      1.228407
   42.704905      1.218643
   42.804905      1.156733
   42.904905      1.174157
   43.004905      1.260948
   43.104905      1.140463
   43.204905      1.134874
   43.304905      1.204403
   43.404905      1.195853
   43.504905      1.094113
   43.604905      1.147561
   43.704905      1.151941
   43.804905      1.127861
   43.904905      1.130706
   44.004905      1.178075
   44.104905      1.109631
   44.204905      1.089000
   44.304905      1.098039
   44.404905      1.132727
   44.504905      1.089424
   44.604905      1.057995
   44.704905      1.117829
   44.804905      1.137228
   44.904905      1.040395
   45.004905      1.135956
   45.104905      1.095349
   45.204905      1.086026
   45.304905      1.030567
   45.404905      1.129538
   45.504905      1.119523
   45.604905      1.024790
   45.704905      1.099347
   45.804905      1.044408
   45.904905      1.086234
   46.004905      1.072560
   46.104905      1.023059
   46.204905      1.080210
   46.304905      1.086466
   46.404905      1.063108
   46.504905      1.054731
   46.604905      1.092079
   46.704905      1.032574
   46.804905      1.032506
   46.904905      1.030113
   47.004905      1.097226
   47.104905      1.050070
   47.204905      1.037195
   47.304905      1.065726
   47.404905      1.044048
   47.504905      1.020669
   47.604905      1.084713
   47.704905      1.015770
   47.804905      1.028742
   47.904905      1.082701
   48.004905      1.024123
   48.104905      1.001183
   48.204905      1.090492
   48.304905      1.015173
   48.404905      0.979772
   48.504905      1.093473
   48.604905      0.987737
   48.704905      1.098648
   48.804905      0.987655
   48.904905      1.030899
   49.004905      1.018266
   49.104905      1.010536
   49.204905      1.027726
   49.304905      1.063361
   49.404905      1.042368
   49.504905      1.003740
   49.604905      1.003062
   49.704905      1.047239
   49.804905      1.003823
   49.904905      1.046995
   50.004905      1.022282
   50.104905      1.002164
   50.204905      1.055209
   50.304905      0.993353
   50.404905      1.046445
   50.504905      1.005746
   50.604905      1.029269
   50.704905      1.034932
   50.804905      0.998586
   50.904905      1.015854
   51.004905      1.020815
   51.104905      1.005279
   51.204905      1.005259
   51.304905      1.018375
   51.404905      1.013056
   51.504905      1.021862
   51.604905      1.020340
   51.704905      1.050432
   51.804905      0.978400
   51.904905      1.044477
   52.004905      0.979383
   52.104905      1.033504
   52.204905      1.038968
   52.304905      1.019608
   52.404905      1.062603
   52.504905      1.034446
   52.604905      1.046811
   52.704905      1.041338
   52.804905      1.057889
   52.904905      1.083913
   53.004905      1.067442
   53.104905      1.038681
   53.204905      1.062221
   53.304905      1.061921
   53.404905      1.060939
   53.504905      1.112283
   53.604905      1.046850
   53.704905      1.044495
   53.804905      1.110935
   53.904905      1.042787
   54.004905      1.085765
   54.104905      1.039898
   54.204905      1.077586
   54.304905      1.098780
   54.404905      1.064426
   54.504905      1.008862
   54.604905      1.089731
   54.704905      1.062956
   54.804905      1.016328
   54.904905      1.078372
   55.004905      1.076203
   55.104905      1.034138
   55.204905      1.048197
   55.304905      1.024085
   55.404905      1.067104
   55.504905      0.999439
   55.604905      1.087754
   55.704905      0.966943
   55.804905      1.045617
   55.904905      1.029061
   56.004905      1.017717
   56.104905      1.012418
   56.204905      1.029392
   56.304905      1.009662
   56.404905      1.046148
   56.504905      1.041521
   56.604905      1.054206
   56.704905      1.078666
   56.804905      1.023058
   56.904905      1.062993
   57.004905      1.009150
   57.104905      1.042454
   57.204905      1.092977
   57.304905      1.004686
   57.404905      1.087072
   57.504905      1.070070
   57.604905      1.092532
   57.704905      1.109916
   57.804905      1.068348
   57.904905      1.070903
   58.004905      1.072165
   58.104905      1.061671
   58.204905      1.111219
   58.304905      1.101175
   58.404905      1.074056
   58.504905      1.084220
   58.604905      1.139641
   58.704905      1.116874
   58.804905      1.107802
   58.904905      1.158786
   59.004905      1.098318
   59.104905      1.124169
   59.204905      1.124195
   59.304905      1.144932
   59.404905      1.118873
   59.504905      1.150152
   59.604905      1.168840
   59.704905      1.121164
   59.804905      1.194753
   59.904905      1.134506
   60.004905      1.187061
   60.104905      1.137784
   60.204905      1.187270
   60.304905      1.178532
   60.404905      1.194260
   60.504905      1.180847
   60.604905      1.171421
   60.704905      1.222497
   60.804905      1.170587
   60.904905      1.179326
   61.004905      1.207299
   61.104905      1.143889
   61.204905      1.229321
   61.304905      1.236632
   61.404905      1.174965
   61.504905      1.245642
   61.604905      1.112514
   61.704905      1.210252
   61.804905      1.200558
   61.904905      1.206462
   62.004905      1.234401
   62.104905      1.190574
   62.204905      1.241512
   62.304905      1.195650
   62.404905      1.238952
   62.504905      1.179664
   62.604905      1.158271
   62.704905      1.266132
   62.804905      1.249227
   62.904905      1.187533
   63.004905      1.293666
   63.104905      1.193433
   63.204905      1.231264
   63.304905      1.261781
   63.404905      1.250083
   63.504905      1.324264
   63.604905      1.245186
   63.704905      1.234591
   63.804905      1.292983
   63.904905      1.290864
   64.004905      1.261825
   64.104905      1.340761
   64.204905      1.266418
   64.304905      1.284128
   64.404905      1.327716
   64.504905      1.271021