  -46.644419      0.008824
  -46.544419      0.003690
  -46.444419      0.004652
  -46.344419      0.006002
  -46.244419      0.007920
  -46.144419      0.005587
  -46.044419      0.006145
  -45.944419      0.007120
  -45.844419      0.006438
  -45.744419      0.007025
  -45.644419      0.005888
  -45.544419      0.006007
  -45.444419      0.003929
  -45.344419      0.002800
  -45.244419      0.002243
  -45.144419      0.001577
  -45.044419      0.002372
  -44.944419      0.000274
  -44.844419      0.000834
  -44.744419      0.000150
  -44.644419      0.000489
  -44.544419      0.000000
  -44.444419      0.000000
  -44.344419      0.000000
  -44.244419      0.000000
  -44.144419      0.000000
  -44.044419      0.000000
  -43.944419      0.000000
  -43.844419      0.000000
  -43.744419      0.000000
  -43.644419      0.000000
  -43.544419      0.000000
  -43.444419      0.000000
  -43.344419      0.000000
  -43.244419      0.000000
  -43.144419      0.000000
  -43.044419      0.000000
  -42.944419      0.000000
  -42.844419      0.000000
  -42.744419      0.000000
  -42.644419      0.000000
  -42.544419      0.000000
  -42.444419      0.000000
  -42.344419      0.000000
  -42.244419      0.000000
  -42.144419      0.000000
  -42.044419      0.000000
  -41.944419      0.000000
  -41.844419      0.000000
  -41.744419      0.000000
  -41.644419      0.000000
  -41.544419      0.000000
  -41.444419      0.000000
  -41.344419      0.000000
  -41.244419      0.000000
  -41.144419      0.000000
  -41.044419      0.000000
  -40.944419      0.000000
  -40.844419      0.000000
  -40.744419      0.000000
  -40.644419      0.000000
  -40.544419      0.000000
  -40.444419      0.000000
  -40.344419      0.000000
  -40.244419      0.000000
  -40.144419      0.000000
  -40.044419      0.000000
  -39.944419      0.000000
  -39.844419      0.000000
  -39.744419      0.000000
  -39.644419      0.000000
  -39.544419      0.000000
  -39.444419      0.000000
  -39.344419      0.000000
  -39.244419      0.000000
  -39.144419      0.000000
  -39.044419      0.000000
  -38.944419      0.000000
  -38.844419      0.000000
  -38.744419      0.000000
  -38.644419      0.000000
  -38.544419      0.000000
  -38.444419      0.000000
  -38.344419      0.000000
  -38.244419      0.000000
  -38.144419      0.000000
  -38.044419      0.000000
  -37.944419      0.000000
  -37.844419      0.000000
  -37.744419      0.000000
  -37.644419      0.000000
  -37.544419      0.000000
  -37.444419      0.000000
  -37.344419      0.000000
  -37.244419      0.000000
  -37.144419      0.000000
  -37.044419      0.000000
  -36.944419      0.000000
  -36.844419      0.000000
  -36.744419      0.000000
  -36.644419      0.000000
  -36.544419      0.000000
  -36.444419      0.000000
  -36.344419      0.000000
  -36.244419      0.000000
  -36.144419      0.000000
  -36.044419      0.000000
  -35.944419      0.000000
  -35.844419      0.000000
  -35.744419      0.000000
  -35.644419      0.000000
  -35.544419      0.000000
  -35.444419      0.000000
  -35.344419      0.000000
  -35.244419      0.000000
  -35.144419      0.000000
  -35.044419      0.000000
  -34.944419      0.000000
  -34.844419      0.000000
  -34.744419      0.000000
  -34.644419      0.000000
  -34.544419      0.000000
  -34.444419      0.000000
  -34.344419      0.000000
  -34.244419      0.000000
  -34.144419      0.000000
  -34.044419      0.000000
  -33.944419      0.000000
  -33.844419      0.000000
  -33.744419      0.000000
  -33.644419      0.000000
  -33.544419      0.000000
  -33.444419      0.000000
  -33.344419      0.000000
  -33.244419      0.000000
  -33.144419      0.000000
  -33.044419      0.000000
  -32.944419      0.000000
  -32.844419      0.000000
  -32.744419      0.000000
  -32.644419      0.000000
  -32.544419      0.000000
  -32.444419      0.000000
  -32.344419      0.000000
  -32.244419      0.000000
  -32.144419      0.000000
  -32.044419      0.000000
  -31.944419      0.000000
  -31.844419      0.000000
  -31.744419      0.000000
  -31.644419      0.000000
  -31.544419      0.000000
  -31.444419      0.000000
  -31.344419      0.000000
  -31.244419      0.000000
  -31.144419      0.000050
  -31.044419      0.000049
  -30.944419      0.000175
  -30.844419      0.000091
  -30.744419      0.000269
  -30.644419      0.000233
  -30.544419      0.000375
  -30.444419      0.000403
  -30.344419      0.000815
  -30.244419      0.000657
  -30.144419      0.001435
  -30.044419      0.001372
  -29.944419      0.001457
  -29.844419      0.001853
  -29.744419      0.001692
  -29.644419      0.001791
  -29.544419      0.001938
  -29.444419      0.001869
  -29.344419      0.001398
  -29.244419      0.001535
  -29.144419      0.001556
  -29.044419      0.000782
  -28.944419      0.000725
  -28.844419      0.000547
  -28.744419      0.000591
  -28.644419      0.000425
  -28.544419      0.000295
  -28.444419      0.000225
  -28.344419      0.000287
  -28.244419      0.000523
  -28.144419      0.000427
  -28.044419      0.000533
  -27.944419      0.000799
  -27.844419      0.001018
  -27.744419      0.000990
  -27.644419      0.001196
  -27.544419      0.001224
  -27.444419      0.001658
  -27.344419      0.001399
  -27.244419      0.001354
  -27.144419      0.001697
  -27.044419      0.001426
  -26.944419      0.001321
  -26.844419      0.001227
  -26.744419      0.001197
  -26.644419      0.000921
  -26.544419      0.000745
  -26.444419      0.000598
  -26.344419      0.000337
  -26.244419      0.000233
  -26.144419      0.009076
  -26.044419      0.026984
  -25.944419      0.035735
  -25.844419      0.062460
  -25.744419      0.124483
  -25.644419      0.097979
  -25.544419      0.195307
  -25.444419      0.222888
  -25.344419      0.364733
  -25.244419      0.507008
  -25.144419      0.800869
  -25.044419      0.676675
  -24.944419      1.051086
  -24.844419      1.086697
  -24.744419      1.346664
  -24.644419      1.444159
  -24.544419      1.437230
  -24.444419      1.222762
  -24.344419      1.046032
  -24.244419      1.001011
  -24.144419      0.814142
  -24.044419      0.762076
  -23.944419      0.411338
  -23.844419      0.430433
  -23.744419      0.287436
  -23.644419      0.269840
  -23.544419      0.188930
  -23.444419      0.055460
  -23.344419      0.055003
  -23.244419      0.018620
  -23.144419      0.019282
  -23.044419      0.018369
  -22.944419      0.097789
  -22.844419      0.115692
  -22.744419      0.195963
  -22.644419      0.157438
  -22.544419      0.233943
  -22.444419      0.415282
  -22.344419      0.708559
  -22.244419      1.030479
  -22.144419      1.231981
  -22.044419      1.471979
  -21.944419      1.713727
  -21.844419      2.051706
  -21.744419      2.118707
  -21.644419      2.263996
  -21.544419      2.470206
  -21.444419      2.343906
  -21.344419      2.256200
  -21.244419      2.056711
  -21.144419      1.874485
  -21.044419      1.708780
  -20.944419      1.286539
  -20.844419      1.093602
  -20.744419      0.864735
  -20.644419      0.553343
  -20.544419      0.559750
  -20.444419      0.351385
  -20.344419      0.232822
  -20.244419      0.250583
  -20.144419      0.064974
  -20.044419      0.045589
  -19.944419      0.037181
  -19.844419      0.009425
  -19.744419      0.009048
  -19.644419      0.000404
  -19.544419      0.000213
  -19.444419      0.000118
  -19.344419      0.000122
  -19.244419      0.000007
  -19.144419      0.000047
  -19.044419      0.000038
  -18.944419      0.000002
  -18.844419      0.000014
  -18.744419      0.000039
  -18.644419      0.000038
  -18.544419      0.000063
  -18.444419      0.000109
  -18.344419      0.000105
  -18.244419      0.000207
  -18.144419      0.000145
  -18.044419      0.000251
  -17.944419      0.000237
  -17.844419      0.000241
  -17.744419      0.000274
  -17.644419      0.000189
  -17.544419      0.000322
  -17.444419      0.000438
  -17.344419      0.000200
  -17.244419      0.000171
  -17.144419      0.000208
  -17.044419      0.000173
  -16.944419      0.000156
  -16.844419      0.000169
  -16.744419      0.000052
  -16.644419      0.000090
  -16.544419      0.000078
  -16.444419      0.000059
  -16.344419      0.000001
  -16.244419      0.000023
  -16.144419      0.000007
  -16.044419      0.000005
  -15.944419      0.015978
  -15.844419      0.024038
  -15.744419      0.064045
  -15.644419      0.095866
  -15.544419      0.184493
  -15.444419      0.367835
  -15.344419      0.368329
  -15.244419      0.576526
  -15.144419      0.777281
  -15.044419      0.809930
  -14.944419      1.153214
  -14.844419      1.307049
  -14.744419      1.465333
  -14.644419      1.370338
  -14.544419      1.315557
  -14.444419      1.101045
  -14.344419      0.985628
  -14.244419      0.782945
  -14.144419      0.498376
  -14.044419      0.402710
  -13.944419      0.346184
  -13.844419      0.171728
  -13.744419      0.139481
  -13.644419      0.067734
  -13.544419      0.035762
  -13.444419      0.004644
  -13.344419      0.045069
  -13.244419      0.056290
  -13.144419      0.125457
  -13.044419      0.122638
  -12.944419      0.294056
  -12.844419      0.390183
  -12.744419      0.541837
  -12.644419      0.710727
  -12.544419      1.070781
  -12.444419      1.415568
  -12.344419      1.262519
  -12.244419      1.457264
  -12.144419      1.797562
  -12.044419      1.429481
  -11.944419      1.176885
  -11.844419      1.109665
  -11.744419      0.779803
  -11.644419      0.536811
  -11.544419      0.360569
  -11.444419      0.309913
  -11.344419      0.210165
  -11.244419      0.172158
  -11.144419      0.177977
  -11.044419      0.190796
  -10.944419      0.316828
  -10.844419      0.532978
  -10.744419      0.610635
  -10.644419      0.907173
  -10.544419      0.979965
  -10.444419      1.177755
  -10.344419      1.473826
  -10.244419      1.549982
  -10.144419      1.660735
  -10.044419      1.782510
   -9.944419      1.862254
   -9.844419      1.846030
   -9.744419      1.770616
   -9.644419      1.942357
   -9.544419      1.837926
   -9.444419      1.862451
   -9.344419      2.035946
   -9.244419      1.721745
   -9.144419      1.609268
   -9.044419      1.402935
   -8.944419      1.035715
   -8.844419      0.791101
   -8.744419      0.708331
   -8.644419      0.481204
   -8.544419      0.256884
   -8.444419      0.234838
   -8.344419      0.179278
   -8.244419      0.201040
   -8.144419      0.324479
   -8.044419      0.415525
   -7.944419      0.571629
   -7.844419      0.756076
   -7.744419      1.140499
   -7.644419      1.413131
   -7.544419      1.697207
   -7.444419      1.937761
   -7.344419      2.283886
   -7.244419      2.409667
   -7.144419      2.505256
   -7.044419      2.723394
   -6.944419      2.633110
   -6.844419      2.780834
   -6.744419      2.576858
   -6.644419      2.612283
   -6.544419      2.562954
   -6.444419      2.338237
   -6.344419      2.472756
   -6.244419      2.584912
   -6.144419      2.274931
   -6.044419      2.281960
   -5.944419      2.284771
   -5.844419      2.184476
   -5.744419      2.190181
   -5.644419      2.183087
   -5.544419      2.229686
   -5.444419      2.391664
   -5.344419      2.457450
   -5.244419      2.711264
   -5.144419      2.629562
   -5.044419      2.960166
   -4.944419      2.958703
   -4.844419      3.071305
   -4.744419      3.266597
   -4.644419      3.212786
   -4.544419      3.248935
   -4.444419      3.289694
   -4.344419      3.205731
   -4.244419      3.220745
   -4.144419      3.214458
   -4.044419      3.163461
   -3.944419      3.005974
   -3.844419      3.385715
   -3.744419      3.214048
   -3.644419      3.466763
   -3.544419      3.229281
   -3.444419      3.331304
   -3.344419      3.316846
   -3.244419      3.633035
   -3.144419      3.241677
   -3.044419      3.455851
   -2.944419      3.112032
   -2.844419      3.393021
   -2.744419      3.176156
   -2.644419      3.010615
   -2.544419      2.839217
   -2.444419      2.799827
   -2.344419      2.650623
   -2.244419      2.636347
   -2.144419      2.658012
   -2.044419      2.824732
   -1.944419      2.670758
   -1.844419      2.954768
   -1.744419      3.241280
   -1.644419      3.381014
   -1.544419      3.549425
   -1.444419      3.664171
   -1.344419      3.980133
   -1.244419      3.785218
   -1.144419      3.737038
   -1.044419      3.595147
   -0.944419      3.256922
   -0.844419      3.049396
   -0.744419      2.231423
   -0.644419      1.979600
   -0.544419      1.452026
   -0.444419      1.189242
   -0.344419      0.783234
   -0.244419      0.525543
   -0.144419      0.376400
   -0.044419      0.161387
    0.055581      0.103146
    0.155581      0.050147
    0.255581      0.058163
    0.355581      0.010663
    0.455581      0.001988
    0.555581      0.000506
    0.655581      0.000000
    0.755581      0.000000
    0.855581      0.000000
    0.955581      0.000000
    1.055581      0.000139
    1.155581      0.000000
    1.255581      0.000000
    1.355581      0.000000
    1.455581      0.000000
    1.555581      0.000000
    1.655581      0.000000
    1.755581      0.000000
    1.855581      0.000000
    1.955581      0.000000
    2.055581      0.000000
    2.155581      0.000000
    2.255581      0.000000
    2.355581      0.000000
    2.455581      0.000000
    2.555581      0.000000
    2.655581      0.000000
    2.755581      0.000000
    2.855581      0.000000
    2.955581      0.000000
    3.055581      0.000000
    3.155581      0.000000
    3.255581      0.000000
    3.355581      0.000000
    3.455581      0.000000
    3.555581      0.000000
    3.655581      0.000000
    3.755581      0.000000
    3.855581      0.000000
    3.955581      0.000000
    4.055581      0.000000
    4.155581      0.000000
    4.255581      0.000078
    4.355581      0.000099
    4.455581      0.000100
    4.555581      0.000070
    4.655581      0.000304
    4.755581      0.000350
    4.855581      0.000357
    4.955581      0.000364
    5.055581      0.000553
    5.155581      0.000933
    5.255581      0.001725
    5.355581      0.010416
    5.455581      0.002988
    5.555581      0.003301
    5.655581      0.003760
    5.755581      0.011523
    5.855581      0.035220
    5.955581      0.066196
    6.055581      0.080063
    6.155581      0.178733
    6.255581      0.293121
    6.355581      0.292820
    6.455581      0.436338
    6.555581      0.619135
    6.655581      0.820728
    6.755581      1.148159
    6.855581      1.151157
    6.955581      1.353465
    7.055581      1.435930
    7.155581      1.418287
    7.255581      1.349907
    7.355581      1.389700
    7.455581      1.482656
    7.555581      1.451900
    7.655581      1.149256
    7.755581      1.181760
    7.855581      1.099120
    7.955581      1.030538
    8.055581      0.894948
    8.155581      0.821900
    8.255581      0.765950
    8.355581      0.820012
    8.455581      0.717372
    8.555581      0.605386
    8.655581      0.657781
    8.755581      0.617100
    8.855581      0.553915
    8.955581      0.525999
    9.055581      0.514141
    9.155581      0.594621
    9.255581      0.564422
    9.355581      0.613003
    9.455581      0.738979
    9.555581      0.723427
    9.655581      0.834166
    9.755581      0.851774
    9.855581      0.934792
    9.955581      1.014509
   10.055581      1.068367
   10.155581      1.134804
   10.255581      1.180782
   10.355581      1.193887
   10.455581      1.203886
   10.555581      1.215742
   10.655581      1.226821
   10.755581      1.238749
   10.855581      1.240801
   10.955581      1.270870
   11.055581      1.324684
   11.155581      1.306481
   11.255581      1.330118
   11.355581      1.428991
   11.455581      1.366110
   11.555581      1.400083
   11.655581      1.457851
   11.755581      1.386933
   11.855581      1.494080
   11.955581      1.510923
   12.055581      1.478572
   12.155581      1.462102
   12.255581      1.519574
   12.355581      1.502273
   12.455581      1.545345
   12.555581      1.508768
   12.655581      1.462713
   12.755581      1.494301
   12.855581      1.444387
   12.955581      1.451644
   13.055581      1.447808
   13.155581      1.342684
   13.255581      1.481761
   13.355581      1.340251
   13.455581      1.406175
   13.555581      1.365889
   13.655581      1.377115
   13.755581      1.359872
   13.855581      1.295421
   13.955581      1.343478
   14.055581      1.321061
   14.155581      1.323065
   14.255581      1.307732
   14.355581      1.267600
   14.455581      1.282901
   14.555581      1.300096
   14.655581      1.238395
   14.755581      1.266330
   14.855581      1.312683
   14.955581      1.206201
   15.055581      1.230631
   15.155581      1.251363
   15.255581      1.238236
   15.355581      1.241520
   15.455581      1.229242
   15.555581      1.244269
   15.655581      1.240173
   15.755581      1.277845
   15.855581      1.286905
   15.955581      1.278453
   16.055581      1.327239
   16.155581      1.317272
   16.255581      1.398435
   16.355581      1.372578
   16.455581      1.308682
   16.555581      1.491119
   16.655581      1.426406
   16.755581      1.402006
   16.855581      1.421882
   16.955581      1.483647
   17.055581      1.479083
   17.155581      1.390764
   17.255581      1.426434
   17.355581      1.433278
   17.455581      1.394483
   17.555581      1.427844
   17.655581      1.311907
   17.755581      1.424462
   17.855581      1.292848
   17.955581      1.328001
   18.055581      1.308028
   18.155581      1.261555
   18.255581      1.266841
   18.355581      1.241509
   18.455581      1.184339
   18.555581      1.310793
   18.655581      1.179684
   18.755581      1.248252
   18.855581      1.201119
   18.955581      1.197658
   19.055581      1.201238
   19.155581      1.164513
   19.255581      1.171818
   19.355581      1.192700
   19.455581      1.213686
   19.555581      1.168917
   19.655581      1.273205
   19.755581      1.167248
   19.855581      1.254464
   19.955581      1.200797
   20.055581      1.190222
   20.155581      1.234276
   20.255581      1.198494
   20.355581      1.263365
   20.455581      1.222599
   20.555581      1.243463
   20.655581      1.156373
   20.755581      1.271525
   20.855581      1.220946
   20.955581      1.188098
   21.055581      1.259247
   21.155581      1.194176
   21.255581      1.167124
   21.355581      1.185502
   21.455581      1.193622
   21.555581      1.173022
   21.655581      1.182136
   21.755581      1.169903
   21.855581      1.104374
   21.955581      1.143520
   22.055581      1.143752
   22.155581      1.123779
   22.255581      1.145301
   22.355581      1.134061
   22.455581      1.099135
   22.555581      1.111502
   22.655581      1.070133
   22.755581      1.107957
   22.855581      1.107684
   22.955581      1.119597
   23.055581      1.111882
   23.155581      1.084109
   23.255581      1.086216
   23.355581      1.066600
   23.455581      1.107252
   23.555581      1.116398
   23.655581      1.107509
   23.755581      1.062483
   23.855581      1.148244
   23.955581      1.068578
   24.055581      1.108639
   24.155581      1.151702
   24.255581      1.106750
   24.355581      1.154544
   24.455581      1.118119
   24.555581      1.106490
   24.655581      1.152591
   24.755581      1.137477
   24.855581      1.160374
   24.955581      1.206256
   25.055581      1.158176
   25.155581      1.133736
   25.255581      1.159020
   25.355581      1.208991
   25.455581      1.142276
   25.555581      1.162876
   25.655581      1.165139
   25.755581      1.178214
   25.855581      1.133776
   25.955581      1.180378
   26.055581      1.146666
   26.155581      1.183529
   26.255581      1.169024
   26.355581      1.152501
   26.455581      1.133465
   26.555581      1.224952
   26.655581      1.182277
   26.755581      1.138435
   26.855581      1.246525
   26.955581      1.106519
   27.055581      1.208002
   27.155581      1.132436
   27.255581      1.190077
   27.355581      1.171168
   27.455581      1.222074
   27.555581      1.186781
   27.655581      1.142730
   27.755581      1.180149
   27.855581      1.180514
   27.955581      1.140811
   28.055581      1.186787
   28.155581      1.199065
   28.255581      1.158680
   28.355581      1.187764
   28.455581      1.211866
   28.555581      1.197733
   28.655581      1.195333
   28.755581      1.160150
   28.855581      1.219736
   28.955581      1.136143
   29.055581      1.218126
   29.155581      1.197546
   29.255581      1.180845
   29.355581      1.198272
   29.455581      1.190332
   29.555581      1.174095
   29.655581      1.192405
   29.755581      1.206673
   29.855581      1.212035
   29.955581      1.157734
   30.055581      1.191349
   30.155581      1.196704
   30.255581      1.148891
   30.355581      1.185595
   30.455581      1.211130
   30.555581      1.169776
   30.655581      1.175250
   30.755581      1.199272
   30.855581      1.149312
   30.955581      1.199202
   31.055581      1.116607
   31.155581      1.179920
   31.255581      1.155301
   31.355581      1.164009
   31.455581      1.153044
   31.555581      1.134662
   31.655581      1.149174
   31.755581      1.174814
   31.855581      1.150079
   31.955581      1.138723
   32.055581      1.152816
   32.155581      1.161564
   32.255581      1.168518
   32.355581      1.124075
   32.455581      1.110861
   32.555581      1.151694
   32.655581      1.078474
   32.755581      1.129609
   32.855581      1.189150
   32.955581      1.081593
   33.055581      1.088042
   33.155581      1.086084
   33.255581      1.102485
   33.355581      1.090525
   33.455581      1.156419
   33.555581      1.067872
   33.655581      1.113175
   33.755581      1.098665
   33.855581      1.078822
   33.955581      1.085104
   34.055581      1.060463
   34.155581      1.095963
   34.255581      1.057696
   34.355581      1.088051
   34.455581      1.070027
   34.555581      1.067434
   34.655581      1.048258
   34.755581      1.031777
   34.855581      1.056076
   34.955581      1.084506
   35.055581      1.010746
   35.155581      1.096904
   35.255581      1.046792
   35.355581      1.083305
   35.455581      1.013203
   35.555581      1.080883
   35.655581      1.013526
   35.755581      0.999677
   35.855581      1.067864
   35.955581      1.009385
   36.055581      1.063859
   36.155581      1.045074
   36.255581      0.979072
   36.355581      1.044452
   36.455581      1.014451
   36.555581      1.039343
   36.655581      1.006540
   36.755581      1.008854
   36.855581      1.027389
   36.955581      1.032376
   37.055581      0.979740
   37.155581      1.031729
   37.255581      1.046548
   37.355581      0.998712
   37.455581      0.987014
   37.555581      1.008170
   37.655581      0.995876
   37.755581      1.016720
   37.855581      0.995441
   37.955581      0.971306
   38.055581      1.042908
   38.155581      0.967540
   38.255581      1.021929
   38.355581      0.940809
   38.455581      1.004868
   38.555581      0.988490
   38.655581      0.995189
   38.755581      0.992738
   38.855581      0.980585
   38.955581      0.975114
   39.055581      0.989759
   39.155581      0.970158
   39.255581      1.005881
   39.355581      0.996804
   39.455581      0.973176
   39.555581      0.944843
   39.655581      0.991439
   39.755581      0.977390
   39.855581      0.971387
   39.955581      0.980253
   40.055581      0.946589
   40.155581      0.980508
   40.255581      0.928762
   40.355581      0.958329
   40.455581      0.979946
   40.555581      0.928448
   40.655581      0.919693
   40.755581      0.974226
   40.855581      0.896867
   40.955581      0.946981
   41.055581      0.905712
   41.155581      0.950058
   41.255581      0.932615
   41.355581      0.896902
   41.455581      0.899427
   41.555581      0.892723
   41.655581      0.906736
   41.755581      0.842210
   41.855581      0.890889
   41.955581      0.905192
   42.055581      0.878935
   42.155581      0.817774
   42.255581      0.871820
   42.355581      0.819440
   42.455581      0.872315
   42.555581      0.821266
   42.655581      0.818119
   42.755581      0.782184
   42.855581      0.818533
   42.955581      0.815702
   43.055581      0.798217
   43.155581      0.785104
   43.255581      0.817617
   43.355581      0.764042
   43.455581      0.815170
   43.555581      0.762153
   43.655581      0.783323
   43.755581      0.768765
   43.855581      0.812309
   43.955581      0.764624
   44.055581      0.761058
   44.155581      0.776506
   44.255581      0.781460
   44.355581      0.738744
   44.455581      0.788310
   44.555581      0.732739
   44.655581      0.769815
   44.755581      0.712317
   44.855581      0.787262
   44.955581      0.720219
   45.055581      0.752009
   45.155581      0.706236
   45.255581      0.777568
   45.355581      0.739807
   45.455581      0.745884
   45.555581      0.758838
   45.655581      0.728483
   45.755581      0.742554
   45.855581      0.731507
   45.955581      0.750568
   46.055581      0.735880
   46.155581      0.732161
   46.255581      0.737079
   46.355581      0.766680
   46.455581      0.694139
   46.555581      0.795862
   46.655581      0.701918
   46.755581      0.723109
   46.855581      0.689233
   46.955581      0.784828
   47.055581      0.710701
   47.155581      0.754142
   47.255581      0.712184
   47.355581      0.722328
   47.455581      0.706057
   47.555581      0.750124
   47.655581      0.748391
   47.755581      0.699174
   47.855581      0.701217
   47.955581      0.731885
   48.055581      0.747527
   48.155581      0.727768
   48.255581      0.693448
   48.355581      0.689896
   48.455581      0.738771
   48.555581      0.698829
   48.655581      0.711296
   48.755581      0.722436
   48.855581      0.728244
   48.955581      0.756372
   49.055581      0.709939
   49.155581      0.710542
   49.255581      0.688693
   49.355581      0.715190
   49.455581      0.700959
   49.555581      0.710524
   49.655581      0.717376
   49.755581      0.686170
   49.855581      0.734769
   49.955581      0.691152
   50.055581      0.696175
   50.155581      0.724197
   50.255581      0.682435
   50.355581      0.713210
   50.455581      0.696138
   50.555581      0.720162
   50.655581      0.684260
   50.755581      0.737137
   50.855581      0.679519
   50.955581      0.718402
   51.055581      0.702864
   51.155581      0.700530
   51.255581      0.693087
   51.355581      0.689290
   51.455581      0.724786
   51.555581      0.697692
   51.655581      0.731356
   51.755581      0.682384
   51.855581      0.700924
   51.955581      0.713560
   52.055581      0.714931
   52.155581      0.708075
   52.255581      0.716553
   52.355581      0.735219
   52.455581      0.726649
   52.555581      0.726657
   52.655581      0.745278
   52.755581      0.705431
   52.855581      0.742880
   52.955581      0.748356
   53.055581      0.732570
   53.155581      0.721414
   53.255581      0.734263
   53.355581      0.709027
   53.455581      0.765819
   53.555581      0.733562
   53.655581      0.742007
   53.755581      0.736206
   53.855581      0.753927
   53.955581      0.729501
   54.055581      0.758673
   54.155581      0.755135
   54.255581      0.742384
   54.355581      0.745376
   54.455581      0.738829
   54.555581      0.720193
   54.655581      0.754447
   54.755581      0.738021
   54.855581      0.703762
   54.955581      0.762235
   55.055581      0.717596
   55.155581      0.755350
   55.255581      0.734563
   55.355581      0.714626
   55.455581      0.718152
   55.555581      0.716581
   55.655581      0.743444
   55.755581      0.747470
   55.855581      0.741009
   55.955581      0.742598
   56.055581      0.710087
   56.155581      0.779672
   56.255581      0.706313
   56.355581      0.747521
   56.455581      0.728487
   56.555581      0.721904
   56.655581      0.729078
   56.755581      0.746656
   56.855581      0.715710
   56.955581      0.719893
   57.055581      0.726803
   57.155581      0.740653
   57.255581      0.738431
   57.355581      0.747012
   57.455581      0.753256
   57.555581      0.760055
   57.655581      0.734654
   57.755581      0.769789
   57.855581      0.761216
   57.955581      0.746532
   58.055581      0.748624
   58.155581      0.761774
   58.255581      0.776998
   58.355581      0.790284
   58.455581      0.766195
   58.555581      0.794562
   58.655581      0.831402
   58.755581      0.775741
   58.855581      0.784734
   58.955581      0.824875
   59.055581      0.755476
   59.155581      0.822580
   59.255581      0.810809
   59.355581      0.794368
   59.455581      0.822901
   59.555581      0.793737
   59.655581      0.802795
   59.755581      0.825830
   59.855581      0.820207
   59.955581      0.838774
   60.055581      0.766619
   60.155581      0.821223
   60.255581      0.822121
   60.355581      0.825490
   60.455581      0.824333
   60.555581      0.804923
   60.655581      0.814426
   60.755581      0.827214
   60.855581      0.817037
   60.955581      0.810526
   61.055581      0.809305
   61.155581      0.820752
   61.255581      0.846640
   61.355581      0.807788
   61.455581      0.842510
   61.555581      0.832458
   61.655581      0.788564
   61.755581      0.834298
   61.855581      0.821837
   61.955581      0.830602
   62.055581      0.806266
   62.155581      0.790634
   62.255581      0.831133
   62.355581      0.821783
   62.455581      0.834925
   62.555581      0.804286
   62.655581      0.859919
   62.755581      0.858336
   62.855581      0.824936
   62.955581      0.845198
   63.055581      0.861524
   63.155581      0.855944
   63.255581      0.910732
   63.355581      0.820500
   63.455581      0.879833
   63.555581      0.889518
   63.655581      0.910117
   63.755581      0.872342
   63.855581      0.891963
   63.955581      0.904995
   64.055581      0.923412
   64.155581      0.883279
   64.255581      0.915196
   64.355581      0.884269