-47.2585    0.008271
-47.1585    0.002977
-47.0585    0.004257
-46.9585    0.004468
-46.8585    0.004523
-46.7585    0.005493
-46.6585    0.007719
-46.5585    0.0062120000000000005
-46.4585    0.007718
-46.3585    0.007832
-46.2585    0.007030000000000001
-46.1585    0.005998
-46.0585    0.00458
-45.9585    0.0059169999999999995
-45.8585    0.004028
-45.7585    0.004481000000000001
-45.6585    0.00317
-45.5585    0.002437
-45.4585    0.00183
-45.3585    0.001485
-45.2585    0.001304
-45.1585    0.00027
-45.0585    0.000507
-44.9585    0.000316
-44.8585    0.000122
-44.7585    0.0
-44.6585    0.00017999999999999998
-44.5585    0.0
-44.4585    0.0
-44.3585    0.0
-44.2585    0.0
-44.1585    0.00015
-44.0585    0.0
-43.9585    0.0
-43.8585    0.0
-43.7585    0.0
-43.6585    0.0
-43.5585    0.0
-43.4585    0.0
-43.3585    0.0
-43.2585    0.0
-43.1585    0.0
-43.0585    0.0
-42.9585    0.0
-42.8585    0.0
-42.7585    0.0
-42.6585    0.0
-42.5585    0.0
-42.4585    0.0
-42.3585    0.0
-42.2585    0.0
-42.1585    0.0
-42.0585    0.0
-41.9585    0.0
-41.8585    0.0
-41.7585    0.0
-41.6585    0.0
-41.5585    0.0
-41.4585    0.0
-41.3585    0.0
-41.2585    0.0
-41.1585    0.0
-41.0585    0.0
-40.9585    0.0
-40.8585    0.0
-40.7585    0.0
-40.6585    0.0
-40.5585    0.0
-40.4585    0.0
-40.3585    0.0
-40.2585    0.0
-40.1585    0.0
-40.0585    0.0
-39.9585    0.0
-39.8585    0.0
-39.7585    0.0
-39.6585    0.0
-39.5585    0.0
-39.4585    0.0
-39.3585    0.0
-39.2585    0.0
-39.1585    0.0
-39.0585    0.0
-38.9585    0.0
-38.8585    0.0
-38.7585    0.0
-38.6585    0.0
-38.5585    0.0
-38.4585    0.0
-38.3585    0.0
-38.2585    0.0
-38.1585    0.0
-38.0585    0.0
-37.9585    0.0
-37.8585    0.0
-37.7585    0.0
-37.6585    0.0
-37.5585    0.0
-37.4585    0.0
-37.3585    0.0
-37.2585    0.0
-37.1585    0.0
-37.0585    0.0
-36.9585    0.0
-36.8585    0.0
-36.7585    0.0
-36.6585    0.0
-36.5585    0.0
-36.4585    0.0
-36.3585    0.0
-36.2585    0.0
-36.1585    0.0
-36.0585    0.0
-35.9585    0.0
-35.8585    0.0
-35.7585    0.0
-35.6585    0.0
-35.5585    0.0
-35.4585    0.0
-35.3585    0.0
-35.2585    0.0
-35.1585    0.0
-35.0585    0.0
-34.9585    0.0
-34.8585    0.0
-34.7585    0.0
-34.6585    0.0
-34.5585    0.0
-34.4585    0.0
-34.3585    0.0
-34.2585    0.0
-34.1585    0.0
-34.0585    0.0
-33.9585    0.0
-33.8585    0.0
-33.7585    0.0
-33.6585    0.0
-33.5585    0.0
-33.4585    0.0
-33.3585    0.0
-33.2585    0.0
-33.1585    0.0
-33.0585    0.0
-32.9585    0.0
-32.8585    0.0
-32.7585    0.0
-32.6585    0.0
-32.5585    0.0
-32.4585    0.0
-32.3585    0.0
-32.2585    0.0
-32.1585    0.0
-32.0585    0.0
-31.9585    0.0
-31.8585    0.0
-31.7585    1.4000000000000001e-05
-31.6585    2e-06
-31.5585    2.1000000000000002e-05
-31.4585    0.0
-31.3585    2e-05
-31.2585    2.8000000000000003e-05
-31.1585    1.9e-05
-31.0585    9.2e-05
-30.9585    0.00022700000000000002
-30.8585    0.000268
-30.7585    0.00029600000000000004
-30.6585    0.000454
-30.5585    0.000596
-30.4585    0.0010799999999999998
-30.3585    0.001178
-30.2585    0.0012269999999999998
-30.1585    0.0016630000000000002
-30.0585    0.0016809999999999998
-29.9585    0.001742
-29.8585    0.001953
-29.7585    0.002039
-29.6585    0.002023
-29.5585    0.001783
-29.4585    0.00174
-29.3585    0.0017350000000000002
-29.2585    0.0013179999999999997
-29.1585    0.001173
-29.0585    0.001166
-28.9585    0.0007390000000000001
-28.8585    0.000685
-28.7585    0.000642
-28.6585    0.000517
-28.5585    0.000581
-28.4585    0.000473
-28.3585    0.0007750000000000001
-28.2585    0.0008449999999999999
-28.1585    0.000942
-28.0585    0.001019
-27.9585    0.001054
-27.8585    0.0013800000000000002
-27.7585    0.001591
-27.6585    0.001653
-27.5585    0.001666
-27.4585    0.001933
-27.3585    0.0017140000000000002
-27.2585    0.0017660000000000002
-27.1585    0.0017330000000000002
-27.0585    0.001566
-26.9585    0.001599
-26.8585    0.0013570000000000001
-26.7585    0.001258
-26.6585    0.005543
-26.5585    0.009804
-26.4585    0.000988
-26.3585    0.018323
-26.2585    0.023809999999999998
-26.1585    0.04833
-26.0585    0.053301
-25.9585    0.080041
-25.8585    0.132957
-25.7585    0.19081399999999998
-25.6585    0.234927
-25.5585    0.261731
-25.4585    0.39059999999999995
-25.3585    0.550694
-25.2585    0.617488
-25.1585    0.635203
-25.0585    0.724038
-24.9585    0.840435
-24.8585    0.8050379999999999
-24.7585    0.8143179999999999
-24.6585    0.73314
-24.5585    0.730766
-24.4585    0.6895640000000001
-24.3585    0.673035
-24.2585    0.544373
-24.1585    0.41640699999999997
-24.0585    0.379601
-23.9585    0.249946
-23.8585    0.198302
-23.7585    0.184164
-23.6585    0.123157
-23.5585    0.047518000000000005
-23.4585    0.06799
-23.3585    0.054918
-23.2585    0.062919
-23.1585    0.058895
-23.0585    0.093306
-22.9585    0.12284099999999999
-22.8585    0.18077100000000002
-22.7585    0.290746
-22.6585    0.392517
-22.5585    0.543829
-22.4585    0.662355
-22.3585    0.9326160000000001
-22.2585    0.934976
-22.1585    1.078476
-22.0585    1.27261
-21.9585    1.403319
-21.8585    1.4966089999999999
-21.7585    1.4419279999999999
-21.6585    1.587038
-21.5585    1.340773
-21.4585    1.3872900000000001
-21.3585    1.3784580000000002
-21.2585    1.123576
-21.1585    1.120476
-21.0585    0.9013929999999999
-20.9585    0.770389
-20.8585    0.571816
-20.7585    0.51483
-20.6585    0.39401200000000003
-20.5585    0.246747
-20.4585    0.221148
-20.3585    0.19555
-20.2585    0.096413
-20.1585    0.107044
-20.0585    0.049418000000000004
-19.9585    0.031318
-19.8585    0.039536999999999996
-19.7585    0.005745999999999999
-19.6585    0.0052
-19.5585    0.00469
-19.4585    0.004009
-19.3585    0.0006169999999999999
-19.2585    0.000172
-19.1585    8.499999999999999e-05
-19.0585    0.000109
-18.9585    8.2e-05
-18.8585    0.004282
-18.7585    0.00010400000000000001
-18.6585    0.000164
-18.5585    0.000177
-18.4585    0.000195
-18.3585    0.000219
-18.2585    0.000291
-18.1585    0.00035800000000000003
-18.0585    0.00030999999999999995
-17.9585    0.000435
-17.8585    0.000392
-17.7585    0.000362
-17.6585    0.000358
-17.5585    0.000352
-17.4585    0.00039600000000000003
-17.3585    0.00033
-17.2585    0.00029600000000000004
-17.1585    0.000367
-17.0585    0.000175
-16.9585    0.00022400000000000002
-16.8585    0.000138
-16.7585    0.000151
-16.6585    0.000137
-16.5585    8.300000000000001e-05
-16.4585    4.8e-05
-16.3585    4.4e-05
-16.2585    0.007965999999999999
-16.1585    0.004011
-16.0585    0.007979
-15.9585    0.028020999999999997
-15.8585    0.040128
-15.7585    0.076098
-15.6585    0.14794400000000002
-15.5585    0.248042
-15.4585    0.32839700000000005
-15.3585    0.36024500000000004
-15.2585    0.552953
-15.1585    0.6326930000000001
-15.0585    0.748445
-14.9585    0.847119
-14.8585    0.845271
-14.7585    0.8266519999999999
-14.6585    0.906757
-14.5585    0.7545310000000001
-14.4585    0.6926450000000001
-14.3585    0.585677
-14.2585    0.482291
-14.1585    0.38549300000000003
-14.0585    0.218917
-13.9585    0.17419400000000002
-13.8585    0.205103
-13.7585    0.102336
-13.6585    0.09146399999999999
-13.5585    0.072333
-13.4585    0.063325
-13.3585    0.067481
-13.2585    0.102534
-13.1585    0.15196900000000002
-13.0585    0.168126
-12.9585    0.290513
-12.8585    0.460432
-12.7585    0.648919
-12.6585    0.6609560000000001
-12.5585    0.789503
-12.4585    0.810432
-12.3585    0.990742
-12.2585    0.930745
-12.1585    1.030939
-12.0585    0.8994679999999999
-11.9585    0.654991
-11.8585    0.652304
-11.7585    0.47937
-11.6585    0.44606399999999996
-11.5585    0.24273499999999998
-11.4585    0.20882299999999998
-11.3585    0.22264
-11.2585    0.266251
-11.1585    0.285835
-11.0585    0.260252
-10.9585    0.402917
-10.8585    0.440198
-10.7585    0.5584169999999999
-10.6585    0.7740659999999999
-10.5585    0.758757
-10.4585    0.973012
-10.3585    1.038039
-10.2585    1.107558
-10.1585    1.29358
-10.0585    1.25879
-9.95851    1.2992249999999999
-9.8585    1.414275
-9.7585    1.407275
-9.6585    1.390751
-9.55851    1.403534
-9.45851    1.253815
-9.3585    1.231718
-9.2585    1.090798
-9.1585    0.931974
-9.05851    0.8201320000000001
-8.95851    0.650522
-8.8585    0.504637
-8.7585    0.385747
-8.6585    0.286404
-8.55851    0.223501
-8.45851    0.242458
-8.3585    0.256731
-8.2585    0.302914
-8.1585    0.522111
-8.05851    0.52666
-7.9585    0.780548
-7.85851    0.919903
-7.75851    1.131435
-7.65851    1.30476
-7.55851    1.487835
-7.4585    1.627963
-7.35851    1.7651029999999999
-7.25851    1.814073
-7.15851    1.754425
-7.05851    1.893932
-6.9585    1.8590589999999998
-6.85851    1.81125
-6.75851    1.7875420000000002
-6.65851    1.755949
-6.55851    1.758908
-6.4585    1.620292
-6.35851    1.708841
-6.25851    1.585609
-6.15851    1.616921
-6.05851    1.715244
-5.9585    1.678331
-5.85851    1.616697
-5.75851    1.73108
-5.65851    1.567427
-5.55851    1.7637999999999998
-5.4585    1.8327719999999998
-5.35851    1.978599
-5.25851    1.97026
-5.1585    2.044767
-5.05851    2.016032
-4.9585    2.0336629999999998
-4.85851    2.11033
-4.75851    2.196722
-4.6585    2.2435
-4.55851    2.201616
-4.4585    2.208366
-4.35851    2.162874
-4.25851    2.290555
-4.1585    2.037216
-4.05851    2.143757
-3.95851    2.2994499999999998
-3.8585    2.263868
-3.7585    2.387536
-3.6585    2.341723
-3.5585    2.416746
-3.45851    2.3214069999999998
-3.3585    2.39704
-3.2585    2.444565
-3.1585    2.335246
-3.0585    2.325385
-2.95851    2.291637
-2.8585    2.247044
-2.7585    2.175982
-2.6585    2.19109
-2.5585    2.11462
-2.45851    2.149941
-2.35851    2.182646
-2.2585    2.251277
-2.1585    2.368337
-2.0585    2.448843
-1.9585    2.457052
-1.85851    2.556941
-1.75851    2.742248
-1.6585    2.829179
-1.55851    2.725254
-1.4585    2.711929
-1.35851    2.616146
-1.2585    2.56857
-1.1585    2.271883
-1.05851    2.078319
-0.958505    1.842849
-0.858505    1.3868580000000001
-0.758505    1.235661
-0.658505    1.036082
-0.558505    0.7498549999999999
-0.458505    0.656002
-0.358505    0.402806
-0.258505    0.340972
-0.158505    0.238868
-0.058505    0.174805
0.041495    0.116578
0.141495    0.065944
0.241495    0.056625999999999996
0.341495    0.018688
0.441495    0.015819
0.541495    0.009328
0.641495    0.002046
0.741495    0.003814
0.841495    0.0045249999999999995
0.941495    0.000111
1.0415    3.8e-05
1.14149    0.0
1.2415    0.0
1.3415    0.0
1.44149    0.0
1.5415    0.0
1.64149    0.0
1.74149    0.0
1.8415    0.0
1.94149    0.0
2.04149    0.0
2.14149    0.0
2.2415    0.0
2.3415    0.0
2.4415    0.0
2.54149    0.0
2.64149    0.0
2.7415    0.0
2.8415    0.0
2.9415    0.0
3.04149    0.0
3.1415    0.0
3.2415    0.0
3.3415    0.0
3.4415    1.1e-05
3.54149    0.0
3.6415    1.7e-05
3.7415    0.0
3.8415    4.2000000000000004e-05
3.9415    0.000136
4.0415    8.8e-05
4.14149    0.000172
4.24149    0.000144
4.3415    0.000193
4.44149    0.000374
4.5415    0.000493
4.64149    0.000842
4.74149    0.0013479999999999998
4.8415    0.0016259999999999998
4.94149    0.001834
5.0415    0.0027749999999999997
5.14149    0.003123
5.24149    0.008674000000000001
5.34149    0.008097
5.44149    0.013894
5.5415    0.022932
5.64149    0.05815000000000001
5.74149    0.076671
5.84149    0.11879699999999999
5.94149    0.170657
6.0415    0.19489
6.14149    0.264623
6.24149    0.342676
6.34149    0.46923299999999996
6.44149    0.600346
6.5415    0.7191719999999999
6.64149    0.7660089999999999
6.74149    0.894514
6.84149    0.9077750000000001
6.94149    1.0141149999999999
7.0415    1.043872
7.14149    0.951265
7.24149    1.009976
7.34149    0.9018870000000001
7.44149    0.844319
7.5415    0.791095
7.64149    0.775029
7.74149    0.7662100000000001
7.84149    0.666317
7.94149    0.6573960000000001
8.04149    0.6093120000000001
8.1415    0.58373
8.2415    0.557832
8.3415    0.487665
8.44149    0.450335
8.54149    0.404976
8.6415    0.42102700000000004
8.7415    0.396676
8.8415    0.407598
8.94149    0.40302400000000005
9.04149    0.416306
9.1415    0.432605
9.2415    0.44710300000000003
9.3415    0.5042340000000001
9.44149    0.5580940000000001
9.54149    0.580727
9.6415    0.6245149999999999
9.7415    0.670373
9.8415    0.701247
9.94149    0.73821
10.0415    0.7745160000000001
10.1415    0.7976369999999999
10.2415    0.810085
10.3415    0.8417290000000001
10.4415    0.8366659999999999
10.5415    0.874666
10.6415    0.9015270000000001
10.7415    0.935386
10.8415    0.900882
10.9415    0.9340310000000001
11.0415    0.945754
11.1415    0.965015
11.2415    0.986231
11.3415    1.0135489999999998
11.4415    1.012178
11.5415    1.055218
11.6415    1.023822
11.7415    1.038737
11.8415    1.092705
11.9415    1.064659
12.0415    1.095358
12.1415    1.076121
12.2415    1.051707
12.3415    1.1043759999999998
12.4415    1.082891
12.5415    1.0748389999999999
12.6415    1.077377
12.7415    1.083675
12.8415    1.0169489999999999
12.9415    1.058058
13.0415    1.059534
13.1415    0.9882960000000001
13.2415    1.039251
13.3415    1.005757
13.4415    0.991973
13.5415    0.9918690000000001
13.6415    1.007812
13.7415    0.958626
13.8415    0.953179
13.9415    0.9772649999999999
14.0415    0.904704
14.1415    0.983174
14.2415    0.9528589999999999
14.3415    0.960098
14.4415    0.93
14.5415    0.9305080000000001
14.6415    0.905852
14.7415    0.8812249999999999
14.8415    0.9165490000000001
14.9415    0.9046080000000001
15.0415    0.9011720000000001
15.1415    0.879686
15.2415    0.891811
15.3415    0.902557
15.4415    0.9060410000000001
15.5415    0.91189
15.6415    0.895437
15.7415    0.9403579999999999
15.8415    0.934397
15.9415    0.932872
16.0415    0.9752780000000001
16.1415    0.959969
16.2415    0.9464300000000001
16.3415    0.981681
16.4415    0.988837
16.5415    1.015494
16.6415    1.0039770000000001
16.7415    1.012596
16.8415    1.012496
16.9415    1.019828
17.0415    1.026413
17.1415    1.0373869999999998
17.2415    1.016408
17.3415    1.020381
17.4415    1.015411
17.5415    1.009298
17.6415    0.968869
17.7415    0.9870049999999999
17.8415    0.9427459999999999
17.9415    0.985082
18.0415    0.9406650000000001
18.1415    0.9337230000000001
18.2415    0.931897
18.3415    0.9332450000000001
18.4415    0.924733
18.5415    0.923852
18.6415    0.905589
18.7415    0.88192
18.8415    0.9150749999999999
18.9415    0.8858440000000001
19.0415    0.8898790000000001
19.1415    0.9107879999999999
19.2415    0.8960269999999999
19.3415    0.89706
19.4415    0.870206
19.5415    0.905483
19.6415    0.886258
19.7415    0.899498
19.8415    0.9053930000000001
19.9415    0.912226
20.0415    0.879164
20.1415    0.8846859999999999
20.2415    0.9031290000000001
20.3415    0.879324
20.4415    0.887441
20.5415    0.8577779999999999
20.6415    0.8826080000000001
20.7415    0.875784
20.8415    0.8711599999999999
20.9415    0.8927590000000001
21.0415    0.86578
21.1415    0.868252
21.2415    0.825998
21.3415    0.861408
21.4415    0.8666069999999999
21.5415    0.840188
21.6415    0.823308
21.7415    0.846374
21.8415    0.822492
21.9415    0.832451
22.0415    0.8403099999999999
22.1415    0.817034
22.2415    0.7972349999999999
22.3415    0.80741
22.4415    0.798333
22.5415    0.803652
22.6415    0.783377
22.7415    0.830201
22.8415    0.790845
22.9415    0.790534
23.0415    0.793042
23.1415    0.7816609999999999
23.2415    0.816065
23.3415    0.7885880000000001
23.4415    0.7811790000000001
23.5415    0.796364
23.6415    0.793829
23.7415    0.797848
23.8415    0.7734300000000001
23.9415    0.799039
24.0415    0.7732429999999999
24.1415    0.8131170000000001
24.2415    0.780975
24.3415    0.796799
24.4415    0.799755
24.5415    0.789871
24.6415    0.8134030000000001
24.7415    0.78993
24.8415    0.822083
24.9415    0.8122590000000001
25.0415    0.8044
25.1415    0.8111919999999999
25.2415    0.831145
25.3415    0.7701499999999999
25.4415    0.8402609999999999
25.5415    0.818874
25.6415    0.816924
25.7415    0.802592
25.8415    0.835324
25.9415    0.8176269999999999
26.0415    0.819586
26.1415    0.823744
26.2415    0.826918
26.3415    0.824785
26.4415    0.824886
26.5415    0.8308500000000001
26.6415    0.8263389999999999
26.7415    0.860774
26.8415    0.827575
26.9415    0.8077529999999999
27.0415    0.844636
27.1415    0.817229
27.2415    0.8450390000000001
27.3415    0.8154699999999999
27.4415    0.8640429999999999
27.5415    0.816764
27.6415    0.830281
27.7415    0.8355049999999999
27.8415    0.8361430000000001
27.9415    0.834315
28.0415    0.8208679999999999
28.1415    0.8502339999999999
28.2415    0.843941
28.3415    0.82874
28.4415    0.856778
28.5415    0.8308070000000001
28.6415    0.800519
28.7415    0.836855
28.8415    0.840749
28.9415    0.8349530000000001
29.0415    0.813303
29.1415    0.838268
29.2415    0.8034330000000001
29.3415    0.839663
29.4415    0.8244370000000001
29.5415    0.828551
29.6415    0.825628
29.7415    0.818774
29.8415    0.832878
29.9415    0.8095110000000001
30.0415    0.8311489999999999
30.1415    0.8374900000000001
30.2415    0.795367
30.3415    0.852881
30.4415    0.8091410000000001
30.5415    0.839254
30.6415    0.8044119999999999
30.7415    0.813728
30.8415    0.7973
30.9415    0.7987770000000001
31.0415    0.819589
31.1415    0.8241430000000001
31.2415    0.813105
31.3415    0.814656
31.4415    0.79756
31.5415    0.8094049999999999
31.6415    0.809078
31.7415    0.796864
31.8415    0.809107
31.9415    0.8167599999999999
32.0415    0.808586
32.1415    0.796474
32.2415    0.798122
32.3415    0.800173
32.4415    0.785128
32.5415    0.8015920000000001
32.6415    0.8189420000000001
32.7415    0.820762
32.8415    0.800242
32.9415    0.783196
33.0415    0.7911710000000001
33.1415    0.804453
33.2415    0.7628349999999999
33.3415    0.822068
33.4415    0.7603310000000001
33.5415    0.7767649999999999
33.6415    0.80078
33.7415    0.778417
33.8415    0.7344090000000001
33.9415    0.8007059999999999
34.0415    0.766066
34.1415    0.778284
34.2415    0.769434
34.3415    0.774807
34.4415    0.768656
34.5415    0.769199
34.6415    0.7623679999999999
34.7415    0.756648
34.8415    0.7608379999999999
34.9415    0.753124
35.0415    0.738833
35.1415    0.7646
35.2415    0.749431
35.3415    0.733725
35.4415    0.780323
35.5415    0.735515
35.6415    0.752527
35.7415    0.7602979999999999
35.8415    0.7410970000000001
35.9415    0.763301
36.0415    0.726475
36.1415    0.734945
36.2415    0.7413989999999999
36.3415    0.733086
36.4415    0.7078549999999999
36.5415    0.749552
36.6415    0.7227939999999999
36.7415    0.747614
36.8415    0.7173039999999999
36.9415    0.751468
37.0415    0.7292829999999999
37.1415    0.7116750000000001
37.2415    0.737804
37.3415    0.707105
37.4415    0.719611
37.5415    0.738086
37.6415    0.7100120000000001
37.7415    0.7198819999999999
37.8415    0.712255
37.9415    0.7198610000000001
38.0415    0.7172069999999999
38.1415    0.742456
38.2415    0.703569
38.3415    0.726368
38.4415    0.723665
38.5415    0.70265
38.6415    0.729461
38.7415    0.726225
38.8415    0.7204470000000001
38.9415    0.71824
39.0415    0.705923
39.1415    0.7073050000000001
39.2415    0.737641
39.3415    0.7190799999999999
39.4415    0.714433
39.5415    0.722482
39.6415    0.713526
39.7415    0.725729
39.8415    0.673708
39.9415    0.726651
40.0415    0.701648
40.1415    0.7182550000000001
40.2415    0.705972
40.3415    0.70069
40.4415    0.696782
40.5415    0.6827350000000001
40.6415    0.7043299999999999
40.7415    0.71475
40.8415    0.6737219999999999
40.9415    0.67307
41.0415    0.686677
41.1415    0.6757709999999999
41.2415    0.6936169999999999
41.3415    0.6851670000000001
41.4415    0.6910179999999999
41.5415    0.645992
41.6415    0.667636
41.7415    0.6531009999999999
41.8415    0.668857
41.9415    0.647452
42.0415    0.628116
42.1415    0.649194
42.2415    0.648967
42.3415    0.6260760000000001
42.4415    0.598462
42.5415    0.6345179999999999
42.6415    0.6090139999999999
42.7415    0.591531
42.8415    0.621788
42.9415    0.593604
43.0415    0.6047899999999999
43.1415    0.58641
43.2415    0.572119
43.3415    0.596581
43.4415    0.5714250000000001
43.5415    0.584263
43.6415    0.581739
43.7415    0.572627
43.8415    0.5842
43.9415    0.564263
44.0415    0.552994
44.1415    0.584449
44.2415    0.5315479999999999
44.3415    0.565841
44.4415    0.569821
44.5415    0.558719
44.6415    0.535418
44.7415    0.53964
44.8415    0.545938
44.9415    0.5630109999999999
45.0415    0.54576
45.1415    0.5355179999999999
45.2415    0.553415
45.3415    0.537604
45.4415    0.543993
45.5415    0.540678
45.6415    0.537488
45.7415    0.5175080000000001
45.8415    0.564269
45.9415    0.5540020000000001
46.0415    0.538802
46.1415    0.529208
46.2415    0.5335070000000001
46.3415    0.5480309999999999
46.4415    0.553245
46.5415    0.532402
46.6415    0.547342
46.7415    0.53512
46.8415    0.545084
46.9415    0.540504
47.0415    0.528472
47.1415    0.530112
47.2415    0.562299
47.3415    0.550102
47.4415    0.524181
47.5415    0.518934
47.6415    0.528981
47.7415    0.55098
47.8415    0.510764
47.9415    0.553554
48.0415    0.5199929999999999
48.1415    0.526224
48.2415    0.540127
48.3415    0.520123
48.4415    0.50868
48.5415    0.518716
48.6415    0.518761
48.7415    0.523049
48.8415    0.515381
48.9415    0.524463
49.0415    0.520222
49.1415    0.502687
49.2415    0.5170790000000001
49.3415    0.516629
49.4415    0.498139
49.5415    0.513063
49.6415    0.5098659999999999
49.7415    0.49979700000000005
49.8415    0.497328
49.9415    0.523692
50.0415    0.496595
50.1415    0.480274
50.2415    0.520797
50.3415    0.505862
50.4415    0.493487
50.5415    0.5118
50.6415    0.497255
50.7415    0.49505600000000005
50.8415    0.498518
50.9415    0.51108
51.0415    0.516075
51.1415    0.5019399999999999
51.2415    0.50687
51.3415    0.5024150000000001
51.4415    0.508543
51.5415    0.5121819999999999
51.6415    0.506102
51.7415    0.49722299999999997
51.8415    0.50893
51.9415    0.512301
52.0415    0.52068
52.1415    0.5134960000000001
52.2415    0.5098590000000001
52.3415    0.516189
52.4415    0.5129900000000001
52.5415    0.515366
52.6415    0.51827
52.7415    0.531112
52.8415    0.507939
52.9415    0.507224
53.0415    0.5251250000000001
53.1415    0.52931
53.2415    0.519954
53.3415    0.5449120000000001
53.4415    0.513586
53.5415    0.529337
53.6415    0.518636
53.7415    0.539965
53.8415    0.540053
53.9415    0.525003
54.0415    0.51848
54.1415    0.526459
54.2415    0.54588
54.3415    0.516467
54.4415    0.540838
54.5415    0.527933
54.6415    0.5272410000000001
54.7415    0.537172
54.8415    0.515212
54.9415    0.5317240000000001
55.0415    0.54301
55.1415    0.517202
55.2415    0.5317810000000001
55.3415    0.522211
55.4415    0.5066710000000001
55.5415    0.536332
55.6415    0.535129
55.7415    0.529995
55.8415    0.5203770000000001
55.9415    0.53711
56.0415    0.516027
56.1415    0.527453
56.2415    0.5362770000000001
56.3415    0.514344
56.4415    0.512918
56.5415    0.546554
56.6415    0.522459
56.7415    0.5432049999999999
56.8415    0.526526
56.9415    0.526971
57.0415    0.535115
57.1415    0.530011
57.2415    0.5314
57.3415    0.534345
57.4415    0.539663
57.5415    0.540729
57.6415    0.5374950000000001
57.7415    0.5431210000000001
57.8415    0.545857
57.9415    0.52842
58.0415    0.557778
58.1415    0.555299
58.2415    0.548608
58.3415    0.568052
58.4415    0.562856
58.5415    0.559255
58.6415    0.5624790000000001
58.7415    0.568477
58.8415    0.583217
58.9415    0.568809
59.0415    0.578364
59.1415    0.590185
59.2415    0.586463
59.3415    0.594711
59.4415    0.591439
59.5415    0.585359
59.6415    0.601145
59.7415    0.580118
59.8415    0.5925309999999999
59.9415    0.5924969999999999
60.0415    0.599939
60.1415    0.6164780000000001
60.2415    0.594082
60.3415    0.585594
60.4415    0.610192
60.5415    0.575755
60.6415    0.5988249999999999
60.7415    0.605271
60.8415    0.59358
60.9415    0.604032
61.0415    0.5974710000000001
61.1415    0.590821
61.2415    0.6113999999999999
61.3415    0.605678
61.4415    0.613343
61.5415    0.594944
61.6415    0.606346
61.7415    0.607858
61.8415    0.6065699999999999
61.9415    0.626212
62.0415    0.6279859999999999
62.1415    0.602123
62.2415    0.634547
62.3415    0.622857
62.4415    0.608074
62.5415    0.6055740000000001
62.6415    0.6012390000000001
62.7415    0.638614
62.8415    0.618247
62.9415    0.59336
63.0415    0.64642
63.1415    0.636234
63.2415    0.646586
63.3415    0.632853
63.4415    0.62493
63.5415    0.636517
63.6415    0.6581769999999999
63.7415    0.639823
63.8415    0.638242
63.9415    0.638549
64.0415    0.653401
64.1415    0.6569149999999999
64.2415    0.6553610000000001
64.3415    0.655408
64.4415    0.640144
64.5415    0.659623
64.6415    0.6803710000000001
64.7415    0.6305130000000001
64.8415    0.650973
64.9415    0.634784
65.0415    0.6473519999999999
65.1415    0.659774
65.2415    0.656896
65.3415    0.658543
65.4415    0.648305
65.5415    0.618855
65.6415    0.654851
65.7415    0.61214
65.8415    0.626201
65.9415    0.614332
66.0415    0.62569
66.1415    0.593782
66.2415    0.604989
66.3415    0.606408
66.4415    0.5878439999999999
66.5415    0.6090040000000001
66.6415    0.598661
66.7415    0.590346
66.8415    0.57844
66.9415    0.583374
67.0415    0.586658
67.1415    0.565215
67.2415    0.585511
67.3415    0.572281
67.4415    0.5709730000000001
67.5415    0.553886
67.6415    0.542864
67.7415    0.526543
67.8415    0.530922
67.9415    0.5293890000000001
68.0415    0.521593
68.1415    0.523835
68.2415    0.502309
68.3415    0.499998
68.4415    0.518112
68.5415    0.48299899999999996
68.6415    0.466333
68.7415    0.47662800000000005
68.8415    0.45989699999999994
68.9415    0.466016
69.0415    0.445487
69.1415    0.452749
69.2415    0.449305
69.3415    0.426725
69.4415    0.413414
69.5415    0.447846
69.6415    0.401767
69.7415    0.410624
69.8415    0.418152
69.9415    0.402281
70.0415    0.413987
70.1415    0.401176
70.2415    0.395897
70.3415    0.400922
70.4415    0.396797
70.5415    0.39609500000000003
70.6415    0.40517099999999995
70.7415    0.402402
70.8415    0.41319700000000004
70.9415    0.375709
71.0415    0.375432
71.1415    0.423226
71.2415    0.380261
71.3415    0.384539
71.4415    0.405808
71.5415    0.41507700000000003
71.6415    0.38029
71.7415    0.39191000000000004
71.8415    0.388927
71.9415    0.38347499999999995
72.0415    0.399765
72.1415    0.418933
72.2415    0.391901
72.3415    0.38595899999999994
72.4415    0.384895
72.5415    0.374336
72.6415    0.390683
72.7415    0.37390100000000004
72.8415    0.365412
72.9415    0.375307
73.0415    0.373705
73.1415    0.36291700000000005
73.2415    0.381975
73.3415    0.371159
73.4415    0.345169
73.5415    0.362801
73.6415    0.331993
73.7415    0.36404800000000004
73.8415    0.33022799999999997
73.9415    0.322457
74.0415    0.324372
74.1415    0.34597200000000006
74.2415    0.332047
74.3415    0.312624
74.4415    0.309629
74.5415    0.312069
74.6415    0.3103
74.7415    0.298971
74.8415    0.29374100000000003
74.9415    0.303435
75.0415    0.274679
75.1415    0.28844600000000004
75.2415    0.279754
75.3415    0.277467
75.4415    0.259617
75.5415    0.266434
75.6415    0.26206799999999997
75.7415    0.25914400000000004
75.8415    0.24726700000000001
75.9415    0.230763
76.0415    0.256106
76.1415    0.23165999999999998
76.2415    0.230394
76.3415    0.221395
76.4415    0.21996
76.5415    0.221667
76.6415    0.231228
76.7415    0.226074
76.8415    0.21352
76.9415    0.21689799999999998
77.0415    0.21757900000000002
77.1415    0.219476
77.2415    0.234883
77.3415    0.228259
77.4415    0.212953
77.5415    0.24156999999999998
77.6415    0.219901
77.7415    0.233449
77.8415    0.22748000000000002
77.9415    0.240056
78.0415    0.22961899999999996
78.1415    0.243638
78.2415    0.234787
78.3415    0.231572
78.4415    0.237365
78.5415    0.230683
78.6415    0.23001400000000002
78.7415    0.264652
78.8415    0.238533
78.9415    0.242896
79.0415    0.238751
79.1415    0.25133
79.2415    0.23149999999999998
79.3415    0.23924099999999998
79.4415    0.243323
79.5415    0.25074799999999997
79.6415    0.23925400000000002
79.7415    0.24468199999999998
79.8415    0.24878299999999998
79.9415    0.239452
80.0415    0.235313
80.1415    0.243618
80.2415    0.223279
80.3415    0.22263
80.4415    0.21588200000000002
80.5415    0.210304
80.6415    0.197141
80.7415    0.22487200000000002
80.8415    0.197247
80.9415    0.200326
81.0415    0.18752000000000002
81.1415    0.186014
81.2415    0.17835299999999998
81.3415    0.18395
81.4415    0.157971
81.5415    0.161938
81.6415    0.16950700000000002
81.7415    0.139368
81.8415    0.15148999999999999
81.9415    0.140217
82.0415    0.134078
82.1415    0.132026
82.2415    0.133572
82.3415    0.124653
82.4415    0.127309
82.5415    0.113713
82.6415    0.10908
82.7415    0.109363
82.8415    0.10772899999999999
82.9415    0.09468
83.0415    0.10116
83.1415    0.09540699999999999
83.2415    0.0979
83.3415    0.096665
83.4415    0.105215
83.5415    0.09415000000000001
83.6415    0.09148200000000001
83.7415    0.097776
83.8415    0.094576
83.9415    0.100495
84.0415    0.097991
84.1415    0.093225
84.2415    0.092168
84.3415    0.10633600000000001
84.4415    0.111925
84.5415    0.090685
84.6415    0.10648099999999999
84.7415    0.113978
84.8415    0.112098
84.9415    0.129025
85.0415    0.13517
85.1415    0.144355
85.2415    0.13951799999999998
85.3415    0.142301
85.4415    0.152482
85.5415    0.164746
85.6415    0.15597499999999997
85.7415    0.15729300000000002
85.8415    0.161287
85.9415    0.174103
86.0415    0.155666
86.1415    0.171135
86.2415    0.161666
86.3415    0.165209
86.4415    0.188226
86.5415    0.16717900000000002
86.6415    0.19256800000000002
86.7415    0.15829300000000002
86.8415    0.17299499999999998
86.9415    0.16081299999999998
87.0415    0.136156
87.1415    0.155371
87.2415    0.163998