  -45.788650      0.025871
  -45.688650      0.000000
  -45.588650      0.000000
  -45.488650      0.000000
  -45.388650      0.000000
  -45.288650      0.000000
  -45.188650      0.000000
  -45.088650      0.000000
  -44.988650      0.000000
  -44.888650      0.000000
  -44.788650      0.000000
  -44.688650      0.000000
  -44.588650      0.000000
  -44.488650      0.000000
  -44.388650      0.000000
  -44.288650      0.000000
  -44.188650      0.000000
  -44.088650      0.000000
  -43.988650      0.000000
  -43.888650      0.000000
  -43.788650      0.000000
  -43.688650      0.000000
  -43.588650      0.000000
  -43.488650      0.000000
  -43.388650      0.000000
  -43.288650      0.000000
  -43.188650      0.000000
  -43.088650      0.000000
  -42.988650      0.000000
  -42.888650      0.000000
  -42.788650      0.000000
  -42.688650      0.000000
  -42.588650      0.000000
  -42.488650      0.000000
  -42.388650      0.000000
  -42.288650      0.000000
  -42.188650      0.000000
  -42.088650      0.000000
  -41.988650      0.000000
  -41.888650      0.000000
  -41.788650      0.000000
  -41.688650      0.000000
  -41.588650      0.000000
  -41.488650      0.000000
  -41.388650      0.000000
  -41.288650      0.000000
  -41.188650      0.000000
  -41.088650      0.000000
  -40.988650      0.000000
  -40.888650      0.000000
  -40.788650      0.000000
  -40.688650      0.000000
  -40.588650      0.000000
  -40.488650      0.000000
  -40.388650      0.000000
  -40.288650      0.000000
  -40.188650      0.000000
  -40.088650      0.000000
  -39.988650      0.000000
  -39.888650      0.000000
  -39.788650      0.000000
  -39.688650      0.000000
  -39.588650      0.000000
  -39.488650      0.000000
  -39.388650      0.000000
  -39.288650      0.000000
  -39.188650      0.000000
  -39.088650      0.000000
  -38.988650      0.000000
  -38.888650      0.000000
  -38.788650      0.000000
  -38.688650      0.000000
  -38.588650      0.000000
  -38.488650      0.000000
  -38.388650      0.000000
  -38.288650      0.000000
  -38.188650      0.000000
  -38.088650      0.000000
  -37.988650      0.000000
  -37.888650      0.000000
  -37.788650      0.000000
  -37.688650      0.000000
  -37.588650      0.000000
  -37.488650      0.000000
  -37.388650      0.000000
  -37.288650      0.000000
  -37.188650      0.000000
  -37.088650      0.000000
  -36.988650      0.000000
  -36.888650      0.000000
  -36.788650      0.000000
  -36.688650      0.000000
  -36.588650      0.000000
  -36.488650      0.000000
  -36.388650      0.000000
  -36.288650      0.000000
  -36.188650      0.000000
  -36.088650      0.000000
  -35.988650      0.000000
  -35.888650      0.000000
  -35.788650      0.000000
  -35.688650      0.000000
  -35.588650      0.000000
  -35.488650      0.000000
  -35.388650      0.000000
  -35.288650      0.000000
  -35.188650      0.000000
  -35.088650      0.000000
  -34.988650      0.000000
  -34.888650      0.000000
  -34.788650      0.000000
  -34.688650      0.000000
  -34.588650      0.000000
  -34.488650      0.000000
  -34.388650      0.000000
  -34.288650      0.000000
  -34.188650      0.000000
  -34.088650      0.000000
  -33.988650      0.000000
  -33.888650      0.000000
  -33.788650      0.000000
  -33.688650      0.000000
  -33.588650      0.000000
  -33.488650      0.000000
  -33.388650      0.000000
  -33.288650      0.000000
  -33.188650      0.000000
  -33.088650      0.000000
  -32.988650      0.000000
  -32.888650      0.000000
  -32.788650      0.000000
  -32.688650      0.000000
  -32.588650      0.000000
  -32.488650      0.000000
  -32.388650      0.000000
  -32.288650      0.000000
  -32.188650      0.000000
  -32.088650      0.000000
  -31.988650      0.000000
  -31.888650      0.000000
  -31.788650      0.000000
  -31.688650      0.000000
  -31.588650      0.000000
  -31.488650      0.000000
  -31.388650      0.000000
  -31.288650      0.000000
  -31.188650      0.000000
  -31.088650      0.000000
  -30.988650      0.000000
  -30.888650      0.000000
  -30.788650      0.000000
  -30.688650      0.000000
  -30.588650      0.000000
  -30.488650      0.000000
  -30.388650      0.000000
  -30.288650      0.000000
  -30.188650      0.000000
  -30.088650      0.000000
  -29.988650      0.000000
  -29.888650      0.000000
  -29.788650      0.000000
  -29.688650      0.000000
  -29.588650      0.000000
  -29.488650      0.000000
  -29.388650      0.000000
  -29.288650      0.000000
  -29.188650      0.000000
  -29.088650      0.000000
  -28.988650      0.000000
  -28.888650      0.000000
  -28.788650      0.000000
  -28.688650      0.000000
  -28.588650      0.000000
  -28.488650      0.000000
  -28.388650      0.000000
  -28.288650      0.000000
  -28.188650      0.000000
  -28.088650      0.000000
  -27.988650      0.000000
  -27.888650      0.000000
  -27.788650      0.000000
  -27.688650      0.000000
  -27.588650      0.000000
  -27.488650      0.000000
  -27.388650      0.000000
  -27.288650      0.000000
  -27.188650      0.000000
  -27.088650      0.000000
  -26.988650      0.000000
  -26.888650      0.000000
  -26.788650      0.000000
  -26.688650      0.000000
  -26.588650      0.000000
  -26.488650      0.000000
  -26.388650      0.000000
  -26.288650      0.000000
  -26.188650      0.000000
  -26.088650      0.017774
  -25.988650      0.070972
  -25.888650      0.026730
  -25.788650      0.088824
  -25.688650      0.133470
  -25.588650      0.169178
  -25.488650      0.249249
  -25.388650      0.400760
  -25.288650      0.579435
  -25.188650      0.633268
  -25.088650      0.766514
  -24.988650      1.106068
  -24.888650      1.373689
  -24.788650      1.411183
  -24.688650      1.491177
  -24.588650      1.814229
  -24.488650      1.993566
  -24.388650      2.091329
  -24.288650      1.887216
  -24.188650      1.995628
  -24.088650      1.700260
  -23.988650      1.377964
  -23.888650      1.351168
  -23.788650      0.922135
  -23.688650      1.029373
  -23.588650      0.761832
  -23.488650      0.609275
  -23.388650      0.457158
  -23.288650      0.313569
  -23.188650      0.340970
  -23.088650      0.170518
  -22.988650      0.188762
  -22.888650      0.168833
  -22.788650      0.108260
  -22.688650      0.300710
  -22.588650      0.428935
  -22.488650      0.493136
  -22.388650      0.711195
  -22.288650      0.939944
  -22.188650      1.334203
  -22.088650      1.624001
  -21.988650      1.947036
  -21.888650      2.435460
  -21.788650      2.559142
  -21.688650      3.043696
  -21.588650      3.341110
  -21.488650      3.225612
  -21.388650      3.524663
  -21.288650      3.330672
  -21.188650      3.356641
  -21.088650      3.157201
  -20.988650      3.040977
  -20.888650      3.019752
  -20.788650      2.395893
  -20.688650      1.980860
  -20.588650      1.882108
  -20.488650      1.585024
  -20.388650      1.255827
  -20.288650      1.056764
  -20.188650      0.737013
  -20.088650      0.638333
  -19.988650      0.499363
  -19.888650      0.279141
  -19.788650      0.250545
  -19.688650      0.152169
  -19.588650      0.144516
  -19.488650      0.117550
  -19.388650      0.036897
  -19.288650      0.035916
  -19.188650      0.045710
  -19.088650      0.008504
  -18.988650      0.008414
  -18.888650      0.000000
  -18.788650      0.000000
  -18.688650      0.000000
  -18.588650      0.009345
  -18.488650      0.000000
  -18.388650      0.000000
  -18.288650      0.000000
  -18.188650      0.009294
  -18.088650      0.000000
  -17.988650      0.000000
  -17.888650      0.000000
  -17.788650      0.000000
  -17.688650      0.000000
  -17.588650      0.000000
  -17.488650      0.000000
  -17.388650      0.000000
  -17.288650      0.000000
  -17.188650      0.000000
  -17.088650      0.000000
  -16.988650      0.000000
  -16.888650      0.000000
  -16.788650      0.000000
  -16.688650      0.000000
  -16.588650      0.000000
  -16.488650      0.000000
  -16.388650      0.000000
  -16.288650      0.000000
  -16.188650      0.000000
  -16.088650      0.016037
  -15.988650      0.023984
  -15.888650      0.040110
  -15.788650      0.048137
  -15.688650      0.160244
  -15.588650      0.336607
  -15.488650      0.337156
  -15.388650      0.617200
  -15.288650      0.705600
  -15.188650      1.137903
  -15.088650      1.137868
  -14.988650      1.410183
  -14.888650      1.481975
  -14.788650      1.668830
  -14.688650      1.676198
  -14.588650      1.852053
  -14.488650      1.675951
  -14.388650      1.845522
  -14.288650      1.644719
  -14.188650      1.461045
  -14.088650      1.259970
  -13.988650      1.067205
  -13.888650      0.818329
  -13.788650      0.642892
  -13.688650      0.457832
  -13.588650      0.337535
  -13.488650      0.305451
  -13.388650      0.267475
  -13.288650      0.227513
  -13.188650      0.222377
  -13.088650      0.292131
  -12.988650      0.437768
  -12.888650      0.506995
  -12.788650      0.759071
  -12.688650      0.956665
  -12.588650      1.279221
  -12.488650      1.476874
  -12.388650      1.713950
  -12.288650      2.092179
  -12.188650      2.084047
  -12.088650      2.186497
  -11.988650      2.009190
  -11.888650      1.907386
  -11.788650      1.755949
  -11.688650      1.444036
  -11.588650      1.342477
  -11.488650      1.055659
  -11.388650      0.813639
  -11.288650      0.604167
  -11.188650      0.668604
  -11.088650      0.610343
  -10.988650      0.717868
  -10.888650      0.710266
  -10.788650      0.891364
  -10.688650      1.147628
  -10.588650      1.400053
  -10.488650      1.455886
  -10.388650      1.807604
  -10.288650      2.024205
  -10.188650      2.460684
  -10.088650      2.399089
   -9.988650      2.376985
   -9.888650      2.678749
   -9.788650      2.968705
   -9.688650      2.980350
   -9.588650      3.042769
   -9.488650      3.283175
   -9.388650      2.934369
   -9.288650      3.289992
   -9.188650      2.871770
   -9.088650      2.597447
   -8.988650      2.560953
   -8.888650      2.020927
   -8.788650      1.901013
   -8.688650      1.383033
   -8.588650      1.252893
   -8.488650      1.031134
   -8.388650      0.855376
   -8.288650      0.798033
   -8.188650      0.723727
   -8.088650      0.816826
   -7.988650      0.871215
   -7.888650      1.222275
   -7.788650      1.451482
   -7.688650      1.624998
   -7.588650      1.777654
   -7.488650      2.319319
   -7.388650      2.775087
   -7.288650      2.890256
   -7.188650      3.386974
   -7.088650      3.494801
   -6.988650      3.615203
   -6.888650      4.027940
   -6.788650      4.074197
   -6.688650      4.393323
   -6.588650      4.295169
   -6.488650      4.409529
   -6.388650      4.386661
   -6.288650      4.139767
   -6.188650      4.277943
   -6.088650      3.972478
   -5.988650      4.165294
   -5.888650      3.857073
   -5.788650      3.980200
   -5.688650      3.794419
   -5.588650      3.817385
   -5.488650      3.989062
   -5.388650      4.159746
   -5.288650      4.192711
   -5.188650      4.623486
   -5.088650      4.857510
   -4.988650      4.949839
   -4.888650      5.116954
   -4.788650      5.438941
   -4.688650      5.567161
   -4.588650      5.725135
   -4.488650      5.909734
   -4.388650      5.494015
   -4.288650      5.641422
   -4.188650      5.719078
   -4.088650      5.648857
   -3.988650      5.608977
   -3.888650      5.669034
   -3.788650      5.708323
   -3.688650      5.652461
   -3.588650      5.382105
   -3.488650      5.670579
   -3.388650      6.143667
   -3.288650      5.626479
   -3.188650      5.874440
   -3.088650      5.731090
   -2.988650      5.562697
   -2.888650      5.670337
   -2.788650      5.424645
   -2.688650      5.158081
   -2.588650      5.033316
   -2.488650      4.778688
   -2.388650      4.911350
   -2.288650      4.404529
   -2.188650      4.417843
   -2.088650      4.063844
   -1.988650      4.364605
   -1.888650      4.509085
   -1.788650      4.671497
   -1.688650      4.899039
   -1.588650      5.283331
   -1.488650      5.450993
   -1.388650      5.863945
   -1.288650      6.027949
   -1.188650      6.075606
   -1.088650      6.036732
   -0.988650      6.193528
   -0.888650      5.679235
   -0.788650      5.402188
   -0.688650      5.121579
   -0.588650      4.239044
   -0.488650      3.689581
   -0.388650      3.017483
   -0.288650      2.795382
   -0.188650      2.042956
   -0.088650      1.702494
    0.011350      1.156898
    0.111350      1.012442
    0.211350      0.601985
    0.311350      0.538332
    0.411350      0.340902
    0.511350      0.215551
    0.611350      0.142863
    0.711350      0.062392
    0.811350      0.117273
    0.911350      0.053960
    1.011350      0.035778
    1.111350      0.009012
    1.211350      0.000000
    1.311350      0.009116
    1.411350      0.000000
    1.511350      0.000000
    1.611350      0.000000
    1.711350      0.009219
    1.811350      0.000000
    1.911350      0.000000
    2.011350      0.000000
    2.111350      0.000000
    2.211350      0.000000
    2.311350      0.000000
    2.411350      0.000000
    2.511350      0.000000
    2.611350      0.000000
    2.711350      0.000000
    2.811350      0.000000
    2.911350      0.000000
    3.011350      0.000000
    3.111350      0.000000
    3.211350      0.000000
    3.311350      0.000000
    3.411350      0.000000
    3.511350      0.000000
    3.611350      0.000000
    3.711350      0.000000
    3.811350      0.000000
    3.911350      0.000000
    4.011350      0.000000
    4.111350      0.000000
    4.211350      0.000000
    4.311350      0.000000
    4.411350      0.000000
    4.511350      0.000000
    4.611350      0.000000
    4.711350      0.000000
    4.811350      0.000000
    4.911350      0.000000
    5.011350      0.000000
    5.111350      0.000000
    5.211350      0.000000
    5.311350      0.000000
    5.411350      0.008565
    5.511350      0.000000
    5.611350      0.000000
    5.711350      0.030511
    5.811350      0.048396
    5.911350      0.106497
    6.011350      0.173249
    6.111350      0.259301
    6.211350      0.343441
    6.311350      0.480174
    6.411350      0.614946
    6.511350      0.771253
    6.611350      0.973275
    6.711350      1.226847
    6.811350      1.646278
    6.911350      1.595429
    7.011350      2.041031
    7.111350      1.929770
    7.211350      2.003200
    7.311350      2.237395
    7.411350      2.018552
    7.511350      2.201038
    7.611350      2.084811
    7.711350      2.185693
    7.811350      2.200483
    7.911350      1.812693
    8.011350      1.774800
    8.111350      1.825229
    8.211350      1.606757
    8.311350      1.527157
    8.411350      1.595263
    8.511350      1.326281
    8.611350      1.204991
    8.711350      1.156082
    8.811350      1.186811
    8.911350      1.231132
    9.011350      1.130812
    9.111350      1.167093
    9.211350      1.211372
    9.311350      1.299485
    9.411350      1.276002
    9.511350      1.490276
    9.611350      1.449488
    9.711350      1.549630
    9.811350      1.653443
    9.911350      1.675970
   10.011350      1.818116
   10.111350      1.874352
   10.211350      1.945473
   10.311350      2.017986
   10.411350      2.059700
   10.511350      2.089907
   10.611350      2.165112
   10.711350      2.191100
   10.811350      2.180739
   10.911350      2.233532
   11.011350      2.191447
   11.111350      2.296870
   11.211350      2.212939
   11.311350      2.303859
   11.411350      2.347501
   11.511350      2.311363
   11.611350      2.383355
   11.711350      2.356275
   11.811350      2.295614
   11.911350      2.426045
   12.011350      2.427134
   12.111350      2.348769
   12.211350      2.409164
   12.311350      2.454880
   12.411350      2.387800
   12.511350      2.500535
   12.611350      2.363265
   12.711350      2.379392
   12.811350      2.426908
   12.911350      2.361028
   13.011350      2.466118
   13.111350      2.356871
   13.211350      2.322693
   13.311350      2.301502
   13.411350      2.312329
   13.511350      2.291982
   13.611350      2.320435
   13.711350      2.231115
   13.811350      2.272124
   13.911350      2.231507
   14.011350      2.203726
   14.111350      2.187370
   14.211350      2.220948
   14.311350      2.161863
   14.411350      2.212009
   14.511350      2.085163
   14.611350      2.197848
   14.711350      2.203803
   14.811350      2.191443
   14.911350      2.095038
   15.011350      2.199365
   15.111350      2.184412
   15.211350      2.131144
   15.311350      2.186816
   15.411350      2.190658
   15.511350      2.199399
   15.611350      2.257408
   15.711350      2.256822
   15.811350      2.301742
   15.911350      2.287205
   16.011350      2.270167
   16.111350      2.291614
   16.211350      2.369412
   16.311350      2.350726
   16.411350      2.419621
   16.511350      2.341170
   16.611350      2.540508
   16.711350      2.321163
   16.811350      2.428469
   16.911350      2.507431
   17.011350      2.373518
   17.111350      2.389545
   17.211350      2.429919
   17.311350      2.325670
   17.411350      2.434373
   17.511350      2.328077
   17.611350      2.373656
   17.711350      2.273909
   17.811350      2.372544
   17.911350      2.267037
   18.011350      2.318570
   18.111350      2.192532
   18.211350      2.113789
   18.311350      2.191879
   18.411350      2.119913
   18.511350      2.216810
   18.611350      2.106793
   18.711350      2.117547
   18.811350      2.012830
   18.911350      2.086089
   19.011350      2.104086
   19.111350      2.055291
   19.211350      2.078934
   19.311350      2.033437
   19.411350      1.996880
   19.511350      2.063616
   19.611350      1.996506
   19.711350      2.038163
   19.811350      2.008773
   19.911350      2.012901
   20.011350      2.034884
   20.111350      2.063922
   20.211350      2.026745
   20.311350      2.051733
   20.411350      2.031639
   20.511350      2.039571
   20.611350      2.070751
   20.711350      2.096499
   20.811350      2.021263
   20.911350      2.012945
   21.011350      2.030662
   21.111350      2.044005
   21.211350      2.023637
   21.311350      2.015213
   21.411350      1.983751
   21.511350      1.962021
   21.611350      2.044774
   21.711350      1.983696
   21.811350      1.922561
   21.911350      1.967108
   22.011350      1.937222
   22.111350      1.919959
   22.211350      2.004928
   22.311350      1.927230
   22.411350      1.855169
   22.511350      1.966262
   22.611350      1.876156
   22.711350      1.838442
   22.811350      1.898578
   22.911350      1.864626
   23.011350      1.849994
   23.111350      1.856127
   23.211350      1.937982
   23.311350      1.889216
   23.411350      1.818909
   23.511350      1.924864
   23.611350      1.854634
   23.711350      1.840911
   23.811350      1.928553
   23.911350      1.873794
   24.011350      1.844994
   24.111350      1.911218
   24.211350      1.848293
   24.311350      1.972938
   24.411350      1.889569
   24.511350      1.919622
   24.611350      1.904061
   24.711350      1.885056
   24.811350      1.944139
   24.911350      1.997573
   25.011350      1.964461
   25.111350      1.940805
   25.211350      1.992735
   25.311350      1.985495
   25.411350      2.043098
   25.511350      2.032517
   25.611350      2.066127
   25.711350      1.960556
   25.811350      2.006300
   25.911350      2.149903
   26.011350      2.020748
   26.111350      2.167732
   26.211350      2.019208
   26.311350      2.143719
   26.411350      2.080014
   26.511350      1.998644
   26.611350      2.166357
   26.711350      2.097793
   26.811350      2.033884
   26.911350      2.067066
   27.011350      2.102375
   27.111350      2.063263
   27.211350      2.230316
   27.311350      2.061022
   27.411350      2.134764
   27.511350      2.063178
   27.611350      2.175958
   27.711350      2.095683
   27.811350      2.015791
   27.911350      2.060185
   28.011350      2.138893
   28.111350      2.066077
   28.211350      2.141055
   28.311350      2.108018
   28.411350      2.126130
   28.511350      2.064810
   28.611350      2.115121
   28.711350      2.170139
   28.811350      2.032143
   28.911350      2.113752
   29.011350      2.022795
   29.111350      2.122205
   29.211350      2.138325
   29.311350      2.103711
   29.411350      2.050532
   29.511350      2.057737
   29.611350      2.111719
   29.711350      2.163449
   29.811350      2.054148
   29.911350      2.104120
   30.011350      2.044044
   30.111350      2.087231
   30.211350      2.136292
   30.311350      2.036920
   30.411350      2.067306
   30.511350      2.160997
   30.611350      2.081052
   30.711350      2.054537
   30.811350      2.044357
   30.911350      2.047702
   31.011350      2.058330
   31.111350      2.088935
   31.211350      1.957327
   31.311350      2.021427
   31.411350      2.099670
   31.511350      2.048930
   31.611350      2.046456
   31.711350      2.023036
   31.811350      2.001399
   31.911350      1.934889
   32.011350      2.077944
   32.111350      1.933495
   32.211350      2.014760
   32.311350      2.000444
   32.411350      1.937918
   32.511350      1.976155
   32.611350      1.988898
   32.711350      1.968814
   32.811350      1.943808
   32.911350      1.984595
   33.011350      1.883398
   33.111350      1.968973
   33.211350      1.936378
   33.311350      1.878184
   33.411350      1.962013
   33.511350      1.944121
   33.611350      1.855567
   33.711350      1.973767
   33.811350      1.823874
   33.911350      1.941729
   34.011350      1.915992
   34.111350      1.855191
   34.211350      1.882413
   34.311350      1.823971
   34.411350      1.787584
   34.511350      1.882161
   34.611350      1.948087
   34.711350      1.815374
   34.811350      1.773717
   34.911350      1.870807
   35.011350      1.814606
   35.111350      1.809399
   35.211350      1.849673
   35.311350      1.846389
   35.411350      1.825626
   35.511350      1.740326
   35.611350      1.745911
   35.711350      1.779338
   35.811350      1.806834
   35.911350      1.752711
   36.011350      1.796211
   36.111350      1.726116
   36.211350      1.777524
   36.311350      1.779023
   36.411350      1.724523
   36.511350      1.770666
   36.611350      1.679948
   36.711350      1.696523
   36.811350      1.788572
   36.911350      1.747570
   37.011350      1.692786
   37.111350      1.669150
   37.211350      1.768778
   37.311350      1.777710
   37.411350      1.631600
   37.511350      1.735414
   37.611350      1.684509
   37.711350      1.720868
   37.811350      1.682233
   37.911350      1.702960
   38.011350      1.693149
   38.111350      1.688151
   38.211350      1.678614
   38.311350      1.641141
   38.411350      1.699396
   38.511350      1.690204
   38.611350      1.730677
   38.711350      1.560367
   38.811350      1.699588
   38.911350      1.647826
   39.011350      1.673383
   39.111350      1.647459
   39.211350      1.695890
   39.311350      1.631875
   39.411350      1.644893
   39.511350      1.626971
   39.611350      1.648099
   39.711350      1.604629
   39.811350      1.654361
   39.911350      1.603741
   40.011350      1.677761
   40.111350      1.612820
   40.211350      1.613164
   40.311350      1.572619
   40.411350      1.616692
   40.511350      1.518140
   40.611350      1.641978
   40.711350      1.605110
   40.811350      1.576773
   40.911350      1.561222
   41.011350      1.598143
   41.111350      1.509750
   41.211350      1.590886
   41.311350      1.509403
   41.411350      1.522520
   41.511350      1.551794
   41.611350      1.536651
   41.711350      1.498532
   41.811350      1.470358
   41.911350      1.496566
   42.011350      1.494989
   42.111350      1.493826
   42.211350      1.497684
   42.311350      1.461872
   42.411350      1.425916
   42.511350      1.433045
   42.611350      1.415938
   42.711350      1.389357
   42.811350      1.411032
   42.911350      1.467672
   43.011350      1.364485
   43.111350      1.459393
   43.211350      1.368352
   43.311350      1.385750
   43.411350      1.328082
   43.511350      1.362303
   43.611350      1.428051
   43.711350      1.296528
   43.811350      1.305395
   43.911350      1.365940
   44.011350      1.362042
   44.111350      1.331789
   44.211350      1.295621
   44.311350      1.269168
   44.411350      1.338806
   44.511350      1.281315
   44.611350      1.365490
   44.711350      1.239231
   44.811350      1.306043
   44.911350      1.253317
   45.011350      1.334188
   45.111350      1.266356
   45.211350      1.252930
   45.311350      1.266588
   45.411350      1.276544
   45.511350      1.290378
   45.611350      1.225853
   45.711350      1.288560
   45.811350      1.215075
   45.911350      1.288496
   46.011350      1.270647
   46.111350      1.247819
   46.211350      1.280708
   46.311350      1.233862
   46.411350      1.298369
   46.511350      1.209068
   46.611350      1.296305
   46.711350      1.184110
   46.811350      1.250667
   46.911350      1.260711
   47.011350      1.210351
   47.111350      1.318664
   47.211350      1.187065
   47.311350      1.239698
   47.411350      1.234585
   47.511350      1.211506
   47.611350      1.209733
   47.711350      1.259086
   47.811350      1.276761
   47.911350      1.240386
   48.011350      1.219670
   48.111350      1.250066
   48.211350      1.212495
   48.311350      1.212526
   48.411350      1.207074
   48.511350      1.216751
   48.611350      1.238788
   48.711350      1.219874
   48.811350      1.240512
   48.911350      1.203436
   49.011350      1.183579
   49.111350      1.260179
   49.211350      1.160787
   49.311350      1.238134
   49.411350      1.169335
   49.511350      1.210656
   49.611350      1.254226
   49.711350      1.246599
   49.811350      1.129794
   49.911350      1.234067
   50.011350      1.241388
   50.111350      1.209008
   50.211350      1.199562
   50.311350      1.221940
   50.411350      1.215365
   50.511350      1.232456
   50.611350      1.226295
   50.711350      1.168039
   50.811350      1.228877
   50.911350      1.183271
   51.011350      1.223493
   51.111350      1.212819
   51.211350      1.211954
   51.311350      1.187036
   51.411350      1.246226
   51.511350      1.235586
   51.611350      1.181473
   51.711350      1.250131
   51.811350      1.221075
   51.911350      1.178961
   52.011350      1.236771
   52.111350      1.194698
   52.211350      1.253161
   52.311350      1.222248
   52.411350      1.208788
   52.511350      1.208753
   52.611350      1.243525
   52.711350      1.204742
   52.811350      1.237387
   52.911350      1.198549
   53.011350      1.233991
   53.111350      1.230618
   53.211350      1.210804
   53.311350      1.226723
   53.411350      1.285140
   53.511350      1.232180
   53.611350      1.243083
   53.711350      1.249517
   53.811350      1.252228
   53.911350      1.254338
   54.011350      1.251857
   54.111350      1.253988
   54.211350      1.231192
   54.311350      1.283926
   54.411350      1.253340
   54.511350      1.219153
   54.611350      1.224844
   54.711350      1.234055
   54.811350      1.265459
   54.911350      1.194244
   55.011350      1.192929
   55.111350      1.210664
   55.211350      1.250824
   55.311350      1.253958
   55.411350      1.199808
   55.511350      1.230054
   55.611350      1.223969
   55.711350      1.226015
   55.811350      1.232816
   55.911350      1.219287
   56.011350      1.236369
   56.111350      1.198148
   56.211350      1.226305
   56.311350      1.207015
   56.411350      1.259286
   56.511350      1.208856
   56.611350      1.238949
   56.711350      1.237986
   56.811350      1.229877
   56.911350      1.217957
   57.011350      1.231524
   57.111350      1.216796
   57.211350      1.264815
   57.311350      1.205144
   57.411350      1.230726
   57.511350      1.285953
   57.611350      1.251533
   57.711350      1.259620
   57.811350      1.273354
   57.911350      1.284440
   58.011350      1.300431
   58.111350      1.281542
   58.211350      1.308106
   58.311350      1.289960
   58.411350      1.303881
   58.511350      1.315002
   58.611350      1.303686
   58.711350      1.319980
   58.811350      1.312374
   58.911350      1.364881
   59.011350      1.302545
   59.111350      1.289393
   59.211350      1.389548
   59.311350      1.297215
   59.411350      1.336924
   59.511350      1.312446
   59.611350      1.365108
   59.711350      1.376235
   59.811350      1.344755
   59.911350      1.379055
   60.011350      1.397933
   60.111350      1.392448
   60.211350      1.354194
   60.311350      1.378671
   60.411350      1.385256
   60.511350      1.406962
   60.611350      1.343212
   60.711350      1.395663
   60.811350      1.409702
   60.911350      1.457194
   61.011350      1.464251
   61.111350      1.353844
   61.211350      1.489646
   61.311350      1.438739
   61.411350      1.439674
   61.511350      1.398768
   61.611350      1.445480
   61.711350      1.461832
   61.811350      1.429169
   61.911350      1.435042
   62.011350      1.448040
   62.111350      1.428416
   62.211350      1.417578
   62.311350      1.484062
   62.411350      1.331751
   62.511350      1.513270
   62.611350      1.423364
   62.711350      1.476647
   62.811350      1.491593
   62.911350      1.511455
   63.011350      1.407722
   63.111350      1.548793
   63.211350      1.495414
   63.311350      1.451892
   63.411350      1.458616
   63.511350      1.511602
   63.611350      1.493848
   63.711350      1.585809
   63.811350      1.497040
   63.911350      1.552941
   64.011350      1.489097
   64.111350      1.519105
   64.211350      1.491658
   64.311350      1.539416
   64.411350      1.548218
   64.511350      1.521030
   64.611350      1.502625
   64.711350      1.509039
   64.811350      1.540603
   64.911350      1.515612
   65.011350      1.493889
   65.111350      1.493085
   65.211350      1.543046