-45.7886 0.994454
-45.6887 0.0
-45.5887 0.0
-45.4886 0.0
-45.3886 0.0
-45.2886 0.0
-45.1887 0.0
-45.0887 0.0
-44.9886 0.0
-44.8886 0.0
-44.7886 0.0
-44.6887 0.0
-44.5887 0.0
-44.4886 0.0
-44.3886 0.0
-44.2886 0.0
-44.1887 0.0
-44.0887 0.0
-43.9886 0.0
-43.8886 0.0
-43.7886 0.0
-43.6887 0.0
-43.5887 0.0
-43.4886 0.0
-43.3886 0.0
-43.2886 0.0
-43.1887 0.0
-43.0887 0.0
-42.9886 0.0
-42.8886 0.0
-42.7886 0.0
-42.6887 0.0
-42.5887 0.0
-42.4886 0.0
-42.3886 0.0
-42.2886 0.0
-42.1887 0.0
-42.0887 0.0
-41.9886 0.0
-41.8886 0.0
-41.7886 0.0
-41.6887 0.0
-41.5887 0.0
-41.4886 0.0
-41.3886 0.0
-41.2886 0.0
-41.1887 0.0
-41.0887 0.0
-40.9886 0.0
-40.8886 0.0
-40.7886 0.0
-40.6887 0.0
-40.5887 0.0
-40.4886 0.0
-40.3886 0.0
-40.2886 0.0
-40.1887 0.0
-40.0887 0.0
-39.9886 0.0
-39.8886 0.0
-39.7886 0.0
-39.6887 0.0
-39.5887 0.0
-39.4886 0.0
-39.3886 0.0
-39.2886 0.0
-39.1887 0.0
-39.0887 0.0
-38.9886 0.0
-38.8886 0.0
-38.7886 0.0
-38.6887 0.0
-38.5887 0.0
-38.4886 0.0
-38.3886 0.0
-38.2886 0.0
-38.1887 0.0
-38.0887 0.0
-37.9886 0.0
-37.8886 0.0
-37.7886 0.0
-37.6887 0.0
-37.5887 0.0
-37.4886 0.0
-37.3886 0.0
-37.2886 0.0
-37.1887 0.0
-37.0887 0.0
-36.9886 0.0
-36.8886 0.0
-36.7886 0.0
-36.6887 0.0
-36.5887 0.0
-36.4886 0.0
-36.3886 0.0
-36.2886 0.0
-36.1887 0.0
-36.0887 0.0
-35.9886 0.0
-35.8886 0.0
-35.7886 0.0
-35.6887 0.0
-35.5887 0.0
-35.4886 0.0
-35.3886 0.0
-35.2886 0.0
-35.1887 0.0
-35.0887 0.0
-34.9886 0.0
-34.8886 0.0
-34.7886 0.0
-34.6887 0.0
-34.5887 0.0
-34.4886 0.0
-34.3886 0.0
-34.2886 0.0
-34.1887 0.0
-34.0887 0.0
-33.9886 0.0
-33.8886 0.0
-33.7886 0.0
-33.6887 0.0
-33.5887 0.0
-33.4886 0.0
-33.3886 0.0
-33.2886 0.0
-33.1887 0.0
-33.0887 0.0
-32.9886 0.0
-32.8886 0.0
-32.7886 0.0
-32.6887 0.0
-32.5887 0.0
-32.4886 0.0
-32.3886 0.0
-32.2886 0.0
-32.1887 0.0
-32.0887 0.0
-31.9886 0.0
-31.8886 0.0
-31.7887 0.0
-31.6886 0.0
-31.5887 0.0
-31.4886 0.0
-31.3886 0.0
-31.2887 0.0
-31.1886 0.0
-31.0887 0.0
-30.9886 0.0
-30.8886 0.0
-30.7887 0.0
-30.6886 0.0
-30.5887 0.0
-30.4886 0.0
-30.3886 0.0
-30.2887 0.0
-30.1886 0.0
-30.0887 0.0
-29.9886 0.0
-29.8886 0.0
-29.7887 0.0
-29.6886 0.0
-29.5887 0.0
-29.4886 0.0
-29.3886 0.0
-29.2887 0.0
-29.1886 0.0
-29.0887 0.0
-28.9886 0.0
-28.8886 0.0
-28.7887 0.0
-28.6886 0.0
-28.5887 0.0
-28.4886 0.0
-28.3886 0.0
-28.2887 0.0
-28.1886 0.0
-28.0887 0.0
-27.9886 0.0
-27.8886 0.0
-27.7887 0.0
-27.6886 0.0
-27.5887 0.0
-27.4886 0.0
-27.3886 0.0
-27.2887 0.0
-27.1886 0.0
-27.0887 0.0
-26.9886 0.0
-26.8886 0.0
-26.7887 0.0
-26.6886 0.0
-26.5887 0.0
-26.4886 0.0
-26.3886 0.0
-26.2887 0.0
-26.1886 0.0
-26.0887 0.017774
-25.9886 0.071115
-25.8886 0.026763
-25.7887 0.088913
-25.6886 0.133642
-25.5887 0.169447
-25.4886 0.249646
-25.3886 0.401296
-25.2887 0.58004
-25.1886 0.6342570000000001
-25.0887 0.767293
-24.9886 1.107021
-24.8886 1.37487
-24.7887 1.412079
-24.6886 1.492175
-24.5887 1.815395
-24.4886 1.994885
-24.3886 2.092285
-24.2887 1.888256
-24.1886 1.996438
-24.0887 1.7010260000000001
-23.9886 1.378441
-23.8886 1.351791
-23.7887 0.922504
-23.6886 1.029816
-23.5887 0.762053
-23.4886 0.609393
-23.3886 0.457365
-23.2887 0.313656
-23.1886 0.341045
-23.0887 0.170565
-22.9886 0.188812
-22.8886 0.16883900000000002
-22.7887 0.10835199999999999
-22.6886 0.30088099999999995
-22.5887 0.429361
-22.4886 0.49345100000000003
-22.3886 0.711558
-22.2887 0.940271
-22.1886 1.334795
-22.0887 1.6248070000000001
-21.9886 1.947916
-21.8886 2.436513
-21.7887 2.560078
-21.6886 3.044951
-21.5887 3.3421440000000002
-21.4886 3.226361
-21.3886 3.5256719999999997
-21.2887 3.331517
-21.1886 3.357054
-21.0887 3.157871
-20.9886 3.0413379999999997
-20.8886 3.020155
-20.7887 2.39623
-20.6886 1.98133
-20.5887 1.8823059999999998
-20.4886 1.585328
-20.3886 1.25594
-20.2887 1.056842
-20.1886 0.737082
-20.0887 0.638352
-19.9886 0.499389
-19.8886 0.27914399999999995
-19.7887 0.25058800000000003
-19.6886 0.15217
-19.5887 0.144517
-19.4886 0.11755
-19.3886 0.036898
-19.2887 0.035916
-19.1886 0.045711
-19.0887 0.008504
-18.9886 0.008414
-18.8886 0.0
-18.7887 0.0
-18.6886 0.0
-18.5887 0.009345
-18.4886 0.0
-18.3886 0.0
-18.2887 0.0
-18.1886 0.009294
-18.0887 0.0
-17.9886 0.0
-17.8886 0.0
-17.7887 0.0
-17.6886 0.0
-17.5887 0.0
-17.4886 0.0
-17.3886 0.0
-17.2887 0.0
-17.1886 0.0
-17.0887 0.0
-16.9886 0.0
-16.8886 0.0
-16.7887 0.0
-16.6886 0.0
-16.5887 0.0
-16.4886 0.0
-16.3886 0.0
-16.2887 0.0
-16.1886 0.0
-16.0887 0.016037
-15.9886 0.023984
-15.8887 0.040119
-15.7887 0.048139
-15.6887 0.160255
-15.5886 0.336649
-15.4886 0.33717
-15.3887 0.617279
-15.2887 0.7056830000000001
-15.1887 1.1380830000000002
-15.0886 1.138015
-14.9886 1.41034
-14.8887 1.482205
-14.7887 1.669144
-14.6887 1.6765510000000001
-14.5886 1.852303
-14.4886 1.676245
-14.3887 1.8458700000000001
-14.2887 1.6450120000000001
-14.1887 1.4613099999999999
-14.0886 1.260195
-13.9886 1.067348
-13.8887 0.818496
-13.7887 0.643043
-13.6887 0.45796400000000004
-13.5886 0.337597
-13.4886 0.30549
-13.3887 0.26751600000000003
-13.2887 0.22755799999999998
-13.1887 0.22239099999999998
-13.0886 0.29215399999999997
-12.9886 0.437787
-12.8887 0.507012
-12.7887 0.759094
-12.6887 0.956726
-12.5886 1.279267
-12.4886 1.476942
-12.3887 1.7140440000000001
-12.2887 2.092345
-12.1887 2.084186
-12.0886 2.18664
-11.9886 2.0093729999999996
-11.8887 1.90757
-11.7887 1.75614
-11.6887 1.444148
-11.5886 1.3425699999999998
-11.4886 1.055767
-11.3887 0.81371
-11.2887 0.604206
-11.1887 0.668667
-11.0886 0.610385
-10.9886 0.7179099999999999
-10.8887 0.71031
-10.7887 0.891432
-10.6887 1.14772
-10.5886 1.400174
-10.4886 1.455998
-10.3887 1.807785
-10.2887 2.0243889999999998
-10.1887 2.4609140000000003
-10.0886 2.39943
-9.98865 2.377344
-9.88865 2.679118
-9.78865 2.969089
-9.68865 2.980762
-9.58865 3.0432639999999997
-9.48865 3.283575
-9.38865 2.9347909999999997
-9.28865 3.290574
-9.18865 2.872211
-9.08865 2.5978139999999996
-8.98865 2.561266
-8.88865 2.0211989999999997
-8.78865 1.901215
-8.68865 1.383163
-8.58865 1.252969
-8.48865 1.031194
-8.38865 0.855441
-8.28865 0.798125
-8.18865 0.723812
-8.08865 0.816964
-7.98865 0.8714109999999999
-7.88865 1.222644
-7.78865 1.452207
-7.68865 1.6257059999999999
-7.58865 1.778634
-7.48865 2.32051
-7.38865 2.776584
-7.28865 2.891848
-7.18865 3.388388
-7.08865 3.496778
-6.98865 3.616712
-6.88865 4.029378
-6.78865 4.075584
-6.68865 4.394577999999999
-6.58865 4.296443999999999
-6.48865 4.410857
-6.38865 4.387952
-6.28865 4.140741
-6.18865 4.278922
-6.08865 3.973599
-5.98865 4.166742
-5.88865 3.858584
-5.78865 3.981629
-5.68865 3.795644
-5.58865 3.818727
-5.48865 3.9906390000000003
-5.38865 4.160812
-5.28865 4.1936100000000005
-5.18865 4.624527
-5.08865 4.858588
-4.98865 4.9505799999999995
-4.88865 5.1175619999999995
-4.78865 5.43955
-4.68865 5.567724999999999
-4.58865 5.725636
-4.48865 5.910237
-4.38865 5.49435
-4.28865 5.641782
-4.18865 5.719428
-4.08865 5.649181
-3.98865 5.6092900000000006
-3.88865 5.669322
-3.78865 5.708619
-3.68865 5.652731
-3.58865 5.382353
-3.48865 5.670823
-3.38865 6.143959
-3.28865 5.626746
-3.18865 5.874705
-3.08865 5.731381
-2.98865 5.562972
-2.88865 5.670646
-2.78865 5.424962
-2.68865 5.158429
-2.58865 5.033609
-2.48865 4.77903
-2.38865 4.911821
-2.28865 4.404966
-2.18865 4.41847
-2.08865 4.064387
-1.98865 4.365283
-1.88865 4.509778
-1.78865 4.672223
-1.68865 4.8996960000000005
-1.58865 5.283941
-1.48865 5.451613
-1.38865 5.864601
-1.28865 6.028543999999999
-1.18865 6.076085999999999
-1.08865 6.037237999999999
-0.98865 6.1939139999999995
-0.88865 5.679642
-0.78865 5.402463
-0.68865 5.121827
-0.58865 4.239199
-0.48865 3.689732
-0.38865 3.017613
-0.28865 2.79549
-0.18865 2.0430170000000003
-0.08865 1.702534
0.01135 1.156957
0.11135 1.012481
0.21135 0.602008
0.31135 0.538352
0.41135 0.34090899999999996
0.51135 0.215557
0.61135 0.142864
0.71135 0.062392
0.81135 0.117274
0.91135 0.053961
1.01135 0.035778
1.11135 0.009012
1.21135 0.0
1.31135 0.009116
1.41135 0.0
1.51135 0.0
1.61135 0.0
1.71135 0.009219
1.81135 0.0
1.91135 0.0
2.01135 0.0
2.11135 0.0
2.21135 0.0
2.31135 0.0
2.41135 0.0
2.51135 0.0
2.61135 0.0
2.71135 0.0
2.81135 0.0
2.91135 0.0
3.01135 0.0
3.11135 0.0
3.21135 0.0
3.31135 0.0
3.41135 0.0
3.51135 0.0
3.61135 0.0
3.71135 0.0
3.81135 0.0
3.91135 0.0
4.01135 0.0
4.11135 0.0
4.21135 0.0
4.31135 0.0
4.41135 0.0
4.51135 0.0
4.61135 0.0
4.71135 0.0
4.81135 0.0
4.91135 0.0
5.01135 0.0
5.11135 0.0
5.21135 0.0
5.31135 0.0
5.41135 0.008638999999999999
5.51135 0.0
5.61135 0.0
5.71135 0.030654
5.81135 0.048761
5.91135 0.10697699999999999
6.01135 0.17426399999999997
6.11135 0.26040800000000003
6.21135 0.3445
6.31135 0.481634
6.41135 0.617316
6.51135 0.773856
6.61135 0.978473
6.71135 1.231353
6.81135 1.651171
6.91135 1.603509
7.01135 2.04765
7.11135 1.939227
7.21135 2.012756
7.31135 2.2495469999999997
7.41135 2.034525
7.51135 2.211084
7.61135 2.096762
7.71135 2.198655
7.81135 2.2118510000000002
7.91135 1.822766
8.01135 1.786332
8.11135 1.8381669999999999
8.21135 1.617359
8.31135 1.5376470000000002
8.41135 1.6085520000000002
8.51135 1.336972
8.61135 1.213906
8.71135 1.166023
8.81135 1.198151
8.91135 1.240897
9.01135 1.1416929999999998
9.11135 1.176281
9.21135 1.221366
9.31135 1.305912
9.41135 1.2818230000000002
9.51135 1.495031
9.61135 1.453899
9.71135 1.555363
9.81135 1.657683
9.91135 1.679989
10.0114 1.8232570000000001
10.1113 1.879518
10.2113 1.94967
10.3113 2.022888
10.4114 2.064307
10.5114 2.094519
10.6113 2.169505
10.7113 2.19589
10.8113 2.185439
10.9114 2.238006
11.0114 2.196629
11.1113 2.301667
11.2113 2.217742
11.3113 2.309403
11.4114 2.3532129999999998
11.5114 2.316536
11.6113 2.388838
11.7113 2.361558
11.8113 2.3014010000000003
11.9114 2.431523
12.0114 2.43268
12.1113 2.3543629999999998
12.2113 2.414936
12.3113 2.4604250000000003
12.4114 2.393904
12.5114 2.5070930000000002
12.6113 2.369505
12.7113 2.386285
12.8113 2.433306
12.9114 2.367119
13.0114 2.4737829999999996
13.1113 2.364232
13.2113 2.3308850000000003
13.3113 2.309603
13.4114 2.320801
13.5114 2.300996
13.6113 2.32849
13.7113 2.239419
13.8113 2.280115
13.9114 2.2398040000000004
14.0114 2.211441
14.1113 2.195666
14.2113 2.2293979999999998
14.3113 2.169946
14.4114 2.2210970000000003
14.5114 2.092632
14.6113 2.205771
14.7113 2.2121470000000003
14.8113 2.199873
14.9114 2.103012
15.0114 2.2079169999999997
15.1113 2.190858
15.2113 2.137797
15.3113 2.1938079999999998
15.4114 2.197585
15.5114 2.2060400000000002
15.6113 2.263709
15.7113 2.2630440000000003
15.8113 2.308323
15.9114 2.293404
16.0114 2.276089
16.1114 2.296584
16.2113 2.37525
16.3114 2.356184
16.4113 2.424845
16.5114 2.346251
16.6114 2.545491
16.7113 2.3252889999999997
16.8114 2.433516
16.9113 2.512027
17.0114 2.378662
17.1114 2.394095
17.2113 2.434355
17.3114 2.3297060000000003
17.4113 2.4386319999999997
17.5114 2.332513
17.6114 2.377982
17.7113 2.278246
17.8114 2.376747
17.9113 2.271183
18.0114 2.3223559999999996
18.1114 2.196346
18.2113 2.117157
18.3114 2.195729
18.4113 2.1235079999999997
18.5114 2.22039
18.6114 2.11004
18.7113 2.1213480000000002
18.8114 2.016331
18.9113 2.089512
19.0114 2.107733
19.1114 2.058672
19.2113 2.082163
19.3114 2.0365860000000002
19.4113 2.000145
19.5114 2.066925
19.6114 1.9998509999999998
19.7113 2.0410369999999998
19.8114 2.0118970000000003
19.9113 2.015971
20.0114 2.038426
20.1114 2.066953
20.2113 2.029767
20.3114 2.054959
20.4113 2.034618
20.5114 2.042199
20.6114 2.073721
20.7113 2.099141
20.8114 2.024073
20.9113 2.0157550000000004
21.0114 2.03341
21.1114 2.0463449999999996
21.2113 2.026431
21.3114 2.017731
21.4113 1.98612
21.5114 1.964543
21.6114 2.047224
21.7113 1.985854
21.8114 1.924648
21.9113 1.96922
22.0114 1.93932
22.1114 1.922091
22.2113 2.007107
22.3114 1.929142
22.4113 1.8572190000000002
22.5114 1.968246
22.6114 1.877891
22.7113 1.8403379999999998
22.8114 1.900589
22.9113 1.866285
23.0114 1.8516569999999999
23.1114 1.857844
23.2113 1.939891
23.3114 1.890807
23.4113 1.8204030000000002
23.5114 1.9264029999999999
23.6114 1.856164
23.7113 1.8422209999999999
23.8114 1.93011
23.9113 1.875294
24.0114 1.846494
24.1114 1.9127530000000001
24.2113 1.849624
24.3114 1.974434
24.4113 1.890908
24.5114 1.9210779999999998
24.6114 1.905384
24.7113 1.886508
24.8114 1.945591
24.9113 1.9989240000000001
25.0114 1.965703
25.1114 1.9421769999999998
25.2113 1.993931
25.3114 1.986844
25.4113 2.0443450000000003
25.5114 2.033694
25.6114 2.0675969999999997
25.7113 1.96177
25.8114 2.007414
25.9113 2.1512860000000003
26.0114 2.0220010000000004
26.1114 2.169162
26.2113 2.020394
26.3114 2.14495
26.4113 2.0812779999999997
26.5114 1.999733
26.6114 2.167618
26.7113 2.098988
26.8114 2.034981
26.9113 2.068293
27.0114 2.1035109999999997
27.1114 2.064413
27.2113 2.2316380000000002
27.3114 2.0621419999999997
27.4113 2.135936
27.5114 2.064375
27.6114 2.177091
27.7113 2.096921
27.8114 2.0169390000000003
27.9113 2.061232
28.0114 2.140072
28.1114 2.067272
28.2113 2.142215
28.3114 2.109231
28.4113 2.1272029999999997
28.5114 2.065959
28.6114 2.1162639999999997
28.7113 2.171325
28.8114 2.033333
28.9113 2.114832
29.0114 2.0239949999999998
29.1114 2.123414
29.2113 2.139513
29.3114 2.1049130000000003
29.4113 2.051808
29.5114 2.058846
29.6114 2.1128929999999997
29.7113 2.164616
29.8114 2.055286
29.9113 2.105274
30.0114 2.045147
30.1114 2.088477
30.2113 2.137496
30.3114 2.0380369999999997
30.4113 2.068624
30.5114 2.1622660000000002
30.6114 2.082336
30.7113 2.0556639999999997
30.8114 2.0454120000000002
30.9113 2.0488850000000003
31.0114 2.059321
31.1114 2.0900260000000004
31.2113 1.958416
31.3114 2.0225150000000003
31.4113 2.1008370000000003
31.5114 2.050129
31.6114 2.047467
31.7113 2.023992
31.8114 2.0023850000000003
31.9113 1.9358790000000001
32.0114 2.078944
32.1114 1.934499
32.2114 2.0157879999999997
32.3113 2.001489
32.4113 1.938944
32.5114 1.977135
32.6114 1.989837
32.7114 1.969795
32.8113 1.944745
32.9113 1.9855520000000002
33.0114 1.8843789999999998
33.1114 1.9699600000000002
33.2114 1.937328
33.3113 1.879208
33.4113 1.962971
33.5114 1.945025
33.6114 1.856481
33.7114 1.97471
33.8113 1.824768
33.9113 1.942521
34.0114 1.916879
34.1114 1.856046
34.2114 1.883297
34.3113 1.824843
34.4113 1.78847
34.5114 1.882947
34.6114 1.948947
34.7114 1.81623
34.8113 1.7744739999999999
34.9113 1.8716620000000002
35.0114 1.815462
35.1114 1.810213
35.2114 1.850547
35.3113 1.847228
35.4113 1.826443
35.5114 1.741062
35.6114 1.746706
35.7114 1.7801740000000001
35.8113 1.807606
35.9113 1.7535729999999998
36.0114 1.797055
36.1114 1.726928
36.2114 1.7783220000000002
36.3113 1.779996
36.4113 1.725277
36.5114 1.7716290000000001
36.6114 1.680864
36.7114 1.697355
36.8113 1.78939
36.9113 1.748555
37.0114 1.693682
37.1114 1.6700659999999998
37.2114 1.769704
37.3113 1.77864
37.4113 1.632449
37.5114 1.736431
37.6114 1.6853580000000001
37.7114 1.721848
37.8113 1.6832710000000002
37.9113 1.703922
38.0114 1.694072
38.1114 1.689115
38.2114 1.679537
38.3113 1.642112
38.4113 1.700445
38.5114 1.691178
38.6114 1.731674
38.7114 1.561228
38.8113 1.7006480000000002
38.9113 1.6488
39.0114 1.6745670000000001
39.1114 1.648393
39.2114 1.697009
39.3113 1.632992
39.4113 1.645989
39.5114 1.628028
39.6114 1.6491609999999999
39.7114 1.605815
39.8113 1.655486
39.9113 1.6048310000000001
40.0114 1.678958
40.1114 1.6138759999999999
40.2114 1.614354
40.3113 1.573759
40.4113 1.617983
40.5114 1.5192590000000001
40.6114 1.643227
40.7114 1.60629
40.8113 1.578018
40.9113 1.5625220000000002
41.0114 1.599329
41.1114 1.510913
41.2114 1.591999
41.3113 1.510427
41.4113 1.52359
41.5114 1.552827
41.6114 1.537737
41.7114 1.499605
41.8113 1.47134
41.9113 1.497792
42.0114 1.496054
42.1114 1.494911
42.2114 1.49877
42.3113 1.462915
42.4113 1.426874
42.5114 1.4340959999999998
42.6114 1.417003
42.7114 1.39039
42.8113 1.4121270000000001
42.9113 1.4685920000000001
43.0114 1.3654849999999998
43.1114 1.4604139999999999
43.2114 1.369396
43.3113 1.386768
43.4113 1.328999
43.5114 1.363461
43.6114 1.4291749999999999
43.7114 1.297493
43.8113 1.3064410000000002
43.9113 1.3670309999999999
44.0114 1.363183
44.1114 1.3328579999999999
44.2114 1.2967099999999998
44.3113 1.270156
44.4113 1.339855
44.5114 1.282197
44.6114 1.366511
44.7114 1.240238
44.8113 1.3070730000000002
44.9113 1.254389
45.0114 1.335288
45.1114 1.267436
45.2114 1.2539680000000002
45.3113 1.267668
45.4113 1.27758
45.5114 1.291582
45.6114 1.226904
45.7114 1.289679
45.8113 1.2161099999999998
45.9113 1.289647
46.0114 1.2717960000000001
46.1114 1.248928
46.2114 1.281828
46.3113 1.23504
46.4113 1.2994640000000002
46.5114 1.210076
46.6114 1.2974320000000001
46.7114 1.185169
46.8113 1.251825
46.9113 1.261745
47.0114 1.211354
47.1114 1.319885
47.2114 1.1880300000000001
47.3113 1.240859
47.4113 1.235763
47.5114 1.2125949999999999
47.6114 1.2107649999999999
47.7114 1.260143
47.8113 1.278078
47.9113 1.241603
48.0114 1.220782
48.1114 1.251264
48.2114 1.213664
48.3113 1.213743
48.4113 1.208197
48.5114 1.21796
48.6114 1.240013
48.7114 1.2210649999999998
48.8113 1.241713
48.9113 1.204609
49.0114 1.1846679999999998
49.1114 1.26144
49.2114 1.162137
49.3113 1.239403
49.4113 1.170496
49.5114 1.211971
49.6114 1.2556580000000002
49.7114 1.247853
49.8113 1.130951
49.9113 1.2353210000000001
50.0114 1.2425789999999999
50.1114 1.210356
50.2114 1.200728
50.3113 1.2232750000000001
50.4113 1.21681
50.5114 1.233638
50.6114 1.227544
50.7114 1.1693310000000001
50.8113 1.230131
50.9113 1.1845379999999999
51.0114 1.22462
51.1114 1.21405
51.2114 1.213217
51.3113 1.188389
51.4113 1.2474960000000002
51.5114 1.236853
51.6114 1.182723
51.7114 1.2514180000000001
51.8113 1.22236
51.9113 1.180169
52.0114 1.2380330000000002
52.1114 1.196035
52.2114 1.254431
52.3113 1.223501
52.4113 1.210127
52.5114 1.209921
52.6114 1.244784
52.7114 1.2059739999999999
52.8113 1.238704
52.9113 1.199805
53.0114 1.235312
53.1114 1.231961
53.2114 1.212208
53.3113 1.228129
53.4113 1.286474
53.5114 1.233435
53.6114 1.244381
53.7114 1.250995
53.8113 1.253537
53.9113 1.255669
54.0114 1.253227
54.1114 1.255498
54.2114 1.232467
54.3113 1.2853139999999998
54.4113 1.254748
54.5114 1.220585
54.6114 1.226188
54.7114 1.235366
54.8113 1.2669549999999998
54.9113 1.195591
55.0114 1.194391
55.1114 1.212216
55.2114 1.252378
55.3113 1.2554729999999998
55.4113 1.201131
55.5114 1.231491
55.6114 1.2253310000000002
55.7114 1.2274010000000002
55.8113 1.234244
55.9113 1.220614
56.0114 1.237783
56.1114 1.19954
56.2114 1.227975
56.3113 1.208394
56.4113 1.2606089999999999
56.5114 1.210132
56.6114 1.240305
56.7114 1.239354
56.8113 1.231292
56.9113 1.219369
57.0114 1.232898
57.1114 1.218079
57.2114 1.266179
57.3113 1.20649
57.4113 1.232067
57.5114 1.287285
57.6114 1.25283
57.7114 1.260975
57.8113 1.2747970000000002
57.9113 1.285689
58.0114 1.3018509999999999
58.1114 1.282856
58.2114 1.309398
58.3113 1.29126
58.4113 1.3049680000000001
58.5114 1.316371
58.6114 1.3050039999999998
58.7114 1.321111
58.8113 1.3135249999999998
58.9113 1.366319
59.0114 1.303666
59.1114 1.290471
59.2114 1.390933
59.3113 1.298569
59.4113 1.338182
59.5114 1.313579
59.6114 1.366443
59.7114 1.3774870000000001
59.8113 1.346047
59.9113 1.3805129999999999
60.0114 1.3992330000000002
60.1114 1.3937739999999998
60.2114 1.355381
60.3113 1.380053
60.4113 1.3868310000000001
60.5114 1.408434
60.6114 1.344476
60.7114 1.3970600000000002
60.8113 1.4111690000000001
60.9113 1.458703
61.0114 1.4656689999999999
61.1114 1.355235
61.2114 1.49105
61.3113 1.440192
61.4113 1.44109
61.5114 1.400232
61.6114 1.447114
61.7114 1.463365
61.8113 1.4305539999999999
61.9113 1.436556
62.0114 1.449647
62.1114 1.4299929999999998
62.2114 1.419153
62.3113 1.485665
62.4113 1.333208
62.5114 1.5150919999999999
62.6114 1.42513
62.7114 1.4781520000000001
62.8113 1.493136
62.9113 1.513049
63.0114 1.4091339999999999
63.1114 1.5504660000000001
63.2114 1.496877
63.3113 1.453288
63.4113 1.4601979999999999
63.5114 1.513048
63.6114 1.495393
63.7114 1.587477
63.8113 1.498731
63.9113 1.554484
64.0113 1.490632
64.1114 1.52074
64.2113 1.493245
64.3114 1.540824
64.4113 1.549843
64.5113 1.5225570000000002
64.6114 1.503991
64.7113 1.510537
64.8114 1.542182
64.9113 1.517321
65.0113 1.495413
65.1114 1.494421
65.2113 1.5446099999999998
65.3114 1.465352
65.4113 1.485537
65.5113 1.508187
65.6114 1.5242010000000001
65.7113 1.406703
65.8114 1.481743
65.9113 1.4905789999999999
66.0113 1.486211
66.1114 1.435261
66.2113 1.435731
66.3114 1.437293
66.4113 1.433322
66.5113 1.419908
66.6114 1.383002
66.7113 1.392106
66.8114 1.341703
66.9113 1.444636
67.0113 1.344995
67.1114 1.3734600000000001
67.2113 1.394858
67.3114 1.346234
67.4113 1.322545
67.5113 1.308514
67.6114 1.385609
67.7113 1.324353
67.8114 1.297982
67.9113 1.26028
68.0113 1.303941
68.1114 1.304737
68.2113 1.285278
68.3114 1.290072
68.4113 1.2027780000000001
68.5113 1.224276
68.6114 1.186505
68.7113 1.224309
68.8114 1.1953610000000001
68.9113 1.148628
69.0113 1.155832
69.1114 1.1638890000000002
69.2113 1.169118
69.3114 1.155729
69.4113 1.076699
69.5113 1.052039
69.6114 1.107955
69.7113 1.0728030000000002
69.8114 1.0734890000000001
69.9113 1.04388
70.0113 1.051792
70.1114 1.042546
70.2113 1.008457
70.3114 1.017156
70.4113 0.9819789999999999
70.5113 1.007309
70.6114 0.9868520000000001
70.7113 0.979792
70.8114 0.984596
70.9113 0.992127
71.0113 0.914798
71.1114 1.019375
71.2113 0.961653
71.3114 0.963215
71.4113 0.956231
71.5113 0.972101
71.6114 0.920169
71.7113 0.954451
71.8114 1.003106
71.9113 0.9519
72.0113 0.960332
72.1114 0.943239
72.2113 0.941097
72.3114 0.962452
72.4113 0.890822
72.5113 0.9388719999999999
72.6114 0.971332
72.7113 0.930116
72.8114 0.869993
72.9113 0.914809
73.0113 0.911902
73.1114 0.874645
73.2113 0.8640059999999999
73.3114 0.8345349999999999
73.4113 0.843938
73.5113 0.854541
73.6114 0.8607859999999999
73.7113 0.820704
73.8114 0.865017
73.9113 0.7889849999999999
74.0113 0.82208
74.1114 0.77988
74.2113 0.791404
74.3114 0.7976749999999999
74.4113 0.71182
74.5113 0.8021830000000001
74.6114 0.758959
74.7113 0.734638
74.8114 0.7354719999999999
74.9113 0.731531
75.0113 0.706565
75.1114 0.703418
75.2113 0.7065699999999999
75.3114 0.680032
75.4113 0.691445
75.5113 0.6616829999999999
75.6114 0.623977
75.7113 0.647625
75.8114 0.600695
75.9113 0.620822
76.0113 0.631828
76.1114 0.621904
76.2113 0.5396639999999999
76.3114 0.586344
76.4113 0.551804
76.5113 0.561565
76.6114 0.577222
76.7113 0.5317270000000001
76.8114 0.5575990000000001
76.9113 0.577415
77.0113 0.527785
77.1114 0.533548
77.2113 0.520076
77.3114 0.539127
77.4113 0.526905
77.5113 0.5053409999999999
77.6114 0.539465
77.7113 0.523381
77.8114 0.516697
77.9113 0.518895
78.0113 0.53254
78.1114 0.5364810000000001
78.2113 0.516881
78.3114 0.5308200000000001
78.4113 0.546816
78.5113 0.55451
78.6114 0.549642
78.7113 0.5552940000000001
78.8114 0.528007
78.9113 0.540669
79.0113 0.561899
79.1114 0.550509
79.2113 0.5603980000000001
79.3114 0.56039
79.4113 0.5571569999999999
79.5113 0.56913
79.6114 0.569641
79.7113 0.571978
79.8114 0.568257
79.9113 0.587916
80.0113 0.549625
80.1114 0.545647
80.2113 0.5524519999999999
80.3114 0.5835250000000001
80.4113 0.524738
80.5113 0.546883
80.6114 0.518304
80.7113 0.531942
80.8114 0.567174
80.9113 0.493151
81.0113 0.515712
81.1114 0.530728
81.2113 0.48168099999999997
81.3114 0.482371
81.4113 0.473093
81.5113 0.463527
81.6114 0.416912
81.7113 0.467599
81.8114 0.43822099999999997
81.9113 0.423656
82.0113 0.445469
82.1114 0.388918
82.2113 0.403873
82.3114 0.365723
82.4113 0.374235
82.5113 0.323897
82.6114 0.325563
82.7113 0.324381
82.8114 0.313739
82.9113 0.297848
83.0113 0.302187
83.1114 0.281252
83.2113 0.235851
83.3114 0.303594
83.4113 0.258266
83.5113 0.238563
83.6114 0.249441
83.7113 0.24690199999999998
83.8114 0.229537
83.9113 0.255745
84.0113 0.210774
84.1114 0.228185
84.2113 0.26434100000000005
84.3114 0.252242
84.4113 0.23652800000000002
84.5113 0.226691
84.6114 0.20658
84.7113 0.250334
84.8114 0.27866399999999997
84.9113 0.284821
85.0113 0.23686100000000002
85.1114 0.22912200000000002
85.2113 0.25823399999999996
85.3114 0.318837
85.4113 0.276226
85.5113 0.337743
85.6114 0.277259
85.7113 0.34162
85.8114 0.325145
85.9113 0.33554199999999995
86.0113 0.325116
86.1114 0.391102
86.2113 0.344271
86.3114 0.354395
86.4113 0.387351
86.5113 0.447275
86.6114 0.37339
86.7113 0.36847599999999997
86.8114 0.40839400000000003
86.9113 0.40631
87.0113 0.384784
87.1114 0.378416
87.2113 0.421304
87.3114 0.398955
87.4113 0.468009
87.5113 0.416381
87.6114 0.37088800000000005
87.7113 0.35744600000000004
87.8114 0.372228
87.9113 0.383942
88.0113 0.34158700000000003
88.1114 0.366149
88.2113 0.278584
88.3114 0.351168
88.4113 0.32619899999999996
88.5113 0.312376
88.6114 0.269826
88.7113 0.28633499999999995
88.8114 0.317472
88.9113 0.297666
89.0113 0.30280199999999996
89.1114 0.24371099999999998
89.2113 0.278566
89.3114 0.237678
89.4113 0.28246
89.5113 0.229413
89.6114 0.259543
89.7113 0.192643
89.8114 0.210979
89.9113 0.246939
90.0113 0.209047
90.1114 0.250733
90.2113 0.21200200000000002
90.3114 0.18382500000000002
90.4113 0.274171
90.5113 0.269206
90.6114 0.233171
90.7113 0.230387
90.8114 0.264254
90.9113 0.244588
91.0113 0.230586
91.1114 0.252707
91.2113 0.25496
91.3114 0.227524
91.4113 0.23077499999999998
91.5113 0.226049
91.6114 0.231162
91.7113 0.225934
91.8114 0.267854
91.9113 0.247182
92.0113 0.233924
92.1114 0.251019
92.2113 0.230644
92.3114 0.188543
92.4113 0.223708
92.5113 0.20977200000000001
92.6114 0.210438
92.7113 0.20137999999999998
92.8114 0.163142
92.9113 0.177792
93.0113 0.147168
93.1114 0.164137
93.2113 0.15785200000000002
93.3114 0.150598
93.4113 0.119836
93.5113 0.140859
93.6114 0.13397
93.7113 0.10665
93.8114 0.105337
93.9113 0.131327
94.0113 0.08024899999999999
94.1114 0.07986
94.2113 0.098366
94.3114 0.084323
94.4113 0.041447000000000005
94.5113 0.058574
94.6114 0.065062
94.7113 0.054917
94.8114 0.037845
94.9113 0.046498
95.0113 0.012253
95.1114 0.028125
95.2113 0.02387
95.3114 0.033446000000000004
95.4113 0.011266
95.5113 0.00529
95.6114 0.005011
95.7113 0.035967
95.8114 0.037624
95.9113 0.018831999999999998
96.0113 0.029747
96.1114 0.005081
96.2113 0.020582
96.3114 0.009172
96.4113 0.031856999999999996
96.5113 0.008044
96.6114 0.0
96.7113 0.005311
96.8114 0.00527
96.9113 0.019769000000000002
97.0113 0.016169
97.1114 0.005539
97.2113 0.006561
97.3114 0.006193
97.4113 0.007752
97.5113 0.0
97.6114 0.005452
97.7113 0.010717
97.8114 0.0
97.9113 0.00542
98.0113 0.005091
98.1114 0.005207
98.2113 0.010674999999999999
98.3114 0.004636
98.4113 0.0052450000000000005
98.5113 0.0
98.6114 0.0
98.7113 0.0
98.8114 0.005002
98.9113 0.0
99.0113 0.0
99.1114 0.0070669999999999995
99.2113 0.0
99.3114 0.012058
99.4113 0.003328
99.5113 0.006628
99.6114 0.006872
99.7113 0.017975
99.8114 0.015149
99.9113 0.019993
100.011 0.020324
100.111 0.017388999999999998
100.211 0.024339
100.311 0.0256
100.411 0.034079
100.511 0.065283
100.611 0.050562
100.711 0.050971999999999996
100.811 0.07130700000000001
100.911 0.051323999999999995
101.011 0.083646
101.111 0.104908
101.211 0.08983400000000001
101.311 0.102077
101.411 0.113569
101.511 0.116956
101.611 0.121488
101.711 0.154205
101.811 0.141208
101.911 0.15049900000000002
102.011 0.165895
102.111 0.163835
102.211 0.213369
102.311 0.16263
102.411 0.172887
102.511 0.218778
102.611 0.201804
102.711 0.20302
102.811 0.239161
102.911 0.23344
103.011 0.242215
103.111 0.246012
103.211 0.205112
103.311 0.280862
103.411 0.233485
103.511 0.285968
103.611 0.25143
103.711 0.283358
103.811 0.27342500000000003
103.911 0.246617
104.011 0.240557
104.111 0.22976000000000002
