-46.6444    0.021289
-46.5444    0.007207
-46.4444    0.008017999999999999
-46.3444    0.010401
-46.2444    0.009371
-46.1444    0.009351
-46.0444    0.008277000000000001
-45.9444    0.00709
-45.8444    0.006679
-45.7444    0.006259
-45.6444    0.00356
-45.5444    0.004425
-45.4444    0.0025329999999999997
-45.3444    0.002202
-45.2444    0.001866
-45.1444    0.000767
-45.0444    0.0008719999999999999
-44.9444    3.1e-05
-44.8444    0.000387
-44.7444    0.00030299999999999994
-44.6444    0.000154
-44.5444    0.0
-44.4444    0.0
-44.3444    0.0
-44.2444    0.0
-44.1444    0.0
-44.0444    0.0
-43.9444    0.0
-43.8444    0.0
-43.7444    0.0
-43.6444    0.0
-43.5444    0.0
-43.4444    0.0
-43.3444    0.0
-43.2444    0.0
-43.1444    0.0
-43.0444    0.0
-42.9444    0.0
-42.8444    0.0
-42.7444    0.0
-42.6444    0.0
-42.5444    0.0
-42.4444    0.0
-42.3444    0.0
-42.2444    0.0
-42.1444    0.0
-42.0444    0.0
-41.9444    0.0
-41.8444    0.0
-41.7444    0.0
-41.6444    0.0
-41.5444    0.0
-41.4444    0.0
-41.3444    0.0
-41.2444    0.0
-41.1444    0.0
-41.0444    0.0
-40.9444    0.0
-40.8444    0.0
-40.7444    0.0
-40.6444    0.0
-40.5444    0.0
-40.4444    0.0
-40.3444    0.0
-40.2444    0.0
-40.1444    0.0
-40.0444    0.0
-39.9444    0.0
-39.8444    0.0
-39.7444    0.0
-39.6444    0.0
-39.5444    0.0
-39.4444    0.0
-39.3444    0.0
-39.2444    0.0
-39.1444    0.0
-39.0444    0.0
-38.9444    0.0
-38.8444    0.0
-38.7444    0.0
-38.6444    0.0
-38.5444    0.0
-38.4444    0.0
-38.3444    0.0
-38.2444    0.0
-38.1444    0.0
-38.0444    0.0
-37.9444    0.0
-37.8444    0.0
-37.7444    0.0
-37.6444    0.0
-37.5444    0.0
-37.4444    0.0
-37.3444    0.0
-37.2444    0.0
-37.1444    0.0
-37.0444    0.0
-36.9444    0.0
-36.8444    0.0
-36.7444    0.0
-36.6444    0.0
-36.5444    0.0
-36.4444    0.0
-36.3444    0.0
-36.2444    0.0
-36.1444    0.0
-36.0444    0.0
-35.9444    0.0
-35.8444    0.0
-35.7444    0.0
-35.6444    0.0
-35.5444    0.0
-35.4444    0.0
-35.3444    0.0
-35.2444    0.0
-35.1444    0.0
-35.0444    0.0
-34.9444    0.0
-34.8444    0.0
-34.7444    0.0
-34.6444    0.0
-34.5444    0.0
-34.4444    0.0
-34.3444    0.0
-34.2444    0.0
-34.1444    0.0
-34.0444    0.0
-33.9444    0.0
-33.8444    0.0
-33.7444    0.0
-33.6444    0.0
-33.5444    0.0
-33.4444    0.0
-33.3444    0.0
-33.2444    0.0
-33.1444    0.0
-33.0444    0.0
-32.9444    0.0
-32.8444    0.0
-32.7444    0.0
-32.6444    0.0
-32.5444    0.0
-32.4444    0.0
-32.3444    0.0
-32.2444    0.0
-32.1444    0.0
-32.0444    0.0
-31.9444    0.0
-31.8444    0.0
-31.7444    0.0
-31.6444    0.0
-31.5444    0.0
-31.4444    0.0
-31.3444    0.0
-31.2444    0.0
-31.1444    0.028837
-31.0444    0.019012
-30.9444    0.047453999999999996
-30.8444    0.038193
-30.7444    0.143539
-30.6444    0.114622
-30.5444    0.162818
-30.4444    0.21073999999999998
-30.3444    0.39342
-30.2444    0.38378599999999996
-30.1444    0.670371
-30.0444    0.7103929999999999
-29.9444    0.74933
-29.8444    0.9704340000000001
-29.7444    0.923831
-29.6444    0.9625179999999999
-29.5444    1.058367
-29.4444    1.078947
-29.3444    0.858317
-29.2444    1.003225
-29.1444    0.83881
-29.0444    0.530891
-28.9444    0.49018
-28.8444    0.364554
-28.7444    0.31431
-28.6444    0.276713
-28.5444    0.262693
-28.4444    0.23294700000000002
-28.3444    0.27509900000000004
-28.2444    0.485236
-28.1444    0.46411800000000003
-28.0444    0.6085450000000001
-27.9444    0.8827119999999999
-27.8444    1.034443
-27.7444    1.0981880000000002
-27.6444    1.470402
-27.5444    1.3603480000000001
-27.4444    1.829537
-27.3444    1.811555
-27.2444    1.511227
-27.1444    1.8446640000000003
-27.0444    1.644858
-26.9444    1.5190110000000001
-26.8444    1.426733
-26.7444    1.3274599999999999
-26.6444    1.202602
-26.5444    0.8220280000000001
-26.4444    0.7043400000000001
-26.3444    0.44304600000000005
-26.2444    0.34333199999999997
-26.1444    0.26197299999999996
-26.0444    0.21660300000000002
-25.9444    0.108353
-25.8444    0.126724
-25.7444    0.036219
-25.6444    0.081528
-25.5444    0.027085
-25.4444    2.6e-05
-25.3444    0.018338
-25.2444    0.00016399999999999997
-25.1444    0.000161
-25.0444    0.0002
-24.9444    0.009366
-24.8444    0.027914
-24.7444    0.054676
-24.6444    0.047012
-24.5444    0.109324
-24.4444    0.119417
-24.3444    0.23747500000000002
-24.2444    0.229034
-24.1444    0.412212
-24.0444    0.520729
-23.9444    0.514258
-23.8444    0.652172
-23.7444    0.671407
-23.6444    0.6342679999999999
-23.5444    0.893937
-23.4444    0.838615
-23.3444    0.8310219999999999
-23.2444    0.849577
-23.1444    0.9244809999999999
-23.0444    0.804036
-22.9444    0.7218200000000001
-22.8444    0.6940470000000001
-22.7444    0.500488
-22.6444    0.43592499999999995
-22.5444    0.31539
-22.4444    0.250787
-22.3444    0.22300199999999998
-22.2444    0.130502
-22.1444    0.121074
-22.0444    0.111572
-21.9444    0.054915000000000005
-21.8444    0.10966499999999998
-21.7444    0.09284499999999998
-21.6444    0.159966
-21.5444    0.230439
-21.4444    0.282098
-21.3444    0.39691199999999993
-21.2444    0.437381
-21.1444    0.629602
-21.0444    0.555063
-20.9444    0.7050000000000001
-20.8444    0.8811249999999999
-20.7444    1.009766
-20.6444    0.8678030000000001
-20.5444    0.981239
-20.4444    0.8773670000000001
-20.3444    0.960648
-20.2444    0.750155
-20.1444    0.604724
-20.0444    0.550052
-19.9444    0.486283
-19.8444    0.367661
-19.7444    0.238838
-19.6444    0.211333
-19.5444    0.128581
-19.4444    0.101305
-19.3444    0.082506
-19.2444    0.027610000000000003
-19.1444    0.045991
-19.0444    0.036701
-18.9444    0.018045
-18.8444    0.045263
-18.7444    0.081224
-18.6444    0.09057199999999999
-18.5444    0.117483
-18.4444    0.19871
-18.3444    0.20788700000000004
-18.2444    0.35242100000000004
-18.1444    0.280384
-18.0444    0.48868500000000004
-17.9444    0.470783
-17.8444    0.42506299999999997
-17.7444    0.38982799999999995
-17.6444    0.281092
-17.5444    0.399213
-17.4444    0.507408
-17.3444    0.318075
-17.2444    0.22691100000000003
-17.1444    0.27295499999999995
-17.0444    0.263069
-16.9444    0.27299999999999996
-16.8444    0.16369
-16.7444    0.100156
-16.6444    0.10022299999999999
-16.5444    0.12748
-16.4444    0.054737
-16.3444    0.009159
-16.2444    0.027377
-16.1444    0.009097000000000001
-16.0444    0.009094
-15.9444    0.009163
-15.8444    1.8e-05
-15.7444    8.900000000000001e-05
-15.6444    7.900000000000001e-05
-15.5444    0.000242
-15.4444    0.000447
-15.3444    0.0005870000000000001
-15.2444    0.0008709999999999999
-15.1444    0.0010769999999999998
-15.0444    0.010729
-14.9444    0.0024999999999999996
-14.8444    0.002847
-14.7444    0.042116
-14.6444    0.069898
-14.5444    0.076872
-14.4444    0.12182
-14.3444    0.151489
-14.2444    0.164804
-14.1444    0.356931
-14.0444    0.46957699999999997
-13.9444    0.450604
-13.8444    0.590746
-13.7444    0.7793390000000001
-13.6444    0.789313
-13.5444    0.7893060000000001
-13.4444    0.970732
-13.3444    0.737231
-13.2444    0.983557
-13.1444    0.94516
-13.0444    0.920086
-12.9444    0.826204
-12.8444    0.803364
-12.7444    0.623266
-12.6444    0.61551
-12.5444    0.62126
-12.4444    0.5591470000000001
-12.3444    0.527148
-12.2444    0.616166
-12.1444    0.631572
-12.0444    0.617725
-11.9444    0.747351
-11.8444    0.804119
-11.7444    0.591343
-11.6444    0.532366
-11.5444    0.428254
-11.4444    0.37784699999999993
-11.3444    0.28075
-11.2444    0.242463
-11.1444    0.230738
-11.0444    0.283959
-10.9444    0.287323
-10.8444    0.288258
-10.7444    0.570103
-10.6444    0.579083
-10.5444    0.771195
-10.4444    0.887996
-10.3444    1.032235
-10.2444    1.211425
-10.1444    1.2767549999999999
-10.0444    1.360048
-9.94442    1.627784
-9.84442    2.068858
-9.74442    2.102956
-9.64442    2.482713
-9.54442    2.565325
-9.44442    2.765383
-9.34442    2.9182889999999997
-9.24442    2.7005239999999997
-9.14442    2.512112
-9.04442    2.32493
-8.94442    2.059019
-8.84442    1.6963589999999997
-8.74442    1.4071889999999998
-8.64442    1.275301
-8.54442    0.9675229999999999
-8.44442    1.120462
-8.34442    0.919832
-8.24442    0.9042890000000001
-8.14442    0.738463
-8.04442    0.5885739999999999
-7.94442    0.702185
-7.84442    0.615874
-7.74442    0.582392
-7.64442    0.534222
-7.54442    0.552096
-7.44442    0.715711
-7.34442    0.7883699999999999
-7.24442    0.7687870000000001
-7.14442    1.0292620000000001
-7.04442    1.021204
-6.94442    1.2802850000000001
-6.84442    1.522285
-6.74442    1.7714830000000001
-6.64442    1.9585740000000003
-6.54442    2.304633
-6.44442    2.724885
-6.34442    2.964731
-6.24442    3.5372939999999997
-6.14442    3.697277
-6.04442    3.873762
-5.94442    4.074036
-5.84442    4.353684
-5.74442    4.126649
-5.64442    4.30458
-5.54442    4.268291
-5.44442    4.287418
-5.34442    4.267113
-5.24442    4.329561
-5.14442    4.199767
-5.04442    4.080611
-4.94442    3.932619
-4.84442    3.7675270000000003
-4.74442    3.3082730000000002
-4.64442    3.353468
-4.54442    2.826921
-4.44442    2.5354669999999997
-4.34442    2.0892809999999997
-4.24442    2.108142
-4.14442    1.6469250000000002
-4.04442    1.297094
-3.94442    1.021313
-3.84442    0.9020279999999999
-3.74442    0.771244
-3.64442    0.7904629999999999
-3.54442    0.715088
-3.44442    0.7058300000000001
-3.34442    0.66567
-3.24442    0.772173
-3.14442    0.857924
-3.04442    1.1044720000000001
-2.94442    1.135022
-2.84442    1.30647
-2.74442    1.50908
-2.64442    1.791289
-2.54442    1.9169669999999996
-2.44442    2.033078
-2.34442    2.090928
-2.24442    2.150378
-2.14442    2.135865
-2.04442    2.398466
-1.94442    2.3747270000000005
-1.84442    2.4344740000000002
-1.74442    2.392541
-1.64442    2.332313
-1.54442    2.3279910000000004
-1.44442    2.288763
-1.34442    2.21443
-1.24442    1.8934850000000003
-1.14442    2.0880179999999995
-1.04442    2.038
-0.944419    1.733935
-0.844419    1.716595
-0.744419    1.449776
-0.644419    1.314327
-0.544419    1.128989
-0.444419    1.0519260000000001
-0.344419    0.9050309999999999
-0.244419    0.770243
-0.144419    0.652965
-0.044419    0.42703800000000003
0.055581    0.36894999999999994
0.155581    0.20863400000000001
0.255581    0.143778
0.355581    0.07369099999999999
0.455581    0.05347199999999999
0.555581    0.036117
0.655581    0.0
0.755581    0.0
0.855581    0.0
0.955581    0.0
1.05558    0.009556
1.15558    0.0
1.25558    0.0
1.35558    0.0
1.45558    0.0
1.55558    0.0
1.65558    0.0
1.75558    0.0
1.85558    0.0
1.95558    0.0
2.05558    0.0
2.15558    0.0
2.25558    0.0
2.35558    0.0
2.45558    0.0
2.55558    0.0
2.65558    0.0
2.75558    0.0
2.85558    0.0
2.95558    0.0
3.05558    0.0
3.15558    0.0
3.25558    0.0
3.35558    0.0
3.45558    0.0
3.55558    0.0
3.65558    0.0
3.75558    0.0
3.85558    0.0
3.95558    0.0
4.05558    0.0
4.15558    0.0
4.25558    0.025983
4.35558    0.035391
4.45558    0.025071999999999997
4.55558    0.017757000000000002
4.65558    0.07700699999999999
4.75558    0.07702500000000001
4.85558    0.09486900000000001
4.95558    0.10355299999999999
5.05558    0.10919799999999999
5.15558    0.21984900000000002
5.25558    0.29144100000000006
5.35558    0.29839499999999997
5.45558    0.449325
5.55558    0.482097
5.65558    0.5349189999999999
5.75558    0.5393859999999999
5.85558    0.6613559999999999
5.95558    0.775493
6.05558    0.759777
6.15558    0.877021
6.25558    0.941562
6.35558    0.965184
6.45558    0.95137
6.55558    1.0465740000000001
6.65558    1.037324
6.75558    0.965982
6.85558    1.0321189999999998
6.95558    1.03305
7.05558    1.0996780000000002
7.15558    1.1981739999999999
7.25558    1.120332
7.35558    1.107289
7.45558    1.160052
7.55558    1.1694419999999999
7.65558    1.2092649999999998
7.75558    1.1095389999999998
7.85558    1.086425
7.95558    1.210985
8.05558    1.093948
8.15558    1.163392
8.25558    1.07085
8.35558    1.051114
8.45558    0.996148
8.55558    0.887934
8.65558    0.996021
8.75558    0.923827
8.85558    0.9573630000000001
8.95558    0.9631390000000001
9.05558    0.978217
9.15558    0.9246260000000001
9.25558    0.902015
9.35558    0.8824139999999999
9.45558    0.897534
9.55558    0.837656
9.65558    0.807172
9.75558    0.7995430000000001
9.85558    0.805118
9.95558    0.864528
10.0556    0.832726
10.1556    0.892765
10.2556    0.936967
10.3556    0.9888139999999999
10.4556    0.9858370000000001
10.5556    1.049289
10.6556    1.121822
10.7556    1.146934
10.8556    1.204327
10.9556    1.232254
11.0556    1.318189
11.1556    1.251974
11.2556    1.2665549999999999
11.3556    1.335509
11.4556    1.2603379999999997
11.5556    1.257989
11.6556    1.294349
11.7556    1.207487
11.8556    1.2140360000000001
11.9556    1.152431
12.0556    1.118067
12.1556    1.077569
12.2556    1.079829
12.3556    1.031027
12.4556    1.0535100000000002
12.5556    0.971398
12.6556    0.935511
12.7556    0.9254990000000001
12.8556    0.8422670000000001
12.9556    0.8275710000000001
13.0556    0.776333
13.1556    0.7245529999999999
13.2556    0.741433
13.3556    0.650662
13.4556    0.655039
13.5556    0.574847
13.6556    0.5592119999999999
13.7556    0.526329
13.8556    0.45357300000000006
13.9556    0.47369800000000006
14.0556    0.454765
14.1556    0.42356299999999997
14.2556    0.421523
14.3556    0.410026
14.4556    0.413143
14.5556    0.40157299999999996
14.6556    0.395262
14.7556    0.412105
14.8556    0.41235800000000006
14.9556    0.38560500000000003
15.0556    0.39484699999999995
15.1556    0.404924
15.2556    0.402675
15.3556    0.41556800000000005
15.4556    0.418903
15.5556    0.440278
15.6556    0.448795
15.7556    0.475024
15.8556    0.48221400000000003
15.9556    0.51038
16.0556    0.547551
16.1556    0.544459
16.2556    0.626377
16.3556    0.651602
16.4556    0.6539699999999999
16.5556    0.7655540000000001
16.6556    0.7715700000000001
16.7556    0.8085359999999999
16.8556    0.845083
16.9556    0.9071710000000001
17.0556    0.9464460000000001
17.1556    0.926753
17.2556    0.973484
17.3556    0.994993
17.4556    0.964769
17.5556    1.0262229999999999
17.6556    0.951616
17.7556    1.030019
17.8556    0.991112
17.9556    0.995384
18.0556    1.004235
18.1556    0.980974
18.2556    0.982406
18.3556    0.970133
18.4556    0.9619920000000001
18.5556    1.042048
18.6556    0.973398
18.7556    1.01854
18.8556    1.000289
18.9556    0.994876
19.0556    1.029817
19.1556    1.00059
19.2556    1.0451300000000001
19.3556    1.063938
19.4556    1.089793
19.5556    1.05785
19.6556    1.172103
19.7556    1.059342
19.8556    1.176841
19.9556    1.121633
20.0556    1.146532
20.1556    1.168953
20.2556    1.165786
20.3556    1.214383
20.4556    1.170031
20.5556    1.212663
20.6556    1.1504999999999999
20.7556    1.258754
20.8556    1.230943
20.9556    1.184055
21.0556    1.282582
21.1556    1.226774
21.2556    1.227403
21.3556    1.254437
21.4556    1.2713889999999999
21.5556    1.2480060000000002
21.6556    1.274124
21.7556    1.26668
21.8556    1.212466
21.9556    1.280934
22.0556    1.284118
22.1556    1.258069
22.2556    1.283951
22.3556    1.2925929999999999
22.4556    1.258317
22.5556    1.270338
22.6556    1.220777
22.7556    1.2776399999999999
22.8556    1.2975290000000002
22.9556    1.29773
23.0556    1.27658
23.1556    1.251835
23.2556    1.273432
23.3556    1.228698
23.4556    1.272314
23.5556    1.294662
23.6556    1.264314
23.7556    1.220964
23.8556    1.3034299999999999
23.9556    1.187085
24.0556    1.2528089999999998
24.1556    1.278111
24.2556    1.2384410000000001
24.3556    1.2433929999999997
24.4556    1.228209
24.5556    1.179046
24.6556    1.243233
24.7556    1.2242169999999999
24.8556    1.2043
24.9556    1.278817
25.0556    1.2105210000000002
25.1556    1.178993
25.2556    1.207421
25.3556    1.2459209999999998
25.4556    1.153152
25.5556    1.201591
25.6556    1.221374
25.7556    1.218796
25.8556    1.1652719999999999
25.9556    1.1946100000000002
26.0556    1.193706
26.1556    1.212216
26.2556    1.1941300000000001
26.3556    1.183453
26.4556    1.153881
26.5556    1.248747
26.6556    1.216127
26.7556    1.1582510000000001
26.8556    1.2724950000000002
26.9556    1.1257819999999998
27.0556    1.2422259999999998
27.1556    1.1516359999999999
27.2556    1.213395
27.3556    1.1901810000000002
27.4556    1.24955
27.5556    1.212207
27.6556    1.175106
27.7556    1.202242
27.8556    1.18242
27.9556    1.147617
28.0556    1.201618
28.1556    1.207438
28.2556    1.162907
28.3556    1.1907120000000002
28.4556    1.222383
28.5556    1.193795
28.6556    1.182541
28.7556    1.1279439999999998
28.8556    1.208058
28.9556    1.1203130000000001
29.0556    1.1943679999999999
29.1556    1.174426
29.2556    1.1466939999999999
29.3556    1.1737279999999999
29.4556    1.1633019999999998
29.5556    1.1549009999999997
29.6556    1.139535
29.7556    1.17097
29.8556    1.161621
29.9556    1.113679
30.0556    1.150304
30.1556    1.148114
30.2556    1.104579
30.3556    1.1195359999999999
30.4556    1.1348
30.5556    1.088353
30.6556    1.0987829999999998
30.7556    1.1305079999999998
30.8556    1.073588
30.9556    1.119804
31.0556    1.0543580000000001
31.1556    1.109289
31.2556    1.0752140000000001
31.3556    1.0747929999999999
31.4556    1.0620979999999998
31.5556    1.046117
31.6556    1.06248
31.7556    1.075977
31.8556    1.04539
31.9556    1.0328810000000002
32.0556    1.033617
32.1556    1.049618
32.2556    1.058983
32.3556    1.017356
32.4556    1.003861
32.5556    1.043287
32.6556    0.964764
32.7556    0.997948
32.8556    1.06588
32.9556    0.944573
33.0556    0.961867
33.1556    0.956272
33.2556    0.963077
33.3556    0.961879
33.4556    1.021377
33.5556    0.9153979999999999
33.6556    0.964391
33.7556    0.9547819999999999
33.8556    0.9436819999999999
33.9556    0.944108
34.0556    0.907255
34.1556    0.9438000000000001
34.2556    0.906372
34.3556    0.943881
34.4556    0.927741
34.5556    0.9310990000000001
34.6556    0.918716
34.7556    0.913095
34.8556    0.905787
34.9556    0.9292710000000001
35.0556    0.882825
35.1556    0.9358529999999999
35.2556    0.9133500000000001
35.3556    0.951732
35.4556    0.88739
35.5556    0.9400919999999999
35.6556    0.8954869999999999
35.7556    0.879438
35.8556    0.932233
35.9556    0.882433
36.0556    0.961539
36.1556    0.9510719999999999
36.2556    0.875167
36.3556    0.943563
36.4556    0.93109
36.5556    0.9305059999999999
36.6556    0.916147
36.7556    0.9150670000000001
36.8556    0.9392790000000001
36.9556    0.9548349999999999
37.0556    0.90018
37.1556    0.9449579999999999
37.2556    0.942939
37.3556    0.904134
37.4556    0.916223
37.5556    0.926728
37.6556    0.9078280000000001
37.7556    0.919465
37.8556    0.8998919999999999
37.9556    0.856044
38.0556    0.9395089999999999
38.1556    0.863177
38.2556    0.914955
38.3556    0.828491
38.4556    0.886211
38.5556    0.8429679999999999
38.6556    0.854719
38.7556    0.845759
38.8556    0.826194
38.9556    0.8197679999999999
39.0556    0.82118
39.1556    0.798765
39.2556    0.8195399999999999
39.3556    0.799858
39.4556    0.774119
39.5556    0.7516649999999999
39.6556    0.770407
39.7556    0.757252
39.8556    0.748537
39.9556    0.736382
40.0556    0.713322
40.1556    0.7360659999999999
40.2556    0.701707
40.3556    0.722693
40.4556    0.720722
40.5556    0.676657
40.6556    0.663059
40.7556    0.695945
40.8556    0.639792
40.9556    0.665033
41.0556    0.623281
41.1556    0.6515259999999999
41.2556    0.639633
41.3556    0.612414
41.4556    0.605472
41.5556    0.5896889999999999
41.6556    0.5934750000000001
41.7556    0.557995
41.8556    0.580824
41.9556    0.607472
42.0556    0.570207
42.1556    0.519135
42.2556    0.553111
42.3556    0.521903
42.4556    0.557394
42.5556    0.5177200000000001
42.6556    0.5108590000000001
42.7556    0.48270099999999994
42.8556    0.515712
42.9556    0.49960599999999994
43.0556    0.491681
43.1556    0.48584999999999995
43.2556    0.493703
43.3556    0.450537
43.4556    0.501282
43.5556    0.44981299999999996
43.6556    0.461897
43.7556    0.454414
43.8556    0.48044099999999995
43.9556    0.456115
44.0556    0.44618
44.1556    0.448347
44.2556    0.457554
44.3556    0.418211
44.4556    0.44921
44.5556    0.416954
44.6556    0.43754499999999996
44.7556    0.406445
44.8556    0.447709
44.9556    0.40993899999999994
45.0556    0.42611399999999994
45.1556    0.38973800000000003
45.2556    0.413728
45.3556    0.40901
45.4556    0.39197
45.5556    0.41737500000000005
45.6556    0.39021599999999995
45.7556    0.39667800000000003
45.8556    0.387424
45.9556    0.385431
46.0556    0.372918
46.1556    0.367343
46.2556    0.362337
46.3556    0.378428
46.4556    0.345492
46.5556    0.37772300000000003
46.6556    0.340721
46.7556    0.336163
46.8556    0.32818899999999995
46.9556    0.36374800000000007
47.0556    0.32104699999999997
47.1556    0.34746699999999997
47.2556    0.31455599999999995
47.3556    0.33044599999999996
47.4556    0.314913
47.5556    0.328867
47.6556    0.320057
47.7556    0.298137
47.8556    0.297248
47.9556    0.304122
48.0556    0.320992
48.1556    0.30053700000000005
48.2556    0.28729
48.3556    0.28032700000000005
48.4556    0.29801099999999997
48.5556    0.278517
48.6556    0.279351
48.7556    0.288748
48.8556    0.29099800000000003
48.9556    0.299471
49.0556    0.277916
49.1556    0.281386
49.2556    0.27146000000000003
49.3556    0.28082
49.4556    0.269096
49.5556    0.27814
49.6556    0.28496900000000003
49.7556    0.27191200000000004
49.8556    0.284521
49.9556    0.265121
50.0556    0.25790700000000005
50.1556    0.271998
50.2556    0.255456
50.3556    0.271723
50.4556    0.257303
50.5556    0.272789
50.6556    0.256423
50.7556    0.275191
50.8556    0.24622999999999995
50.9556    0.26292099999999996
51.0556    0.260235
51.1556    0.255681
51.2556    0.252771
51.3556    0.250807
51.4556    0.26784
51.5556    0.250998
51.6556    0.25737899999999997
51.7556    0.247222
51.8556    0.252419
51.9556    0.26227100000000003
52.0556    0.256724
52.1556    0.247311
52.2556    0.250118
52.3556    0.252421
52.4556    0.252841
52.5556    0.24766799999999997
52.6556    0.25817499999999993
52.7556    0.23683900000000002
52.8556    0.24889999999999998
52.9556    0.24655499999999997
53.0556    0.244797
53.1556    0.237688
53.2556    0.23677900000000002
53.3556    0.23086
53.4556    0.24535600000000002
53.5556    0.23061
53.6556    0.22667500000000002
53.7556    0.230938
53.8556    0.23221999999999998
53.9556    0.220018
54.0556    0.222429
54.1556    0.230808
54.2556    0.218876
54.3556    0.22004100000000004
54.4556    0.226167
54.5556    0.21582900000000002
54.6556    0.22277000000000002
54.7556    0.213171
54.8556    0.21335199999999999
54.9556    0.21732400000000002
55.0556    0.201863
55.1556    0.218393
55.2556    0.21394399999999997
55.3556    0.20681400000000003
55.4556    0.20989199999999997
55.5556    0.196631
55.6556    0.210966
55.7556    0.20739400000000002
55.8556    0.199847
55.9556    0.204681
56.0556    0.192585
56.1556    0.205866
56.2556    0.17959999999999998
56.3556    0.190935
56.4556    0.18431799999999998
56.5556    0.177013
56.6556    0.178928
56.7556    0.17769600000000002
56.8556    0.172449
56.9556    0.174286
57.0556    0.17327
57.1556    0.169464
57.2556    0.173139
57.3556    0.17220200000000002
57.4556    0.17342599999999997
57.5556    0.166184
57.6556    0.161252
57.7556    0.169774
57.8556    0.164775
57.9556    0.158331
58.0556    0.15893000000000002
58.1556    0.158616
58.2556    0.162488
58.3556    0.15477000000000002
58.4556    0.157615
58.5556    0.159019
58.6556    0.162107
58.7556    0.153804
58.8556    0.158337
58.9556    0.17079
59.0556    0.160172
59.1556    0.168913
59.2556    0.17419
59.3556    0.170581
59.4556    0.180314
59.5556    0.178774
59.6556    0.191385
59.7556    0.201575
59.8556    0.20894
59.9556    0.213292
60.0556    0.20409700000000003
60.1556    0.22937599999999997
60.2556    0.22065700000000002
60.3556    0.242593
60.4556    0.239229
60.5556    0.240653
60.6556    0.245027
60.7556    0.255289
60.8556    0.25237000000000004
60.9556    0.252278
61.0556    0.25298699999999996
61.1556    0.253292
61.2556    0.268042
61.3556    0.249315
61.4556    0.257668
61.5556    0.253867
61.6556    0.25001
61.7556    0.257698
61.8556    0.250861
61.9556    0.255551
62.0556    0.24995099999999998
62.1556    0.24408599999999997
62.2556    0.24643
62.3556    0.256637
62.4556    0.245923
62.5556    0.24300100000000002
62.6556    0.24673799999999996
62.7556    0.249581
62.8556    0.242691
62.9556    0.251711
63.0556    0.236433
63.1556    0.249054
63.2556    0.26436099999999996
63.3556    0.234484
63.4556    0.24362799999999998
63.5556    0.247322
63.6556    0.249421
63.7556    0.24130000000000001
63.8556    0.24303999999999998
63.9556    0.251321
64.0556    0.2464
64.1556    0.240064
64.2556    0.24608800000000003
64.3556    0.237318
64.4556    0.24860200000000002
64.5556    0.23983
64.6556    0.231883
64.7556    0.255559
64.8556    0.26621300000000003
64.9556    0.258664
65.0556    0.250017
65.1556    0.260347
65.2556    0.26929099999999995
65.3556    0.27575500000000003
65.4556    0.268505
65.5556    0.27822
65.6556    0.256857
65.7556    0.267404
65.8556    0.278281
65.9556    0.28023200000000004
66.0556    0.273034
66.1556    0.296501
66.2556    0.280843
66.3556    0.291034
66.4556    0.28477
66.5556    0.308354
66.6556    0.294829
66.7556    0.308514
66.8556    0.303277
66.9556    0.290707
67.0556    0.308633
67.1556    0.31247400000000003
67.2556    0.320109
67.3556    0.313959
67.4556    0.313761
67.5556    0.307124
67.6556    0.328521
67.7556    0.31785399999999997
67.8556    0.314896
67.9556    0.337175
68.0556    0.313601
68.1556    0.329481
68.2556    0.327473
68.3556    0.305556
68.4556    0.32788699999999993
68.5556    0.326658
68.6556    0.32054799999999994
68.7556    0.314151
68.8556    0.307254
68.9556    0.320732
69.0556    0.322701
69.1556    0.31162700000000004
69.2556    0.298102
69.3556    0.322678
69.4556    0.30294899999999997
69.5556    0.29299200000000003
69.6556    0.302747
69.7556    0.288455
69.8556    0.290581
69.9556    0.279925
70.0556    0.28885799999999995
70.1556    0.26971700000000004
70.2556    0.26916
70.3556    0.25615299999999996
70.4556    0.26231299999999996
70.5556    0.255174
70.6556    0.262312
70.7556    0.272733
70.8556    0.263988
70.9556    0.24442899999999998
71.0556    0.26332900000000004
71.1556    0.256707
71.2556    0.261711
71.3556    0.233562
71.4556    0.22991699999999998
71.5556    0.24512
71.6556    0.23363699999999998
71.7556    0.240832
71.8556    0.23803100000000002
71.9556    0.22363499999999997
72.0556    0.234049
72.1556    0.225963
72.2556    0.213407
72.3556    0.18725200000000003
72.4556    0.20626300000000003
72.5556    0.192087
72.6556    0.18418800000000002
72.7556    0.15825699999999998
72.8556    0.176844
72.9556    0.16659800000000002
73.0556    0.156086
73.1556    0.176327
73.2556    0.16044899999999998
73.3556    0.157705
73.4556    0.15123199999999998
73.5556    0.144479
73.6556    0.141862
73.7556    0.13402399999999998
73.8556    0.143653
73.9556    0.134602
74.0556    0.133713
74.1556    0.13738899999999998
74.2556    0.142178
74.3556    0.1376
74.4556    0.141595
74.5556    0.1366
74.6556    0.151892
74.7556    0.154056
74.8556    0.143617
74.9556    0.148423
75.0556    0.145898
75.1556    0.163166
75.2556    0.170699
75.3556    0.164861
75.4556    0.16313
75.5556    0.179638
75.6556    0.16736
75.7556    0.17173300000000002
75.8556    0.185041
75.9556    0.15351
76.0556    0.15860200000000002
76.1556    0.16942200000000002
76.2556    0.182267
76.3556    0.15506199999999998
76.4556    0.159285
76.5556    0.16432500000000003
76.6556    0.15265499999999999
76.7556    0.158446
76.8556    0.147737
76.9556    0.15049900000000002
77.0556    0.137072
77.1556    0.123721
77.2556    0.140006
77.3556    0.14026999999999998
77.4556    0.134885
77.5556    0.124613
77.6556    0.138845
77.7556    0.13315
77.8556    0.12215300000000001
77.9556    0.129132
78.0556    0.10835200000000002
78.1556    0.126664
78.2556    0.109762
78.3556    0.109405
78.4556    0.12293599999999999
78.5556    0.11383099999999999
78.6556    0.12662800000000002
78.7556    0.116951
78.8556    0.123639
78.9556    0.122859
79.0556    0.128479
79.1556    0.13084600000000002
79.2556    0.1268
79.3556    0.127353
79.4556    0.11938
79.5556    0.117231
79.6556    0.10732899999999998
79.7556    0.114608
79.8556    0.10132999999999999
79.9556    0.115104
80.0556    0.113361
80.1556    0.109291
80.2556    0.094899
80.3556    0.102958
80.4556    0.081122
80.5556    0.092184
80.6556    0.095352
80.7556    0.09684499999999999
80.8556    0.09289900000000001
80.9556    0.089785
81.0556    0.086312
81.1556    0.090793
81.2556    0.09766399999999999
81.3556    0.10334700000000001
81.4556    0.107953
81.5556    0.097712
81.6556    0.117416
81.7556    0.11478600000000001
81.8556    0.12912400000000002
81.9556    0.130303
82.0556    0.143758
82.1556    0.14572100000000002
82.2556    0.14214
82.3556    0.146632
82.4556    0.141755
82.5556    0.166634
82.6556    0.148659
82.7556    0.161046
82.8556    0.15601500000000001
82.9556    0.191097
83.0556    0.189421
83.1556    0.14394800000000002
83.2556    0.16528099999999998
83.3556    0.177866
83.4556    0.137761
83.5556    0.133627
83.6556    0.197352
83.7556    0.132755
83.8556    0.169786
83.9556    0.16358699999999998
84.0556    0.154982
84.1556    0.12823600000000002
84.2556    0.119854
84.3556    0.10951999999999999
84.4556    0.099339
84.5556    0.103909
84.6556    0.096346
84.7556    0.089414
84.8556    0.084192
84.9556    0.07415200000000001
85.0556    0.07605500000000001
85.1556    0.073541
85.2556    0.083304
85.3556    0.072724
85.4556    0.06619799999999999
85.5556    0.057239000000000005
85.6556    0.044953
85.7556    0.065744
85.8556    0.054039
85.9556    0.06528099999999999
86.0556    0.042591000000000004
86.1556    0.045977000000000004