-46.7725    0.007932999999999999
-46.6725    0.001133
-46.5725    0.0008770000000000001
-46.4725    0.0014080000000000002
-46.3725    0.001618
-46.2725    0.001456
-46.1725    0.0022379999999999995
-46.0725    0.001479
-45.9725    0.002019
-45.8725    0.001016
-45.7725    0.0012250000000000002
-45.6725    0.00116
-45.5725    0.001179
-45.4725    0.000734
-45.3725    0.000566
-45.2725    0.000193
-45.1725    2.4e-05
-45.0725    0.00028300000000000005
-44.9725    1.3000000000000001e-05
-44.8725    0.000171
-44.7725    0.000221
-44.6725    8e-06
-44.5725    4e-06
-44.4725    1e-06
-44.3725    0.000134
-44.2725    0.0
-44.1725    0.0
-44.0725    0.0
-43.9725    0.0
-43.8725    0.0
-43.7725    0.0
-43.6725    0.0
-43.5725    0.0
-43.4725    0.0
-43.3725    0.0
-43.2725    0.0
-43.1725    0.0
-43.0725    0.0
-42.9725    0.0
-42.8725    0.0
-42.7725    0.0
-42.6725    0.0
-42.5725    0.0
-42.4725    0.0
-42.3725    0.0
-42.2725    0.0
-42.1725    0.0
-42.0725    0.0
-41.9725    0.0
-41.8725    0.0
-41.7725    0.0
-41.6725    0.0
-41.5725    0.0
-41.4725    0.0
-41.3725    0.0
-41.2725    0.0
-41.1725    0.0
-41.0725    0.0
-40.9725    0.0
-40.8725    0.0
-40.7725    0.0
-40.6725    0.0
-40.5725    0.0
-40.4725    0.0
-40.3725    0.0
-40.2725    0.0
-40.1725    0.0
-40.0725    0.0
-39.9725    0.0
-39.8725    0.0
-39.7725    0.0
-39.6725    0.0
-39.5725    0.0
-39.4725    0.0
-39.3725    0.0
-39.2725    0.0
-39.1725    0.0
-39.0725    0.0
-38.9725    0.0
-38.8725    0.0
-38.7725    0.0
-38.6725    0.0
-38.5725    0.0
-38.4725    0.0
-38.3725    0.0
-38.2725    0.0
-38.1725    0.0
-38.0725    0.0
-37.9725    0.0
-37.8725    0.0
-37.7725    0.0
-37.6725    0.0
-37.5725    0.0
-37.4725    0.0
-37.3725    0.0
-37.2725    0.0
-37.1725    0.0
-37.0725    0.0
-36.9725    0.0
-36.8725    0.0
-36.7725    0.0
-36.6725    0.0
-36.5725    0.0
-36.4725    0.0
-36.3725    0.0
-36.2725    0.0
-36.1725    0.0
-36.0725    0.0
-35.9725    0.0
-35.8725    0.0
-35.7725    0.0
-35.6725    0.0
-35.5725    0.0
-35.4725    0.0
-35.3725    0.0
-35.2725    0.0
-35.1725    0.0
-35.0725    0.0
-34.9725    0.0
-34.8725    0.0
-34.7725    0.0
-34.6725    0.0
-34.5725    0.0
-34.4725    0.0
-34.3725    0.0
-34.2725    0.0
-34.1725    0.0
-34.0725    0.0
-33.9725    0.0
-33.8725    0.0
-33.7725    0.0
-33.6725    0.0
-33.5725    0.0
-33.4725    0.0
-33.3725    0.0
-33.2725    0.0
-33.1725    0.0
-33.0725    0.0
-32.9725    0.0
-32.8725    0.0
-32.7725    0.0
-32.6725    0.0
-32.5725    0.0
-32.4725    0.0
-32.3725    0.0
-32.2725    0.0
-32.1725    0.0
-32.0725    0.0
-31.9725    0.0
-31.8725    0.0
-31.7725    0.0
-31.6725    0.009555
-31.5725    0.0
-31.4725    0.0
-31.3725    0.019023
-31.2725    0.00968
-31.1725    0.038156
-31.0725    0.03836
-30.9725    0.028739000000000004
-30.8725    0.047871
-30.7725    0.066943
-30.6725    0.11485400000000001
-30.5725    0.171386
-30.4725    0.21110600000000002
-30.3725    0.239345
-30.2725    0.36430799999999997
-30.1725    0.41182300000000005
-30.0725    0.489192
-29.9725    0.528406
-29.8725    0.6716099999999999
-29.7725    0.5860110000000001
-29.6725    0.692446
-29.5725    0.5955
-29.4725    0.74919
-29.3725    0.5947429999999999
-29.2725    0.701568
-29.1725    0.5093300000000001
-29.0725    0.34618099999999996
-28.9725    0.30712399999999995
-28.8725    0.298841
-28.7725    0.276047
-28.6725    0.24614699999999998
-28.5725    0.223109
-28.4725    0.27944
-28.3725    0.313089
-28.2725    0.376753
-28.1725    0.308796
-28.0725    0.5644129999999999
-27.9725    0.663849
-27.8725    0.8068710000000001
-27.7725    0.6149519999999999
-27.6725    0.861577
-27.5725    0.9947119999999999
-27.4725    1.166629
-27.3725    1.210734
-27.2725    1.1020780000000001
-27.1725    1.1379700000000001
-27.0725    1.1273490000000002
-26.9725    0.921162
-26.8725    0.7129500000000001
-26.7725    0.9026850000000001
-26.6725    0.875252
-26.5725    0.7576519999999999
-26.4725    0.46036
-26.3725    0.549567
-26.2725    0.279762
-26.1725    0.225536
-26.0725    0.225258
-25.9725    0.23474899999999999
-25.8725    0.171208
-25.7725    0.072051
-25.6725    0.054116000000000004
-25.5725    0.045013
-25.4725    0.018313000000000003
-25.3725    0.027256
-25.2725    0.009406000000000001
-25.1725    0.009505000000000001
-25.0725    0.001174
-24.9725    0.018093
-24.8725    0.000429
-24.7725    0.018764
-24.6725    0.018559000000000003
-24.5725    0.058926000000000006
-24.4725    0.061901000000000005
-24.3725    0.083507
-24.2725    0.111397
-24.1725    0.184824
-24.0725    0.262177
-23.9725    0.27611399999999997
-23.8725    0.30743
-23.7725    0.47121100000000005
-23.6725    0.42645099999999997
-23.5725    0.55669
-23.4725    0.566313
-23.3725    0.573135
-23.2725    0.652014
-23.1725    0.5929989999999999
-23.0725    0.7419490000000001
-22.9725    0.548929
-22.8725    0.5392140000000001
-22.7725    0.48362
-22.6725    0.37252599999999997
-22.5725    0.297868
-22.4725    0.31627700000000003
-22.3725    0.140075
-22.2725    0.177378
-22.1725    0.140667
-22.0725    0.11002500000000001
-21.9725    0.068358
-21.8725    0.093486
-21.7725    0.046275000000000004
-21.6725    0.056072
-21.5725    0.11133199999999999
-21.4725    0.137479
-21.3725    0.207249
-21.2725    0.278855
-21.1725    0.302537
-21.0725    0.385354
-20.9725    0.406728
-20.8725    0.47251
-20.7725    0.573485
-20.6725    0.577956
-20.5725    0.715261
-20.4725    0.775792
-20.3725    0.605919
-20.2725    0.6526540000000001
-20.1725    0.6000270000000001
-20.0725    0.369192
-19.9725    0.4142239999999999
-19.8725    0.35966700000000007
-19.7725    0.267309
-19.6725    0.221084
-19.5725    0.165835
-19.4725    0.19349299999999997
-19.3725    0.092242
-19.2725    0.092536
-19.1725    0.055467
-19.0725    0.018431
-18.9725    0.036723
-18.8725    0.064403
-18.7725    0.072356
-18.6725    0.018235
-18.5725    0.09934
-18.4725    0.054542
-18.3725    0.117614
-18.2725    0.144826
-18.1725    0.189775
-18.0725    0.180684
-17.9725    0.262728
-17.8725    0.325596
-17.7725    0.33537800000000006
-17.6725    0.32613
-17.5725    0.217924
-17.4725    0.254078
-17.3725    0.281686
-17.2725    0.272532
-17.1725    0.317388
-17.0725    0.190943
-16.9725    0.24523199999999998
-16.8725    0.22719099999999998
-16.7725    0.099985
-16.6725    0.06393099999999999
-16.5725    0.06378299999999999
-16.4725    0.009127
-16.3725    0.063508
-16.2725    0.027246
-16.1725    0.027215000000000003
-16.0725    0.009071000000000001
-15.9725    0.009169
-15.8725    0.000127
-15.7725    0.009292
-15.6725    0.00019899999999999999
-15.5725    0.000674
-15.4725    0.001227
-15.3725    0.0011719999999999999
-15.2725    0.001662
-15.1725    0.00211
-15.0725    0.002499
-14.9725    0.0027
-14.8725    0.021418
-14.7725    0.049158
-14.6725    0.021922
-14.5725    0.012646999999999999
-14.4725    0.049707
-14.3725    0.078947
-14.2725    0.15201
-14.1725    0.19801999999999997
-14.0725    0.19722099999999998
-13.9725    0.367491
-13.8725    0.37556199999999995
-13.7725    0.44196599999999997
-13.6725    0.545917
-13.5725    0.526863
-13.4725    0.739897
-13.3725    0.595773
-13.2725    0.6988329999999999
-13.1725    0.5897249999999999
-13.0725    0.56241
-12.9725    0.6662560000000001
-12.8725    0.6448699999999999
-12.7725    0.506922
-12.6725    0.433319
-12.5725    0.389513
-12.4725    0.346997
-12.3725    0.398962
-12.2725    0.43336600000000003
-12.1725    0.509354
-12.0725    0.487167
-11.9725    0.485348
-11.8725    0.45201600000000003
-11.7725    0.42207700000000004
-11.6725    0.356532
-11.5725    0.352256
-11.4725    0.32092899999999996
-11.3725    0.357894
-11.2725    0.255969
-11.1725    0.221275
-11.0725    0.113287
-10.9725    0.126887
-10.8725    0.330772
-10.7725    0.31384500000000004
-10.6725    0.355221
-10.5725    0.5356329999999999
-10.4725    0.591326
-10.3725    0.713916
-10.2725    0.8832409999999999
-10.1725    0.911169
-10.0725    1.1162329999999998
-9.97247    1.252433
-9.87247    1.5460169999999998
-9.77247    1.576799
-9.67247    1.8191290000000002
-9.57247    1.721536
-9.47247    2.0128909999999998
-9.37247    2.0150189999999997
-9.27247    1.756713
-9.17247    1.719679
-9.07247    1.528397
-8.97247    1.122125
-8.87247    1.2287089999999998
-8.77247    0.9175760000000001
-8.67247    0.76563
-8.57247    0.6764060000000001
-8.47247    0.724481
-8.37247    0.561515
-8.27247    0.652036
-8.17247    0.446422
-8.07247    0.6356010000000001
-7.97247    0.45220899999999997
-7.87247    0.479511
-7.77247    0.446299
-7.67247    0.47215700000000005
-7.57247    0.39051800000000003
-7.47247    0.460375
-7.37247    0.523886
-7.27247    0.548221
-7.17247    0.644288
-7.07247    0.7543300000000001
-6.97247    0.9710240000000001
-6.87247    0.997838
-6.77247    1.311868
-6.67247    1.495683
-6.57247    1.660577
-6.47247    1.891359
-6.37247    2.3666979999999995
-6.27247    2.354151
-6.17247    2.446237
-6.07247    2.5923599999999998
-5.97247    2.785588
-5.87247    2.9720590000000002
-5.77247    2.9461199999999996
-5.67247    3.0816359999999996
-5.57247    3.2392459999999996
-5.47247    3.075116
-5.37247    3.1940589999999998
-5.27247    3.0027939999999997
-5.17247    3.035208
-5.07247    2.9737769999999997
-4.97247    2.8507149999999997
-4.87247    2.5567019999999996
-4.77247    2.550766
-4.67247    2.1064570000000002
-4.57247    1.9572530000000001
-4.47247    1.7428080000000001
-4.37247    1.47967
-4.27247    1.410839
-4.17247    1.144455
-4.07247    0.961853
-3.97247    0.840482
-3.87247    0.856141
-3.77247    0.704138
-3.67247    0.623902
-3.57247    0.631376
-3.47247    0.5442990000000001
-3.37247    0.486107
-3.27247    0.495416
-3.17247    0.570265
-3.07247    0.631701
-2.97247    0.614025
-2.87247    0.78413
-2.77247    0.838643
-2.67247    1.0421569999999998
-2.57247    1.135561
-2.47247    1.3315720000000002
-2.37247    1.3129070000000003
-2.27247    1.5483059999999997
-2.17247    1.510568
-2.07247    1.623832
-1.97247    1.737448
-1.87247    1.7003279999999998
-1.77247    1.770254
-1.67247    1.7254
-1.57247    1.653972
-1.47247    1.6778729999999997
-1.37247    1.497083
-1.27247    1.678294
-1.17247    1.5047550000000003
-1.07247    1.412972
-0.972474    1.430483
-0.872474    1.328211
-0.772474    1.2833679999999998
-0.672474    1.05515
-0.572474    1.0867669999999998
-0.472474    0.8556809999999999
-0.372474    0.873478
-0.272474    0.661545
-0.172474    0.530215
-0.072474    0.449436
0.027526    0.43595800000000007
0.127526    0.26198699999999997
0.227526    0.131604
0.327526    0.116774
0.427526    0.107566
0.527526    0.10062099999999999
0.627526    0.037291000000000005
0.727526    0.026943999999999996
0.827526    0.026640999999999998
0.927526    0.009248
1.02753    0.009172
1.12753    0.0
1.22753    0.0
1.32753    0.009290000000000001
1.42753    0.0
1.52753    0.0
1.62753    0.0
1.72753    0.0
1.82753    0.0
1.92753    0.0
2.02753    0.0
2.12753    0.0
2.22753    0.0
2.32753    0.0
2.42753    0.0
2.52753    0.0
2.62753    0.0
2.72753    0.0
2.82753    0.0
2.92753    0.0
3.02753    0.0
3.12753    0.0
3.22753    0.0
3.32753    0.0
3.42753    0.0
3.52753    0.0
3.62753    0.0
3.72753    0.0
3.82753    0.0
3.92753    0.0
4.02753    0.008969000000000001
4.12753    0.017811
4.22753    0.0
4.32753    0.017069
4.42753    0.008163
4.52753    0.008766
4.62753    0.034801
4.72753    0.042976
4.82753    0.033518
4.92753    0.093903
5.02753    0.066808
5.12753    0.11965399999999998
5.22753    0.16874
5.32753    0.221191
5.42753    0.215026
5.52753    0.39932900000000005
5.62753    0.322115
5.72753    0.412378
5.82753    0.494714
5.92753    0.508564
6.02753    0.441804
6.12753    0.671304
6.22753    0.6168049999999999
6.32753    0.647347
6.42753    0.7141919999999999
6.52753    0.7228270000000001
6.62753    0.635656
6.72753    0.676707
6.82753    0.8349820000000001
6.92753    0.738534
7.02753    0.7527630000000001
7.12753    0.8320430000000001
7.22753    0.701418
7.32753    0.8646
7.42753    0.779515
7.52753    0.763927
7.62753    0.80525
7.72753    0.899249
7.82753    0.797199
7.92753    0.80347
8.02753    0.825643
8.12753    0.845996
8.22753    0.7593610000000001
8.32753    0.826874
8.42753    0.822232
8.52753    0.6723970000000001
8.62753    0.7842560000000001
8.72753    0.784551
8.82753    0.721788
8.92753    0.6871430000000001
9.02753    0.6978869999999999
9.12753    0.6128199999999999
9.22753    0.643701
9.32753    0.6285529999999999
9.42753    0.623802
9.52753    0.622421
9.62753    0.6749749999999999
9.72753    0.601733
9.82753    0.6501
9.92753    0.600646
10.0275    0.654608
10.1275    0.674374
10.2275    0.739903
10.3275    0.7732659999999999
10.4275    0.768699
10.5275    0.799098
10.6275    0.815305
10.7275    0.811462
10.8275    0.870439
10.9275    0.843917
11.0275    0.842177
11.1275    0.819096
11.2275    0.840396
11.3275    0.877296
11.4275    0.880106
11.5275    0.8474659999999999
11.6275    0.820469
11.7275    0.8112279999999998
11.8275    0.826007
11.9275    0.786551
12.0275    0.784764
12.1275    0.7722060000000001
12.2275    0.753568
12.3275    0.740486
12.4275    0.690785
12.5275    0.705334
12.6275    0.6721949999999999
12.7275    0.657861
12.8275    0.63605
12.9275    0.609545
13.0275    0.598581
13.1275    0.565841
13.2275    0.5568420000000001
13.3275    0.5105200000000001
13.4275    0.469568
13.5275    0.45460700000000004
13.6275    0.432933
13.7275    0.407364
13.8275    0.376541
13.9275    0.359809
14.0275    0.342771
14.1275    0.320025
14.2275    0.320902
14.3275    0.29948699999999995
14.4275    0.297814
14.5275    0.300706
14.6275    0.289843
14.7275    0.280746
14.8275    0.28740099999999996
14.9275    0.276758
15.0275    0.27508900000000003
15.1275    0.273959
15.2275    0.28377800000000003
15.3275    0.28863
15.4275    0.296824
15.5275    0.28639499999999996
15.6275    0.297352
15.7275    0.31331600000000004
15.8275    0.33103800000000005
15.9275    0.333773
16.0275    0.36731100000000005
16.1275    0.375909
16.2275    0.39484800000000003
16.3275    0.425275
16.4275    0.45198000000000005
16.5275    0.48722
16.6275    0.483793
16.7275    0.5483279999999999
16.8275    0.5451210000000001
16.9275    0.584642
17.0275    0.607526
17.1275    0.618737
17.2275    0.620931
17.3275    0.62655
17.4275    0.636582
17.5275    0.6585340000000001
17.6275    0.680025
17.7275    0.6639789999999999
17.8275    0.6641190000000001
17.9275    0.6805650000000001
18.0275    0.664428
18.1275    0.676372
18.2275    0.6431020000000001
18.3275    0.685702
18.4275    0.681999
18.5275    0.688106
18.6275    0.675166
18.7275    0.6859169999999999
18.8275    0.696324
18.9275    0.692276
19.0275    0.7132989999999999
19.1275    0.701611
19.2275    0.700731
19.3275    0.7132759999999999
19.4275    0.7259519999999999
19.5275    0.74917
19.6275    0.745329
19.7275    0.7468919999999999
19.8275    0.7807200000000001
19.9275    0.773753
20.0275    0.7661299999999999
20.1275    0.787714
20.2275    0.815679
20.3275    0.816374
20.4275    0.7876770000000001
20.5275    0.831275
20.6275    0.843803
20.7275    0.8377319999999999
20.8275    0.8500829999999999
20.9275    0.865591
21.0275    0.8434379999999999
21.1275    0.8471650000000001
21.2275    0.8769009999999999
21.3275    0.8359
21.4275    0.881609
21.5275    0.890939
21.6275    0.872567
21.7275    0.8841380000000001
21.8275    0.876627
21.9275    0.897884
22.0275    0.922233
22.1275    0.904428
22.2275    0.916772
22.3275    0.9493400000000001
22.4275    0.8763670000000001
22.5275    0.901818
22.6275    0.9590259999999999
22.7275    0.9449730000000001
22.8275    0.9217
22.9275    0.938949
23.0275    0.944367
23.1275    0.899234
23.2275    0.9426859999999999
23.3275    0.9273899999999999
23.4275    0.9082049999999999
23.5275    0.94867
23.6275    0.9289890000000001
23.7275    0.89225
23.8275    0.914558
23.9275    0.9044399999999999
24.0275    0.9257639999999999
24.1275    0.897633
24.2275    0.91248
24.3275    0.9063589999999999
24.4275    0.8749390000000001
24.5275    0.9172640000000001
24.6275    0.869116
24.7275    0.856681
24.8275    0.8776039999999999
24.9275    0.915142
25.0275    0.8661810000000001
25.1275    0.865408
25.2275    0.8798179999999999
25.3275    0.916649
25.4275    0.852007
25.5275    0.8915590000000001
25.6275    0.8694930000000001
25.7275    0.8818790000000001
25.8275    0.841989
25.9275    0.86695
26.0275    0.905974
26.1275    0.8699920000000001
26.2275    0.851349
26.3275    0.895693
26.4275    0.8784400000000001
26.5275    0.899845
26.6275    0.8793110000000001
26.7275    0.858135
26.8275    0.8772369999999999
26.9275    0.870131
27.0275    0.901601
27.1275    0.8774770000000001
27.2275    0.876534
27.3275    0.872491
27.4275    0.8618880000000001
27.5275    0.8859009999999999
27.6275    0.881507
27.7275    0.858193
27.8275    0.858021
27.9275    0.9286320000000001
28.0275    0.86167
28.1275    0.869092
28.2275    0.8621960000000001
28.3275    0.8803019999999999
28.4275    0.8913899999999999
28.5275    0.8165640000000001
28.6275    0.8707820000000001
28.7275    0.84535
28.8275    0.8540909999999999
28.9275    0.8670209999999999
29.0275    0.872872
29.1275    0.878815
29.2275    0.834139
29.3275    0.86965
29.4275    0.859554
29.5275    0.8391660000000001
29.6275    0.8469650000000001
29.7275    0.851515
29.8275    0.863785
29.9275    0.849468
30.0275    0.822862
30.1275    0.830927
30.2275    0.8109989999999999
30.3275    0.8243010000000001
30.4275    0.8499349999999999
30.5275    0.7961739999999999
30.6275    0.8340879999999999
30.7275    0.835072
30.8275    0.793516
30.9275    0.829969
31.0275    0.7696909999999999
31.1275    0.8083450000000001
31.2275    0.8276690000000001
31.3275    0.7618050000000001
31.4275    0.7984880000000001
31.5275    0.787989
31.6275    0.755371
31.7275    0.799515
31.8275    0.776451
31.9275    0.813553
32.0275    0.7723470000000001
32.1275    0.7650300000000001
32.2275    0.7383439999999999
32.3275    0.761437
32.4275    0.747955
32.5275    0.7476510000000001
32.6275    0.7509600000000001
32.7275    0.735842
32.8275    0.7269829999999999
32.9275    0.7242949999999999
33.0275    0.7678290000000001
33.1275    0.720359
33.2275    0.717728
33.3275    0.688097
33.4275    0.7178640000000001
33.5275    0.705629
33.6275    0.6845610000000001
33.7275    0.7084950000000001
33.8275    0.704549
33.9275    0.700706
34.0275    0.6865829999999999
34.1275    0.695631
34.2275    0.6800800000000001
34.3275    0.675771
34.4275    0.673126
34.5275    0.691616
34.6275    0.694956
34.7275    0.660786
34.8275    0.6739339999999999
34.9275    0.66706
35.0275    0.6854819999999999
35.1275    0.644287
35.2275    0.672764
35.3275    0.6585089999999999
35.4275    0.63589
35.5275    0.680073
35.6275    0.607269
35.7275    0.693198
35.8275    0.6535120000000001
35.9275    0.6637630000000001
36.0275    0.633883
36.1275    0.672176
36.2275    0.6621159999999999
36.3275    0.668566
36.4275    0.6823570000000001
36.5275    0.6729529999999999
36.6275    0.6528539999999999
36.7275    0.658913
36.8275    0.650116
36.9275    0.674225
37.0275    0.6518539999999999
37.1275    0.6715139999999999
37.2275    0.658296
37.3275    0.6355520000000001
37.4275    0.638536
37.5275    0.6714969999999999
37.6275    0.6253019999999999
37.7275    0.6330749999999999
37.8275    0.653587
37.9275    0.6127870000000001
38.0275    0.631147
38.1275    0.64091
38.2275    0.6221639999999999
38.3275    0.5912949999999999
38.4275    0.613005
38.5275    0.614657
38.6275    0.5912480000000001
38.7275    0.5789329999999999
38.8275    0.585198
38.9275    0.569712
39.0275    0.582983
39.1275    0.5463579999999999
39.2275    0.560768
39.3275    0.562126
39.4275    0.514686
39.5275    0.530169
39.6275    0.527
39.7275    0.5123599999999999
39.8275    0.530782
39.9275    0.505166
40.0275    0.494295
40.1275    0.479226
40.2275    0.48748
40.3275    0.47564400000000007
40.4275    0.47539400000000004
40.5275    0.47614799999999996
40.6275    0.492269
40.7275    0.43737599999999993
40.8275    0.45974800000000005
40.9275    0.420415
41.0275    0.451722
41.1275    0.421316
41.2275    0.426907
41.3275    0.406932
41.4275    0.44863699999999995
41.5275    0.414271
41.6275    0.403456
41.7275    0.39553299999999997
41.8275    0.38715200000000005
41.9275    0.40125500000000003
42.0275    0.38135600000000003
42.1275    0.37093299999999996
42.2275    0.38061599999999995
42.3275    0.350251
42.4275    0.39057800000000004
42.5275    0.348232
42.6275    0.33989300000000006
42.7275    0.35268299999999997
42.8275    0.342532
42.9275    0.33323200000000003
43.0275    0.337473
43.1275    0.338689
43.2275    0.328359
43.3275    0.331911
43.4275    0.317973
43.5275    0.313705
43.6275    0.314859
43.7275    0.325998
43.8275    0.30711999999999995
43.9275    0.307134
44.0275    0.306198
44.1275    0.28478200000000004
44.2275    0.313663
44.3275    0.289706
44.4275    0.30338299999999996
44.5275    0.291328
44.6275    0.287225
44.7275    0.290473
44.8275    0.28147599999999995
44.9275    0.272571
45.0275    0.278247
45.1275    0.273766
45.2275    0.277883
45.3275    0.277217
45.4275    0.277566
45.5275    0.260278
45.6275    0.25709400000000004
45.7275    0.260907
45.8275    0.262026
45.9275    0.24323799999999998
46.0275    0.260246
46.1275    0.234365
46.2275    0.257493
46.3275    0.24024099999999998
46.4275    0.226497
46.5275    0.22403
46.6275    0.233479
46.7275    0.237777
46.8275    0.231241
46.9275    0.209526
47.0275    0.22154999999999997
47.1275    0.222138
47.2275    0.20774299999999998
47.3275    0.215589
47.4275    0.205575
47.5275    0.20968499999999998
47.6275    0.201481
47.7275    0.204334
47.8275    0.195434
47.9275    0.203565
48.0275    0.20725800000000003
48.1275    0.200063
48.2275    0.189837
48.3275    0.20716099999999998
48.4275    0.198945
48.5275    0.210626
48.6275    0.196983
48.7275    0.19661800000000001
48.8275    0.208545
48.9275    0.19555
49.0275    0.19971000000000003
49.1275    0.212912
49.2275    0.203465
49.3275    0.199709
49.4275    0.202678
49.5275    0.20047700000000002
49.6275    0.204019
49.7275    0.196073
49.8275    0.200683
49.9275    0.18991
50.0275    0.204289
50.1275    0.19682899999999998
50.2275    0.190156
50.3275    0.186526
50.4275    0.191366
50.5275    0.19877
50.6275    0.19507000000000002
50.7275    0.186953
50.8275    0.18619200000000002
50.9275    0.181213
51.0275    0.186688
51.1275    0.189563
51.2275    0.184469
51.3275    0.18443099999999998
51.4275    0.176801
51.5275    0.18463100000000002
51.6275    0.186127
51.7275    0.18396900000000002
51.8275    0.188057
51.9275    0.181996
52.0275    0.18448699999999998
52.1275    0.176606
52.2275    0.18069200000000002
52.3275    0.180651
52.4275    0.189087
52.5275    0.175786
52.6275    0.173538
52.7275    0.17441100000000004
52.8275    0.171133
52.9275    0.18064699999999997
53.0275    0.174575
53.1275    0.17537599999999998
53.2275    0.172412
53.3275    0.179884
53.4275    0.172276
53.5275    0.171064
53.6275    0.167813
53.7275    0.164108
53.8275    0.17307899999999998
53.9275    0.174107
54.0275    0.178045
54.1275    0.166886
54.2275    0.16561
54.3275    0.1701
54.4275    0.16108899999999998
54.5275    0.165329
54.6275    0.168472
54.7275    0.162493
54.8275    0.16258699999999998
54.9275    0.152785
55.0275    0.16186099999999998
55.1275    0.159806
55.2275    0.155949
55.3275    0.14860299999999999
55.4275    0.153175
55.5275    0.143964
55.6275    0.146687
55.7275    0.149959
55.8275    0.140126
55.9275    0.14383400000000002
56.0275    0.147179
56.1275    0.14163199999999998
56.2275    0.149532
56.3275    0.137025
56.4275    0.141905
56.5275    0.13436800000000002
56.6275    0.13844
56.7275    0.13272499999999998
56.8275    0.130853
56.9275    0.130246
57.0275    0.126422
57.1275    0.128361
57.2275    0.128722
57.3275    0.122468
57.4275    0.124677
57.5275    0.12043200000000001
57.6275    0.12151899999999999
57.7275    0.124076
57.8275    0.117582
57.9275    0.11687800000000001
58.0275    0.117315
58.1275    0.115115
58.2275    0.11896100000000001
58.3275    0.11812800000000001
58.4275    0.114068
58.5275    0.11888900000000002
58.6275    0.114153
58.7275    0.12026700000000001
58.8275    0.120648
58.9275    0.12252199999999999
59.0275    0.12112400000000001
59.1275    0.12324
59.2275    0.12757000000000002
59.3275    0.125082
59.4275    0.13624600000000003
59.5275    0.137209
59.6275    0.141429
59.7275    0.13434200000000002
59.8275    0.15072300000000002
59.9275    0.152246
60.0275    0.154284
60.1275    0.16418000000000002
60.2275    0.166744
60.3275    0.17600100000000002
60.4275    0.170134
60.5275    0.167322
60.6275    0.182507
60.7275    0.177691
60.8275    0.177308
60.9275    0.18090699999999998
61.0275    0.18544
61.1275    0.186346
61.2275    0.18353299999999997
61.3275    0.18754099999999999
61.4275    0.18414799999999998
61.5275    0.179917
61.6275    0.19108
61.7275    0.176041
61.8275    0.182278
61.9275    0.17249699999999998
62.0275    0.184504
62.1275    0.185764
62.2275    0.169733
62.3275    0.189805
62.4275    0.172526
62.5275    0.17113899999999999
62.6275    0.172984
62.7275    0.173895
62.8275    0.16980800000000001
62.9275    0.177313
63.0275    0.176108
63.1275    0.166598
63.2275    0.162981
63.3275    0.165107
63.4275    0.170124
63.5275    0.173609
63.6275    0.178991
63.7275    0.17738199999999998
63.8275    0.162939
63.9275    0.178423
64.0275    0.18188200000000002
64.1275    0.179977
64.2275    0.184165
64.3275    0.181651
64.4275    0.172901
64.5275    0.17847600000000002
64.6275    0.18218099999999998
64.7275    0.18321300000000001
64.8275    0.18684
64.9275    0.186086
65.0275    0.18870900000000002
65.1275    0.18597000000000002
65.2275    0.188998
65.3275    0.192907
65.4275    0.20142500000000002
65.5275    0.193522
65.6275    0.197772
65.7275    0.201186
65.8275    0.1948
65.9275    0.203961
66.0275    0.19735799999999998
66.1275    0.20820100000000002
66.2275    0.200075
66.3275    0.205104
66.4275    0.20950600000000003
66.5275    0.202403
66.6275    0.227931
66.7275    0.206377
66.8275    0.21258900000000003
66.9275    0.21616799999999997
67.0275    0.221598
67.1275    0.222464
67.2275    0.212009
67.3275    0.22103799999999998
67.4275    0.220966
67.5275    0.22045499999999998
67.6275    0.226246
67.7275    0.21271
67.8275    0.221437
67.9275    0.21251799999999998
68.0275    0.21298899999999998
68.1275    0.22242800000000001
68.2275    0.214249
68.3275    0.21590299999999998
68.4275    0.215178
68.5275    0.218138
68.6275    0.21890300000000001
68.7275    0.219501
68.8275    0.21663700000000002
68.9275    0.200955
69.0275    0.220915
69.1275    0.20393299999999998
69.2275    0.203986
69.3275    0.19595
69.4275    0.20296499999999998
69.5275    0.19569799999999998
69.6275    0.19981300000000002
69.7275    0.202581
69.8275    0.19852
69.9275    0.190712
70.0275    0.202602
70.1275    0.18523299999999998
70.2275    0.19543100000000002
70.3275    0.17638800000000002
70.4275    0.183786
70.5275    0.174277
70.6275    0.186419
70.7275    0.174866
70.8275    0.166391
70.9275    0.163663
71.0275    0.18663400000000002
71.1275    0.17938300000000001
71.2275    0.168959
71.3275    0.179101
71.4275    0.176543
71.5275    0.17424
71.6275    0.17163899999999999
71.7275    0.157137
71.8275    0.16692
71.9275    0.165635
72.0275    0.15620799999999999
72.1275    0.16575700000000002
72.2275    0.168464
72.3275    0.145243
72.4275    0.156866
72.5275    0.13825500000000002
72.6275    0.13759
72.7275    0.141613
72.8275    0.136584
72.9275    0.129048
73.0275    0.13255
73.1275    0.131495
73.2275    0.120495
73.3275    0.114882
73.4275    0.12123
73.5275    0.114035
73.6275    0.11341000000000001
73.7275    0.10831000000000002
73.8275    0.098659
73.9275    0.121877
74.0275    0.10506599999999999
74.1275    0.11869800000000001
74.2275    0.09954
74.3275    0.117165
74.4275    0.112952
74.5275    0.111611
74.6275    0.11793500000000001
74.7275    0.117729
74.8275    0.11684
74.9275    0.11658199999999999
75.0275    0.1131
75.1275    0.116782
75.2275    0.11233
75.3275    0.12488099999999999
75.4275    0.11691700000000001
75.5275    0.127997
75.6275    0.11788099999999999
75.7275    0.119383
75.8275    0.11940799999999999
75.9275    0.116967
76.0275    0.114016
76.1275    0.124552
76.2275    0.118867
76.3275    0.110555
76.4275    0.116187
76.5275    0.122568
76.6275    0.110139
76.7275    0.109015
76.8275    0.102706
76.9275    0.10219400000000001
77.0275    0.104062
77.1275    0.102044
77.2275    0.101308
77.3275    0.101826
77.4275    0.10594799999999999
77.5275    0.102921
77.6275    0.088839
77.7275    0.09643399999999999
77.8275    0.100328
77.9275    0.089769
78.0275    0.091732
78.1275    0.08681699999999999
78.2275    0.093203
78.3275    0.097641
78.4275    0.09643299999999999
78.5275    0.108686
78.6275    0.10162
78.7275    0.08635
78.8275    0.096199
78.9275    0.09952100000000001
79.0275    0.087706
79.1275    0.08740200000000001
79.2275    0.092847
79.3275    0.079678
79.4275    0.08845700000000001
79.5275    0.079077
79.6275    0.087326
79.7275    0.08535899999999999
79.8275    0.088727
79.9275    0.084631
80.0275    0.092192
80.1275    0.07733699999999999
80.2275    0.08643400000000001
80.3275    0.07268100000000001
80.4275    0.085014
80.5275    0.083248
80.6275    0.081796
80.7275    0.087589
80.8275    0.09350599999999999
80.9275    0.07953299999999999
81.0275    0.076519
81.1275    0.08591700000000001
81.2275    0.07358
81.3275    0.080509
81.4275    0.09427699999999999
81.5275    0.08235600000000001
81.6275    0.090067
81.7275    0.10953
81.8275    0.119527
81.9275    0.09915500000000001
82.0275    0.10336999999999999
82.1275    0.114728
82.2275    0.120034
82.3275    0.125647
82.4275    0.110667
82.5275    0.13348100000000002
82.6275    0.12458199999999998
82.7275    0.127404
82.8275    0.140032
82.9275    0.108725
83.0275    0.132124
83.1275    0.121117
83.2275    0.112486
83.3275    0.12325499999999999
83.4275    0.11752800000000001
83.5275    0.10954699999999999
83.6275    0.087989