  -46.495095      0.001471
  -46.395095      0.000325
  -46.295095      0.000443
  -46.195095      0.000433
  -46.095095      0.000475
  -45.995095      0.000355
  -45.895095      0.000196
  -45.795095      0.000199
  -45.695095      0.000194
  -45.595095      0.000339
  -45.495095      0.000103
  -45.395095      0.000273
  -45.295095      0.000253
  -45.195095      0.000164
  -45.095095      0.000050
  -44.995095      0.000004
  -44.895095      0.000082
  -44.795095      0.000001
  -44.695095      0.000000
  -44.595095      0.000000
  -44.495095      0.000000
  -44.395095      0.000000
  -44.295095      0.000000
  -44.195095      0.000000
  -44.095095      0.000000
  -43.995095      0.000000
  -43.895095      0.000000
  -43.795095      0.000000
  -43.695095      0.000000
  -43.595095      0.000000
  -43.495095      0.000000
  -43.395095      0.000000
  -43.295095      0.000000
  -43.195095      0.000000
  -43.095095      0.000000
  -42.995095      0.000000
  -42.895095      0.000000
  -42.795095      0.000000
  -42.695095      0.000000
  -42.595095      0.000000
  -42.495095      0.000000
  -42.395095      0.000000
  -42.295095      0.000000
  -42.195095      0.000000
  -42.095095      0.000000
  -41.995095      0.000000
  -41.895095      0.000000
  -41.795095      0.000000
  -41.695095      0.000000
  -41.595095      0.000000
  -41.495095      0.000000
  -41.395095      0.000000
  -41.295095      0.000000
  -41.195095      0.000000
  -41.095095      0.000000
  -40.995095      0.000000
  -40.895095      0.000000
  -40.795095      0.000000
  -40.695095      0.000000
  -40.595095      0.000000
  -40.495095      0.000000
  -40.395095      0.000000
  -40.295095      0.000000
  -40.195095      0.000000
  -40.095095      0.000000
  -39.995095      0.000000
  -39.895095      0.000000
  -39.795095      0.000000
  -39.695095      0.000000
  -39.595095      0.000000
  -39.495095      0.000000
  -39.395095      0.000000
  -39.295095      0.000000
  -39.195095      0.000000
  -39.095095      0.000000
  -38.995095      0.000000
  -38.895095      0.000000
  -38.795095      0.000000
  -38.695095      0.000000
  -38.595095      0.000000
  -38.495095      0.000000
  -38.395095      0.000000
  -38.295095      0.000000
  -38.195095      0.000000
  -38.095095      0.000000
  -37.995095      0.000000
  -37.895095      0.000000
  -37.795095      0.000000
  -37.695095      0.000000
  -37.595095      0.000000
  -37.495095      0.000000
  -37.395095      0.000000
  -37.295095      0.000000
  -37.195095      0.000000
  -37.095095      0.000000
  -36.995095      0.000000
  -36.895095      0.000000
  -36.795095      0.000000
  -36.695095      0.000000
  -36.595095      0.000000
  -36.495095      0.000000
  -36.395095      0.000000
  -36.295095      0.000000
  -36.195095      0.000000
  -36.095095      0.000000
  -35.995095      0.000000
  -35.895095      0.000000
  -35.795095      0.000000
  -35.695095      0.000000
  -35.595095      0.000000
  -35.495095      0.000000
  -35.395095      0.000000
  -35.295095      0.000000
  -35.195095      0.000000
  -35.095095      0.000000
  -34.995095      0.000000
  -34.895095      0.000000
  -34.795095      0.000000
  -34.695095      0.000000
  -34.595095      0.000000
  -34.495095      0.000000
  -34.395095      0.000000
  -34.295095      0.000000
  -34.195095      0.000000
  -34.095095      0.000000
  -33.995095      0.000000
  -33.895095      0.000000
  -33.795095      0.000000
  -33.695095      0.000000
  -33.595095      0.000000
  -33.495095      0.000000
  -33.395095      0.000000
  -33.295095      0.000000
  -33.195095      0.000000
  -33.095095      0.000000
  -32.995095      0.000000
  -32.895095      0.000000
  -32.795095      0.000000
  -32.695095      0.000000
  -32.595095      0.000000
  -32.495095      0.000000
  -32.395095      0.000000
  -32.295095      0.000000
  -32.195095      0.000000
  -32.095095      0.000000
  -31.995095      0.000000
  -31.895095      0.000000
  -31.795095      0.000000
  -31.695095      0.000000
  -31.595095      0.000000
  -31.495095      0.000000
  -31.395095      0.000000
  -31.295095      0.000000
  -31.195095      0.000000
  -31.095095      0.019018
  -30.995095      0.000000
  -30.895095      0.009560
  -30.795095      0.028887
  -30.695095      0.019168
  -30.595095      0.067115
  -30.495095      0.086068
  -30.395095      0.124581
  -30.295095      0.249643
  -30.195095      0.249711
  -30.095095      0.220773
  -29.995095      0.325901
  -29.895095      0.374370
  -29.795095      0.575486
  -29.695095      0.469864
  -29.595095      0.450654
  -29.495095      0.306935
  -29.395095      0.413105
  -29.295095      0.230336
  -29.195095      0.307432
  -29.095095      0.287944
  -28.995095      0.163316
  -28.895095      0.143546
  -28.795095      0.096425
  -28.695095      0.172586
  -28.595095      0.132530
  -28.495095      0.197267
  -28.395095      0.213409
  -28.295095      0.137694
  -28.195095      0.163929
  -28.095095      0.391911
  -27.995095      0.408216
  -27.895095      0.506813
  -27.795095      0.472376
  -27.695095      0.506867
  -27.595095      0.705149
  -27.495095      0.478722
  -27.395095      0.740604
  -27.295095      0.722733
  -27.195095      0.704678
  -27.095095      0.586640
  -26.995095      0.631703
  -26.895095      0.514897
  -26.795095      0.486469
  -26.695095      0.423620
  -26.595095      0.468805
  -26.495095      0.261650
  -26.395095      0.270708
  -26.295095      0.234595
  -26.195095      0.206959
  -26.095095      0.171491
  -25.995095      0.090292
  -25.895095      0.062974
  -25.795095      0.072263
  -25.695095      0.099178
  -25.595095      0.045032
  -25.495095      0.054328
  -25.395095      0.009101
  -25.295095      0.000063
  -25.195095      0.018159
  -25.095095      0.018165
  -24.995095      0.000101
  -24.895095      0.000150
  -24.795095      0.000159
  -24.695095      0.000241
  -24.595095      0.019660
  -24.495095      0.045300
  -24.395095      0.028066
  -24.295095      0.044499
  -24.195095      0.057472
  -24.095095      0.092732
  -23.995095      0.129570
  -23.895095      0.139330
  -23.795095      0.213145
  -23.695095      0.235051
  -23.595095      0.329812
  -23.495095      0.352305
  -23.395095      0.334107
  -23.295095      0.315986
  -23.195095      0.418617
  -23.095095      0.344064
  -22.995095      0.362834
  -22.895095      0.455133
  -22.795095      0.344494
  -22.695095      0.214465
  -22.595095      0.242356
  -22.495095      0.177210
  -22.395095      0.176862
  -22.295095      0.074690
  -22.195095      0.186496
  -22.095095      0.037618
  -21.995095      0.065678
  -21.895095      0.020897
  -21.795095      0.041227
  -21.695095      0.031947
  -21.595095      0.063695
  -21.495095      0.064895
  -21.395095      0.074160
  -21.295095      0.081630
  -21.195095      0.137452
  -21.095095      0.239960
  -20.995095      0.258001
  -20.895095      0.271751
  -20.795095      0.234657
  -20.695095      0.310640
  -20.595095      0.361088
  -20.495095      0.416987
  -20.395095      0.416379
  -20.295095      0.399987
  -20.195095      0.399168
  -20.095095      0.465913
  -19.995095      0.267249
  -19.895095      0.230765
  -19.795095      0.194158
  -19.695095      0.137339
  -19.595095      0.156504
  -19.495095      0.101619
  -19.395095      0.064504
  -19.295095      0.055417
  -19.195095      0.037016
  -19.095095      0.027546
  -18.995095      0.027559
  -18.895095      0.027660
  -18.795095      0.027263
  -18.695095      0.063726
  -18.595095      0.027209
  -18.495095      0.045432
  -18.395095      0.063305
  -18.295095      0.054342
  -18.195095      0.099490
  -18.095095      0.108583
  -17.995095      0.108747
  -17.895095      0.153996
  -17.795095      0.162883
  -17.695095      0.181267
  -17.595095      0.172432
  -17.495095      0.190183
  -17.395095      0.181517
  -17.295095      0.200126
  -17.195095      0.154511
  -17.095095      0.136300
  -16.995095      0.145451
  -16.895095      0.081916
  -16.795095      0.091000
  -16.695095      0.018221
  -16.595095      0.100287
  -16.495095      0.027305
  -16.395095      0.045810
  -16.295095      0.018191
  -16.195095      0.054839
  -16.095095      0.027378
  -15.995095      0.000003
  -15.895095      0.009123
  -15.795095      0.000093
  -15.695095      0.000070
  -15.595095      0.000206
  -15.495095      0.000555
  -15.395095      0.000471
  -15.295095      0.000696
  -15.195095      0.010075
  -15.095095      0.001246
  -14.995095      0.012397
  -14.895095      0.018345
  -14.795095      0.004088
  -14.695095      0.004142
  -14.595095      0.013495
  -14.495095      0.024382
  -14.395095      0.085403
  -14.295095      0.075155
  -14.195095      0.131784
  -14.095095      0.114259
  -13.995095      0.178659
  -13.895095      0.221427
  -13.795095      0.267794
  -13.695095      0.282411
  -13.595095      0.327256
  -13.495095      0.396872
  -13.395095      0.386776
  -13.295095      0.421759
  -13.195095      0.421620
  -13.095095      0.498402
  -12.995095      0.305361
  -12.895095      0.333099
  -12.795095      0.211904
  -12.695095      0.244397
  -12.595095      0.229670
  -12.495095      0.252782
  -12.395095      0.226961
  -12.295095      0.237738
  -12.195095      0.242364
  -12.095095      0.237363
  -11.995095      0.306708
  -11.895095      0.343460
  -11.795095      0.230893
  -11.695095      0.302338
  -11.595095      0.241651
  -11.495095      0.200431
  -11.395095      0.142744
  -11.295095      0.143146
  -11.195095      0.099686
  -11.095095      0.089279
  -10.995095      0.159096
  -10.895095      0.143127
  -10.795095      0.181514
  -10.695095      0.166692
  -10.595095      0.267199
  -10.495095      0.291589
  -10.395095      0.379669
  -10.295095      0.385564
  -10.195095      0.557598
  -10.095095      0.680685
   -9.995095      0.810586
   -9.895095      0.856264
   -9.795095      0.968781
   -9.695095      0.988434
   -9.595095      1.183375
   -9.495095      1.036824
   -9.395095      1.068303
   -9.295095      0.956048
   -9.195095      0.849282
   -9.095095      0.866458
   -8.995095      0.867908
   -8.895095      0.790974
   -8.795095      0.587557
   -8.695095      0.576038
   -8.595095      0.571719
   -8.495095      0.575582
   -8.395095      0.354087
   -8.295095      0.314282
   -8.195095      0.396763
   -8.095095      0.390906
   -7.995095      0.296410
   -7.895095      0.253493
   -7.795095      0.336047
   -7.695095      0.250678
   -7.595095      0.291741
   -7.495095      0.272851
   -7.395095      0.218894
   -7.295095      0.316840
   -7.195095      0.321480
   -7.095095      0.335427
   -6.995095      0.518240
   -6.895095      0.614495
   -6.795095      0.716877
   -6.695095      0.849524
   -6.595095      1.034571
   -6.495095      1.176625
   -6.395095      1.277974
   -6.295095      1.273702
   -6.195095      1.452342
   -6.095095      1.491604
   -5.995095      1.488274
   -5.895095      1.731579
   -5.795095      1.857820
   -5.695095      1.772055
   -5.595095      1.894113
   -5.495095      1.905395
   -5.395095      1.994006
   -5.295095      1.796956
   -5.195095      1.898420
   -5.095095      1.946825
   -4.995095      1.860008
   -4.895095      1.784214
   -4.795095      1.523022
   -4.695095      1.335801
   -4.595095      1.189309
   -4.495095      1.117191
   -4.395095      1.023989
   -4.295095      0.813124
   -4.195095      0.693425
   -4.095095      0.610576
   -3.995095      0.542820
   -3.895095      0.498103
   -3.795095      0.488167
   -3.695095      0.342544
   -3.595095      0.325791
   -3.495095      0.313918
   -3.395095      0.231597
   -3.295095      0.234994
   -3.195095      0.240502
   -3.095095      0.267264
   -2.995095      0.285719
   -2.895095      0.364013
   -2.795095      0.368658
   -2.695095      0.471902
   -2.595095      0.540320
   -2.495095      0.664018
   -2.395095      0.728863
   -2.295095      0.890170
   -2.195095      0.900198
   -2.095095      0.981250
   -1.995095      1.079281
   -1.895095      1.002155
   -1.795095      1.123649
   -1.695095      1.030662
   -1.595095      1.150357
   -1.495095      1.043116
   -1.395095      1.015774
   -1.295095      0.951476
   -1.195095      0.935008
   -1.095095      0.957314
   -0.995095      0.858761
   -0.895095      0.843525
   -0.795095      0.803171
   -0.695095      0.707880
   -0.595095      0.658796
   -0.495095      0.657712
   -0.395095      0.524770
   -0.295095      0.419361
   -0.195095      0.477503
   -0.095095      0.324422
    0.004905      0.287055
    0.104905      0.207104
    0.204905      0.123614
    0.304905      0.090958
    0.404905      0.109709
    0.504905      0.054248
    0.604905      0.058421
    0.704905      0.009951
    0.804905      0.024873
    0.904905      0.014593
    1.004905      0.009479
    1.104905      0.001925
    1.204905      0.016599
    1.304905      0.002693
    1.404905      0.000000
    1.504905      0.000610
    1.604905      0.000000
    1.704905      0.009090
    1.804905      0.000000
    1.904905      0.000000
    2.004905      0.000000
    2.104905      0.000000
    2.204905      0.000000
    2.304905      0.000000
    2.404905      0.000000
    2.504905      0.000000
    2.604905      0.000000
    2.704905      0.000000
    2.804905      0.000000
    2.904905      0.000000
    3.004905      0.000000
    3.104905      0.000000
    3.204905      0.000000
    3.304905      0.000000
    3.404905      0.000000
    3.504905      0.000000
    3.604905      0.000000
    3.704905      0.000000
    3.804905      0.000000
    3.904905      0.000000
    4.004905      0.000000
    4.104905      0.000000
    4.204905      0.018084
    4.304905      0.000000
    4.404905      0.000000
    4.504905      0.018009
    4.604905      0.000000
    4.704905      0.025842
    4.804905      0.008693
    4.904905      0.034943
    5.004905      0.017110
    5.104905      0.086146
    5.204905      0.085935
    5.304905      0.149995
    5.404905      0.132045
    5.504905      0.092404
    5.604905      0.280914
    5.704905      0.223305
    5.804905      0.236303
    5.904905      0.308214
    6.004905      0.238308
    6.104905      0.295297
    6.204905      0.305656
    6.304905      0.395660
    6.404905      0.366540
    6.504905      0.396380
    6.604905      0.381604
    6.704905      0.493326
    6.804905      0.516303
    6.904905      0.465571
    7.004905      0.393647
    7.104905      0.434238
    7.204905      0.490140
    7.304905      0.489005
    7.404905      0.509419
    7.504905      0.454049
    7.604905      0.500636
    7.704905      0.568903
    7.804905      0.459008
    7.904905      0.486288
    8.004905      0.540436
    8.104905      0.464065
    8.204905      0.546666
    8.304905      0.479001
    8.404905      0.470399
    8.504905      0.448788
    8.604905      0.438456
    8.704905      0.437321
    8.804905      0.438290
    8.904905      0.460317
    9.004905      0.450606
    9.104905      0.459046
    9.204905      0.403901
    9.304905      0.429188
    9.404905      0.415056
    9.504905      0.427967
    9.604905      0.396233
    9.704905      0.400014
    9.804905      0.413551
    9.904905      0.405638
   10.004905      0.425517
   10.104905      0.454994
   10.204905      0.455291
   10.304905      0.459194
   10.404905      0.464910
   10.504905      0.501071
   10.604905      0.477400
   10.704905      0.462025
   10.804905      0.498184
   10.904905      0.495225
   11.004905      0.487274
   11.104905      0.477977
   11.204905      0.500967
   11.304905      0.484028
   11.404905      0.482451
   11.504905      0.504334
   11.604905      0.504348
   11.704905      0.485171
   11.804905      0.479061
   11.904905      0.471360
   12.004905      0.481921
   12.104905      0.461721
   12.204905      0.458916
   12.304905      0.446058
   12.404905      0.452310
   12.504905      0.414952
   12.604905      0.422768
   12.704905      0.413241
   12.804905      0.388755
   12.904905      0.371311
   13.004905      0.367141
   13.104905      0.356356
   13.204905      0.346639
   13.304905      0.306644
   13.404905      0.303565
   13.504905      0.270026
   13.604905      0.256567
   13.704905      0.246262
   13.804905      0.234727
   13.904905      0.207012
   14.004905      0.214730
   14.104905      0.190109
   14.204905      0.187618
   14.304905      0.175087
   14.404905      0.179736
   14.504905      0.173880
   14.604905      0.167573
   14.704905      0.170380
   14.804905      0.166590
   14.904905      0.162514
   15.004905      0.165404
   15.104905      0.166746
   15.204905      0.163387
   15.304905      0.172092
   15.404905      0.172423
   15.504905      0.167988
   15.604905      0.176894
   15.704905      0.181060
   15.804905      0.179537
   15.904905      0.184054
   16.004905      0.204698
   16.104905      0.207360
   16.204905      0.222358
   16.304905      0.241853
   16.404905      0.262690
   16.504905      0.272779
   16.604905      0.299984
   16.704905      0.310480
   16.804905      0.307359
   16.904905      0.363814
   17.004905      0.350099
   17.104905      0.349267
   17.204905      0.379342
   17.304905      0.392552
   17.404905      0.388673
   17.504905      0.401393
   17.604905      0.399858
   17.704905      0.410461
   17.804905      0.406386
   17.904905      0.419445
   18.004905      0.393408
   18.104905      0.406540
   18.204905      0.398246
   18.304905      0.403364
   18.404905      0.406117
   18.504905      0.394632
   18.604905      0.391409
   18.704905      0.394657
   18.804905      0.410262
   18.904905      0.410867
   19.004905      0.393406
   19.104905      0.398919
   19.204905      0.387057
   19.304905      0.418294
   19.404905      0.404293
   19.504905      0.417584
   19.604905      0.403511
   19.704905      0.436339
   19.804905      0.417798
   19.904905      0.426290
   20.004905      0.430316
   20.104905      0.448128
   20.204905      0.427515
   20.304905      0.456440
   20.404905      0.453611
   20.504905      0.482172
   20.604905      0.468731
   20.704905      0.465703
   20.804905      0.486866
   20.904905      0.472569
   21.004905      0.490754
   21.104905      0.494907
   21.204905      0.495019
   21.304905      0.509726
   21.404905      0.519862
   21.504905      0.493309
   21.604905      0.502050
   21.704905      0.525427
   21.804905      0.516366
   21.904905      0.522956
   22.004905      0.533766
   22.104905      0.517104
   22.204905      0.523274
   22.304905      0.523221
   22.404905      0.537858
   22.504905      0.518084
   22.604905      0.543292
   22.704905      0.538033
   22.804905      0.545766
   22.904905      0.550000
   23.004905      0.499167
   23.104905      0.546493
   23.204905      0.536851
   23.304905      0.540261
   23.404905      0.525202
   23.504905      0.552178
   23.604905      0.551233
   23.704905      0.551245
   23.804905      0.524734
   23.904905      0.518653
   24.004905      0.552845
   24.104905      0.541818
   24.204905      0.518893
   24.304905      0.537400
   24.404905      0.535415
   24.504905      0.549125
   24.604905      0.557241
   24.704905      0.516227
   24.804905      0.564061
   24.904905      0.548753
   25.004905      0.494754
   25.104905      0.567747
   25.204905      0.533313
   25.304905      0.542523
   25.404905      0.554833
   25.504905      0.521507
   25.604905      0.554279
   25.704905      0.551733
   25.804905      0.545248
   25.904905      0.543049
   26.004905      0.541467
   26.104905      0.519400
   26.204905      0.546954
   26.304905      0.547318
   26.404905      0.543967
   26.504905      0.542031
   26.604905      0.537936
   26.704905      0.554501
   26.804905      0.529286
   26.904905      0.539479
   27.004905      0.560454
   27.104905      0.517909
   27.204905      0.552227
   27.304905      0.532244
   27.404905      0.560932
   27.504905      0.523279
   27.604905      0.546132
   27.704905      0.545583
   27.804905      0.546559
   27.904905      0.538266
   28.004905      0.543132
   28.104905      0.502024
   28.204905      0.571838
   28.304905      0.531219
   28.404905      0.523245
   28.504905      0.538076
   28.604905      0.529529
   28.704905      0.516302
   28.804905      0.535786
   28.904905      0.539291
   29.004905      0.543004
   29.104905      0.526135
   29.204905      0.530655
   29.304905      0.532401
   29.404905      0.518428
   29.504905      0.525105
   29.604905      0.518610
   29.704905      0.535576
   29.804905      0.516044
   29.904905      0.519752
   30.004905      0.546967
   30.104905      0.512468
   30.204905      0.520511
   30.304905      0.496996
   30.404905      0.502227
   30.504905      0.514884
   30.604905      0.518209
   30.704905      0.487881
   30.804905      0.509089
   30.904905      0.491484
   31.004905      0.471406
   31.104905      0.493695
   31.204905      0.502759
   31.304905      0.484363
   31.404905      0.473128
   31.504905      0.503860
   31.604905      0.462931
   31.704905      0.487874
   31.804905      0.460486
   31.904905      0.465531
   32.004905      0.462234
   32.104905      0.459101
   32.204905      0.455373
   32.304905      0.463203
   32.404905      0.440188
   32.504905      0.454562
   32.604905      0.466635
   32.704905      0.452642
   32.804905      0.441147
   32.904905      0.422433
   33.004905      0.418605
   33.104905      0.432528
   33.204905      0.443921
   33.304905      0.412446
   33.404905      0.438986
   33.504905      0.416313
   33.604905      0.425739
   33.704905      0.411223
   33.804905      0.403599
   33.904905      0.406904
   34.004905      0.417115
   34.104905      0.398547
   34.204905      0.401192
   34.304905      0.400462
   34.404905      0.389335
   34.504905      0.396805
   34.604905      0.405217
   34.704905      0.392197
   34.804905      0.392298
   34.904905      0.387455
   35.004905      0.399667
   35.104905      0.370337
   35.204905      0.401107
   35.304905      0.381223
   35.404905      0.397451
   35.504905      0.379208
   35.604905      0.381130
   35.704905      0.396821
   35.804905      0.376903
   35.904905      0.396627
   36.004905      0.379181
   36.104905      0.405297
   36.204905      0.385126
   36.304905      0.380364
   36.404905      0.402982
   36.504905      0.388333
   36.604905      0.380698
   36.704905      0.381014
   36.804905      0.384135
   36.904905      0.406659
   37.004905      0.401546
   37.104905      0.403738
   37.204905      0.394200
   37.304905      0.390369
   37.404905      0.374815
   37.504905      0.380929
   37.604905      0.381655
   37.704905      0.398158
   37.804905      0.378392
   37.904905      0.368709
   38.004905      0.373403
   38.104905      0.387520
   38.204905      0.359189
   38.304905      0.366420
   38.404905      0.367655
   38.504905      0.363882
   38.604905      0.360275
   38.704905      0.346481
   38.804905      0.369317
   38.904905      0.343919
   39.004905      0.348289
   39.104905      0.331409
   39.204905      0.343882
   39.304905      0.340722
   39.404905      0.330115
   39.504905      0.341559
   39.604905      0.316573
   39.704905      0.306012
   39.804905      0.323716
   39.904905      0.318097
   40.004905      0.299396
   40.104905      0.317681
   40.204905      0.303543
   40.304905      0.295121
   40.404905      0.297375
   40.504905      0.300504
   40.604905      0.291237
   40.704905      0.289417
   40.804905      0.274077
   40.904905      0.273455
   41.004905      0.272320
   41.104905      0.277673
   41.204905      0.253689
   41.304905      0.267757
   41.404905      0.252622
   41.504905      0.263534
   41.604905      0.254148
   41.704905      0.246050
   41.804905      0.243396
   41.904905      0.251096
   42.004905      0.245796
   42.104905      0.224328
   42.204905      0.233971
   42.304905      0.227153
   42.404905      0.224067
   42.504905      0.223326
   42.604905      0.221713
   42.704905      0.225756
   42.804905      0.206285
   42.904905      0.204544
   43.004905      0.223098
   43.104905      0.198623
   43.204905      0.197436
   43.304905      0.209952
   43.404905      0.215000
   43.504905      0.191708
   43.604905      0.196210
   43.704905      0.193390
   43.804905      0.187436
   43.904905      0.188192
   44.004905      0.192953
   44.104905      0.185838
   44.204905      0.180369
   44.304905      0.181728
   44.404905      0.182553
   44.504905      0.175757
   44.604905      0.172687
   44.704905      0.172382
   44.804905      0.181034
   44.904905      0.167283
   45.004905      0.174875
   45.104905      0.165328
   45.204905      0.167145
   45.304905      0.155196
   45.404905      0.167323
   45.504905      0.163634
   45.604905      0.149075
   45.704905      0.154258
   45.804905      0.148326
   45.904905      0.152647
   46.004905      0.145150
   46.104905      0.139979
   46.204905      0.145522
   46.304905      0.144951
   46.404905      0.140142
   46.504905      0.137863
   46.604905      0.140528
   46.704905      0.132371
   46.804905      0.129908
   46.904905      0.126712
   47.004905      0.137188
   47.104905      0.125568
   47.204905      0.125653
   47.304905      0.129338
   47.404905      0.122840
   47.504905      0.119968
   47.604905      0.129128
   47.704905      0.119108
   47.804905      0.120782
   47.904905      0.127389
   48.004905      0.119125
   48.104905      0.116210
   48.204905      0.127869
   48.304905      0.120109
   48.404905      0.115169
   48.504905      0.131517
   48.604905      0.114096
   48.704905      0.126605
   48.804905      0.115398
   48.904905      0.124013
   49.004905      0.119626
   49.104905      0.118081
   49.204905      0.118544
   49.304905      0.120990
   49.404905      0.122256
   49.504905      0.112697
   49.604905      0.113591
   49.704905      0.121588
   49.804905      0.114573
   49.904905      0.118001
   50.004905      0.118591
   50.104905      0.111979
   50.204905      0.119672
   50.304905      0.114324
   50.404905      0.113512
   50.504905      0.113463
   50.604905      0.110513
   50.704905      0.114354
   50.804905      0.110080
   50.904905      0.113883
   51.004905      0.109686
   51.104905      0.109384
   51.204905      0.109271
   51.304905      0.108508
   51.404905      0.105044
   51.504905      0.108993
   51.604905      0.107148
   51.704905      0.109034
   51.804905      0.102251
   51.904905      0.107878
   52.004905      0.102673
   52.104905      0.106696
   52.204905      0.107579
   52.304905      0.104605
   52.404905      0.106654
   52.504905      0.104663
   52.604905      0.103760
   52.704905      0.104681
   52.804905      0.103231
   52.904905      0.105317
   53.004905      0.101324
   53.104905      0.098488
   53.204905      0.102728
   53.304905      0.100565
   53.404905      0.098950
   53.504905      0.098980
   53.604905      0.095149
   53.704905      0.095845
   53.804905      0.099194
   53.904905      0.097271
   54.004905      0.096841
   54.104905      0.094828
   54.204905      0.096007
   54.304905      0.096426
   54.404905      0.097296
   54.504905      0.089490
   54.604905      0.096652
   54.704905      0.093535
   54.804905      0.089070
   54.904905      0.094494
   55.004905      0.098508
   55.104905      0.095151
   55.204905      0.092666
   55.304905      0.090266
   55.404905      0.092356
   55.504905      0.089735
   55.604905      0.093779
   55.704905      0.085692
   55.804905      0.092130
   55.904905      0.091406
   56.004905      0.089178
   56.104905      0.085352
   56.204905      0.086924
   56.304905      0.084909
   56.404905      0.082819
   56.504905      0.080667
   56.604905      0.081004
   56.704905      0.083015
   56.804905      0.081369
   56.904905      0.081458
   57.004905      0.076619
   57.104905      0.075458
   57.204905      0.082552
   57.304905      0.074101
   57.404905      0.077103
   57.504905      0.073974
   57.604905      0.075797
   57.704905      0.075708
   57.804905      0.072384
   57.904905      0.072791
   58.004905      0.070287
   58.104905      0.071196
   58.204905      0.075185
   58.304905      0.071217
   58.404905      0.070976
   58.504905      0.071888
   58.604905      0.073475
   58.704905      0.072823
   58.804905      0.076367
   58.904905      0.078542
   59.004905      0.075457
   59.104905      0.074215
   59.204905      0.081284
   59.304905      0.081858
   59.404905      0.081559
   59.504905      0.085413
   59.604905      0.087270
   59.704905      0.089591
   59.804905      0.092297
   59.904905      0.090894
   60.004905      0.098916
   60.104905      0.093570
   60.204905      0.103015
   60.304905      0.103821
   60.404905      0.101456
   60.504905      0.103215
   60.604905      0.102493
   60.704905      0.104764
   60.804905      0.108210
   60.904905      0.108155
   61.004905      0.108395
   61.104905      0.102361
   61.204905      0.110583
   61.304905      0.106658
   61.404905      0.108075
   61.504905      0.116680
   61.604905      0.103828
   61.704905      0.111414
   61.804905      0.113718
   61.904905      0.106707
   62.004905      0.114713
   62.104905      0.110418
   62.204905      0.113856
   62.304905      0.108300
   62.404905      0.106463
   62.504905      0.102557
   62.604905      0.100462
   62.704905      0.107240
   62.804905      0.113382
   62.904905      0.108957
   63.004905      0.108664
   63.104905      0.104260
   63.204905      0.105439
   63.304905      0.109828
   63.404905      0.106465
   63.504905      0.108651
   63.604905      0.103753
   63.704905      0.103364
   63.804905      0.111537
   63.904905      0.111500
   64.004905      0.107528
   64.104905      0.112240
   64.204905      0.106829
   64.304905      0.113108
   64.404905      0.117879
   64.504905      0.110037