-46.3971    4.3e-05
-46.2971    4e-06
-46.1971    1e-06
-46.0971    1e-06
-45.9971    2e-06
-45.8971    1e-06
-45.7971    0.0
-45.6971    2e-06
-45.5971    1e-06
-45.4971    0.0
-45.3971    0.0
-45.2971    0.0
-45.1971    0.0
-45.0971    0.0
-44.9971    0.0
-44.8971    0.0
-44.7971    0.0
-44.6971    0.0
-44.5971    0.0
-44.4971    0.0
-44.3971    0.0
-44.2971    0.0
-44.1971    0.0
-44.0971    0.0
-43.9971    0.0
-43.8971    0.0
-43.7971    0.0
-43.6971    0.0
-43.5971    0.0
-43.4971    0.0
-43.3971    0.0
-43.2971    0.0
-43.1971    0.0
-43.0971    0.0
-42.9971    0.0
-42.8971    0.0
-42.7971    0.0
-42.6971    0.0
-42.5971    0.0
-42.4971    0.0
-42.3971    0.0
-42.2971    0.0
-42.1971    0.0
-42.0971    0.0
-41.9971    0.0
-41.8971    0.0
-41.7971    0.0
-41.6971    0.0
-41.5971    0.0
-41.4971    0.0
-41.3971    0.0
-41.2971    0.0
-41.1971    0.0
-41.0971    0.0
-40.9971    0.0
-40.8971    0.0
-40.7971    0.0
-40.6971    0.0
-40.5971    0.0
-40.4971    0.0
-40.3971    0.0
-40.2971    0.0
-40.1971    0.0
-40.0971    0.0
-39.9971    0.0
-39.8971    0.0
-39.7971    0.0
-39.6971    0.0
-39.5971    0.0
-39.4971    0.0
-39.3971    0.0
-39.2971    0.0
-39.1971    0.0
-39.0971    0.0
-38.9971    0.0
-38.8971    0.0
-38.7971    0.0
-38.6971    0.0
-38.5971    0.0
-38.4971    0.0
-38.3971    0.0
-38.2971    0.0
-38.1971    0.0
-38.0971    0.0
-37.9971    0.0
-37.8971    0.0
-37.7971    0.0
-37.6971    0.0
-37.5971    0.0
-37.4971    0.0
-37.3971    0.0
-37.2971    0.0
-37.1971    0.0
-37.0971    0.0
-36.9971    0.0
-36.8971    0.0
-36.7971    0.0
-36.6971    0.0
-36.5971    0.0
-36.4971    0.0
-36.3971    0.0
-36.2971    0.0
-36.1971    0.0
-36.0971    0.0
-35.9971    0.0
-35.8971    0.0
-35.7971    0.0
-35.6971    0.0
-35.5971    0.0
-35.4971    0.0
-35.3971    0.0
-35.2971    0.0
-35.1971    0.0
-35.0971    0.0
-34.9971    0.0
-34.8971    0.0
-34.7971    0.0
-34.6971    0.0
-34.5971    0.0
-34.4971    0.0
-34.3971    0.0
-34.2971    0.0
-34.1971    0.0
-34.0971    0.0
-33.9971    0.0
-33.8971    0.0
-33.7971    0.0
-33.6971    0.0
-33.5971    0.0
-33.4971    0.0
-33.3971    0.0
-33.2971    0.0
-33.1971    0.0
-33.0971    0.0
-32.9971    0.0
-32.8971    0.0
-32.7971    0.0
-32.6971    0.0
-32.5971    0.0
-32.4971    0.0
-32.3971    0.0
-32.2971    0.0
-32.1971    0.0
-32.0971    0.0
-31.9971    0.0
-31.8971    0.0
-31.7971    0.0
-31.6971    0.0
-31.5971    0.0
-31.4971    0.0
-31.3971    0.0
-31.2971    0.0
-31.1971    0.0
-31.0971    0.0
-30.9971    0.0
-30.8971    0.009621
-30.7971    0.019230999999999998
-30.6971    0.0
-30.5971    0.019293
-30.4971    0.0
-30.3971    0.028722
-30.2971    0.057784999999999996
-30.1971    0.057331
-30.0971    0.048376
-29.9971    0.057624999999999996
-29.8971    0.105632
-29.7971    0.067078
-29.6971    0.10494899999999999
-29.5971    0.163799
-29.4971    0.19160600000000003
-29.3971    0.135097
-29.2971    0.201404
-29.1971    0.15374899999999997
-29.0971    0.048087000000000005
-28.9971    0.076954
-28.8971    0.086503
-28.7971    0.057847
-28.6971    0.057746
-28.5971    0.057172
-28.4971    0.057658
-28.3971    0.036919
-28.2971    0.054988999999999996
-28.1971    0.074076
-28.0971    0.082822
-27.9971    0.054439
-27.8971    0.108658
-27.7971    0.15400200000000003
-27.6971    0.13591999999999999
-27.5971    0.153818
-27.4971    0.21730200000000002
-27.3971    0.180959
-27.2971    0.19913699999999998
-27.1971    0.20759499999999997
-27.0971    0.235192
-26.9971    0.252594
-26.8971    0.189345
-26.7971    0.180575
-26.6971    0.162237
-26.5971    0.207329
-26.4971    0.107971
-26.3971    0.135505
-26.2971    0.144226
-26.1971    0.07205199999999999
-26.0971    0.108061
-25.9971    0.081274
-25.8971    0.027042
-25.7971    0.018119000000000003
-25.6971    0.017987999999999997
-25.5971    0.018064999999999998
-25.4971    0.018028999999999996
-25.3971    0.008919000000000002
-25.2971    0.018002
-25.1971    1.4000000000000001e-05
-25.0971    2.1e-05
-24.9971    2.9e-05
-24.8971    0.009014
-24.7971    3.7e-05
-24.6971    5.099999999999999e-05
-24.5971    6.9e-05
-24.4971    0.009283999999999999
-24.3971    5.800000000000001e-05
-24.2971    4.7000000000000004e-05
-24.1971    0.027919
-24.0971    0.018578
-23.9971    0.009355
-23.8971    0.046450000000000005
-23.7971    0.065165
-23.6971    0.028141
-23.5971    0.111475
-23.4971    0.092726
-23.3971    0.12053399999999999
-23.2971    0.065352
-23.1971    0.083623
-23.0971    0.139504
-22.9971    0.130279
-22.8971    0.093212
-22.7971    0.11146800000000001
-22.6971    0.12092699999999999
-22.5971    0.111514
-22.4971    0.12093799999999999
-22.3971    0.06518700000000001
-22.2971    0.046665
-22.1971    0.09308799999999999
-22.0971    0.018622
-21.9971    0.028106000000000003
-21.8971    0.027941
-21.7971    0.009675
-21.6971    0.018287
-21.5971    0.018737999999999998
-21.4971    6.400000000000001e-05
-21.3971    0.027857
-21.2971    0.018643
-21.1971    0.037095
-21.0971    0.054938
-20.9971    0.037097000000000005
-20.8971    0.073735
-20.7971    0.06441
-20.6971    0.091904
-20.5971    0.093611
-20.4971    0.118265
-20.3971    0.12005999999999999
-20.2971    0.083428
-20.1971    0.20285
-20.0971    0.129218
-19.9971    0.119152
-19.8971    0.101716
-19.7971    0.138172
-19.6971    0.036903
-19.5971    0.092807
-19.4971    0.083066
-19.3971    0.027489
-19.2971    0.027811
-19.1971    0.009265
-19.0971    0.009223
-18.9971    0.018376
-18.8971    0.036594999999999996
-18.7971    0.0
-18.6971    0.009208
-18.5971    0.008984
-18.4971    0.0092
-18.3971    0.036286
-18.2971    0.0
-18.1971    0.01808
-18.0971    0.063362
-17.9971    0.036071000000000006
-17.8971    0.009009
-17.7971    0.036326000000000004
-17.6971    0.036306
-17.5971    0.045325000000000004
-17.4971    0.063572
-17.3971    0.090485
-17.2971    0.036243
-17.1971    0.08138800000000002
-17.0971    0.036248
-16.9971    0.018191
-16.8971    0.0
-16.7971    0.027378999999999997
-16.6971    0.054491
-16.5971    0.009049999999999999
-16.4971    0.009114
-16.3971    0.027392999999999997
-16.2971    0.036479
-16.1971    0.054417999999999994
-16.0971    0.036332
-15.9971    0.018288
-15.8971    5.8e-05
-15.7971    0.009056999999999999
-15.6971    5.9e-05
-15.5971    2.2000000000000003e-05
-15.4971    0.009297
-15.3971    0.000192
-15.2971    0.000261
-15.1971    0.00032900000000000003
-15.0971    0.000298
-14.9971    0.000543
-14.8971    0.0008240000000000001
-14.7971    0.00083
-14.6971    0.000794
-14.5971    0.0014939999999999999
-14.4971    0.000911
-14.3971    0.00107
-14.2971    0.020503
-14.1971    0.032547000000000006
-14.0971    0.042172
-13.9971    0.028622
-13.8971    0.028213
-13.7971    0.07763899999999999
-13.6971    0.064181
-13.5971    0.065676
-13.4971    0.149877
-13.3971    0.084441
-13.2971    0.122095
-13.1971    0.134863
-13.0971    0.163839
-12.9971    0.13197
-12.8971    0.16956
-12.7971    0.106498
-12.6971    0.09035
-12.5971    0.08688000000000001
-12.4971    0.09455699999999999
-12.3971    0.075412
-12.2971    0.01701
-12.1971    0.11815099999999999
-12.0971    0.089813
-11.9971    0.092368
-11.8971    0.097433
-11.7971    0.10305500000000001
-11.6971    0.10378399999999999
-11.5971    0.08294800000000001
-11.4971    0.067139
-11.3971    0.056219
-11.2971    0.052137
-11.1971    0.056157
-11.0971    0.035854000000000004
-10.9971    0.037475
-10.8971    0.046379000000000004
-10.7971    0.054212
-10.6971    0.071099
-10.5971    0.039512
-10.4971    0.08921000000000001
-10.3971    0.101664
-10.2971    0.09039
-10.1971    0.184563
-10.0971    0.186504
-9.99713    0.166277
-9.89713    0.228424
-9.79713    0.256691
-9.69713    0.266639
-9.59713    0.215405
-9.49713    0.36229500000000003
-9.39713    0.35720299999999994
-9.29713    0.38895
-9.19713    0.315315
-9.09713    0.4446
-8.99713    0.29432700000000006
-8.89713    0.27213200000000004
-8.79713    0.28405199999999997
-8.69713    0.25746399999999997
-8.59713    0.158885
-8.49713    0.183539
-8.39713    0.15590299999999999
-8.29713    0.158107
-8.19713    0.16075300000000003
-8.09713    0.152621
-7.99713    0.07728800000000001
-7.89713    0.131975
-7.79713    0.11605
-7.69713    0.12012199999999999
-7.59713    0.06992
-7.49713    0.06285600000000001
-7.39713    0.07328
-7.29713    0.10350799999999999
-7.19713    0.078354
-7.09713    0.08305199999999999
-6.99713    0.119167
-6.89713    0.144678
-6.79713    0.189413
-6.69713    0.250168
-6.59713    0.281296
-6.49713    0.24449099999999999
-6.39713    0.343499
-6.29713    0.358978
-6.19713    0.45704
-6.09713    0.4672
-5.99713    0.486358
-5.89713    0.538446
-5.79713    0.609502
-5.69713    0.609257
-5.59713    0.566074
-5.49713    0.632997
-5.39713    0.568047
-5.29713    0.6404070000000001
-5.19713    0.6187849999999999
-5.09713    0.668228
-4.99713    0.574768
-4.89713    0.658775
-4.79713    0.551225
-4.69713    0.544095
-4.59713    0.422875
-4.49713    0.40539800000000004
-4.39713    0.42383000000000004
-4.29713    0.377792
-4.19713    0.339123
-4.09713    0.311984
-3.99713    0.228473
-3.89713    0.242089
-3.79713    0.191638
-3.69713    0.14373000000000002
-3.59713    0.14719200000000002
-3.49713    0.09732
-3.39713    0.112131
-3.29713    0.07258800000000001
-3.19713    0.065034
-3.09713    0.09624
-2.99713    0.10111
-2.89713    0.09645
-2.79713    0.107896
-2.69713    0.104672
-2.59713    0.157123
-2.49713    0.157439
-2.39713    0.204744
-2.29713    0.137208
-2.19713    0.271806
-2.09713    0.27819900000000003
-1.99713    0.30752399999999996
-1.89713    0.31080099999999994
-1.79713    0.319156
-1.69713    0.349284
-1.59713    0.353974
-1.49713    0.36924000000000007
-1.39713    0.38012999999999997
-1.29713    0.370436
-1.19713    0.28661600000000004
-1.09713    0.317046
-0.997128    0.40905
-0.897128    0.316911
-0.797128    0.237742
-0.697128    0.22678099999999998
-0.597128    0.353782
-0.497128    0.254913
-0.397128    0.180667
-0.297128    0.147348
-0.197128    0.21764700000000003
-0.097128    0.161776
0.002872    0.133343
0.102872    0.07836599999999999
0.202872    0.112448
0.302872    0.068213
0.402872    0.046333
0.502872    0.035596
0.602872    0.026876
0.702872    0.015835000000000002
0.802872    0.008877000000000001
0.902872    0.013936
1.00287    0.023077
1.10287    0.016785
1.20287    0.0
1.30287    0.0
1.40287    0.0
1.50287    0.0
1.60287    0.0
1.70287    0.0
1.80287    0.0
1.90287    0.0
2.00287    0.0
2.10287    0.0
2.20287    0.0
2.30287    0.0
2.40287    0.0
2.50287    0.0
2.60287    0.0
2.70287    0.0
2.80287    0.0
2.90287    0.0
3.00287    0.0
3.10287    0.0
3.20287    0.0
3.30287    0.0
3.40287    0.0
3.50287    0.0
3.60287    0.0
3.70287    0.0
3.80287    0.0
3.90287    0.0
4.00287    0.0
4.10287    0.0
4.20287    0.009034
4.30287    0.0
4.40287    0.0
4.50287    0.0
4.60287    0.0
4.70287    0.008719000000000001
4.80287    0.009056999999999999
4.90287    0.017222
5.00287    0.008688000000000001
5.10287    0.034846
5.20287    0.050335
5.30287    0.016295999999999998
5.40287    0.02513
5.50287    0.074262
5.60287    0.058511999999999995
5.70287    0.065085
5.80287    0.084453
5.90287    0.066475
6.00287    0.129201
6.10287    0.121258
6.20287    0.10555899999999999
6.30287    0.071348
6.40287    0.167413
6.50287    0.124645
6.60287    0.095749
6.70287    0.10308
6.80287    0.133249
6.90287    0.109881
7.00287    0.139488
7.10287    0.16159
7.20287    0.160772
7.30287    0.16402
7.40287    0.141693
7.50287    0.145613
7.60287    0.179131
7.70287    0.153876
7.80287    0.14459100000000003
7.90287    0.135357
8.00287    0.195679
8.10287    0.13051200000000002
8.20287    0.143353
8.30287    0.146279
8.40287    0.19026500000000002
8.50287    0.170165
8.60287    0.14039000000000001
8.70287    0.17326200000000003
8.80287    0.180582
8.90287    0.16856899999999997
9.00287    0.17177
9.10287    0.15777
9.20287    0.17158600000000002
9.30287    0.13730900000000001
9.40287    0.13381800000000002
9.50287    0.13631700000000002
9.60287    0.13592
9.70287    0.146715
9.80287    0.135029
9.90287    0.14192700000000003
10.0029    0.142505
10.1029    0.139844
10.2029    0.13553300000000001
10.3029    0.14905000000000002
10.4029    0.139595
10.5029    0.146034
10.6029    0.15337399999999998
10.7029    0.138212
10.8029    0.146666
10.9029    0.150891
11.0029    0.15032800000000002
11.1029    0.162471
11.2029    0.155069
11.3029    0.151521
11.4029    0.162216
11.5029    0.168014
11.6029    0.153998
11.7029    0.151562
11.8029    0.148768
11.9029    0.156642
12.0029    0.153372
12.1029    0.138899
12.2029    0.149739
12.3029    0.156744
12.4029    0.14709500000000003
12.5029    0.143082
12.6029    0.139407
12.7029    0.135277
12.8029    0.126326
12.9029    0.126703
13.0029    0.12765
13.1029    0.120686
13.2029    0.119787
13.3029    0.10747000000000001
13.4029    0.109825
13.5029    0.102099
13.6029    0.09574700000000001
13.7029    0.09357400000000002
13.8029    0.08999899999999998
13.9029    0.09036000000000001
14.0029    0.082581
14.1029    0.076133
14.2029    0.074883
14.3029    0.073201
14.4029    0.06717100000000001
14.5029    0.06821100000000001
14.6029    0.061361
14.7029    0.058949999999999995
14.8029    0.059551999999999994
14.9029    0.060245999999999994
15.0029    0.058298
15.1029    0.057487
15.2029    0.057231000000000004
15.3029    0.05667
15.4029    0.055642
15.5029    0.060531
15.6029    0.059407
15.7029    0.0587
15.8029    0.064123
15.9029    0.063037
16.0029    0.070075
16.1029    0.07126400000000001
16.2029    0.070377
16.3029    0.07981200000000001
16.4029    0.079072
16.5029    0.082898
16.6029    0.086807
16.7029    0.096544
16.8029    0.10244
16.9029    0.10469200000000001
17.0029    0.109267
17.1029    0.115907
17.2029    0.11800699999999999
17.3029    0.11622099999999999
17.4029    0.124004
17.5029    0.12232799999999999
17.6029    0.130246
17.7029    0.13234700000000002
17.8029    0.136627
17.9029    0.132152
18.0029    0.135987
18.1029    0.132198
18.2029    0.126253
18.3029    0.13939000000000001
18.4029    0.13458
18.5029    0.13065
18.6029    0.129904
18.7029    0.133355
18.8029    0.135579
18.9029    0.12732
19.0029    0.13291999999999998
19.1029    0.13033999999999998
19.2029    0.13171000000000002
19.3029    0.134124
19.4029    0.130026
19.5029    0.133575
19.6029    0.129682
19.7029    0.146936
19.8029    0.136628
19.9029    0.13488
20.0029    0.135334
20.1029    0.137315
20.2029    0.14282499999999998
20.3029    0.137233
20.4029    0.146245
20.5029    0.143854
20.6029    0.156497
20.7029    0.154843
20.8029    0.15038400000000002
20.9029    0.161116
21.0029    0.164411
21.1029    0.165926
21.2029    0.16816099999999998
21.3029    0.162923
21.4029    0.16438599999999998
21.5029    0.16869599999999998
21.6029    0.175558
21.7029    0.167929
21.8029    0.184749
21.9029    0.170409
22.0029    0.183444
22.1029    0.17897500000000002
22.2029    0.172545
22.3029    0.18090399999999998
22.4029    0.178597
22.5029    0.17766
22.6029    0.175062
22.7029    0.17941200000000002
22.8029    0.183393
22.9029    0.183433
23.0029    0.18244500000000002
23.1029    0.18282400000000001
23.2029    0.182887
23.3029    0.180842
23.4029    0.179558
23.5029    0.185996
23.6029    0.18481799999999998
23.7029    0.189167
23.8029    0.178035
23.9029    0.183315
24.0029    0.18478399999999998
24.1029    0.18215199999999998
24.2029    0.191054
24.3029    0.170818
24.4029    0.19542199999999998
24.5029    0.17405099999999998
24.6029    0.19034
24.7029    0.172622
24.8029    0.178738
24.9029    0.18141600000000002
25.0029    0.172806
25.1029    0.184976
25.2029    0.183357
25.3029    0.189672
25.4029    0.177112
25.5029    0.18450000000000003
25.6029    0.18146299999999999
25.7029    0.17783600000000002
25.8029    0.175482
25.9029    0.167871
26.0029    0.179573
26.1029    0.180855
26.2029    0.171913
26.3029    0.177579
26.4029    0.16983
26.5029    0.178697
26.6029    0.171675
26.7029    0.183436
26.8029    0.173558
26.9029    0.18406299999999998
27.0029    0.184463
27.1029    0.17996100000000004
27.2029    0.17982
27.3029    0.17630200000000001
27.4029    0.170925
27.5029    0.164546
27.6029    0.182458
27.7029    0.18145399999999998
27.8029    0.176554
27.9029    0.176998
28.0029    0.18276799999999999
28.1029    0.17458
28.2029    0.175534
28.3029    0.18190800000000001
28.4029    0.18238100000000002
28.5029    0.171874
28.6029    0.176848
28.7029    0.17567
28.8029    0.18393099999999998
28.9029    0.177622
29.0029    0.17399599999999998
29.1029    0.183235
29.2029    0.175992
29.3029    0.18431499999999998
29.4029    0.17595
29.5029    0.173465
29.6029    0.188714
29.7029    0.172691
29.8029    0.182285
29.9029    0.17693
30.0029    0.168218
30.1029    0.19901200000000002
30.2029    0.16624
30.3029    0.1758
30.4029    0.163204
30.5029    0.175919
30.6029    0.169542
30.7029    0.170918
30.8029    0.163827
30.9029    0.16609400000000002
31.0029    0.168094
31.1029    0.17158400000000001
31.2029    0.17264200000000002
31.3029    0.160594
31.4029    0.164438
31.5029    0.15412800000000001
31.6029    0.162433
31.7029    0.163915
31.8029    0.154019
31.9029    0.159605
32.0029    0.15601900000000002
32.1029    0.166439
32.2029    0.155975
32.3029    0.152319
32.4029    0.153685
32.5029    0.154188
32.6029    0.15467
32.7029    0.15022
32.8029    0.151642
32.9029    0.15393600000000002
33.0029    0.146716
33.1029    0.142683
33.2029    0.149051
33.3029    0.13134099999999999
33.4029    0.151007
33.5029    0.14562399999999998
33.6029    0.137764
33.7029    0.14231399999999997
33.8029    0.141623
33.9029    0.147589
34.0029    0.143881
34.1029    0.136858
34.2029    0.139483
34.3029    0.13866799999999999
34.4029    0.128655
34.5029    0.142724
34.6029    0.128636
34.7029    0.13805499999999998
34.8029    0.13761400000000001
34.9029    0.13364900000000002
35.0029    0.132918
35.1029    0.13731500000000002
35.2029    0.13173400000000002
35.3029    0.132946
35.4029    0.134131
35.5029    0.13541599999999998
35.6029    0.141829
35.7029    0.124068
35.8029    0.134266
35.9029    0.132349
36.0029    0.136826
36.1029    0.12957400000000002
36.2029    0.129983
36.3029    0.12912400000000002
36.4029    0.130877
36.5029    0.134138
36.6029    0.129698
36.7029    0.137046
36.8029    0.123158
36.9029    0.131898
37.0029    0.127386
37.1029    0.131932
37.2029    0.12740400000000002
37.3029    0.129251
37.4029    0.127585
37.5029    0.12417299999999999
37.6029    0.127643
37.7029    0.123486
37.8029    0.122311
37.9029    0.128591
38.0029    0.127649
38.1029    0.12385000000000002
38.2029    0.130489
38.3029    0.126228
38.4029    0.12439
38.5029    0.11244900000000001
38.6029    0.12368900000000001
38.7029    0.12209199999999999
38.8029    0.119743
38.9029    0.114174
39.0029    0.118071
39.1029    0.112098
39.2029    0.113906
39.3029    0.11397399999999999
39.4029    0.116096
39.5029    0.11460700000000001
39.6029    0.10311600000000001
39.7029    0.109884
39.8029    0.103924
39.9029    0.10290099999999999
40.0029    0.100737
40.1029    0.101172
40.2029    0.10623699999999998
40.3029    0.10076399999999999
40.4029    0.09695600000000001
40.5029    0.094733
40.6029    0.096883
40.7029    0.095107
40.8029    0.09334799999999999
40.9029    0.09306
41.0029    0.08907799999999999
41.1029    0.091409
41.2029    0.085118
41.3029    0.08438699999999999
41.4029    0.08276499999999999
41.5029    0.084858
41.6029    0.083684
41.7029    0.084016
41.8029    0.08237
41.9029    0.07955699999999999
42.0029    0.07842099999999999
42.1029    0.07998699999999999
42.2029    0.07687300000000001
42.3029    0.07966000000000001
42.4029    0.07605899999999999
42.5029    0.074134
42.6029    0.073324
42.7029    0.069666
42.8029    0.06976
42.9029    0.0693
43.0029    0.074877
43.1029    0.06486600000000001
43.2029    0.066788
43.3029    0.067397
43.4029    0.06733399999999999
43.5029    0.065605
43.6029    0.065992
43.7029    0.063668
43.8029    0.063676
43.9029    0.066369
44.0029    0.062009
44.1029    0.064366
44.2029    0.061837
44.3029    0.062325
44.4029    0.057249
44.5029    0.061096
44.6029    0.059934
44.7029    0.062762
44.8029    0.055424
44.9029    0.061383
45.0029    0.059173
45.1029    0.05629100000000001
45.2029    0.055526
45.3029    0.054458
45.4029    0.05731499999999999
45.5029    0.055163
45.6029    0.050245
45.7029    0.051949
45.8029    0.054079
45.9029    0.049532999999999994
46.0029    0.047529
46.1029    0.051107
46.2029    0.047795000000000004
46.3029    0.052384
46.4029    0.044448999999999995
46.5029    0.048605999999999996
46.6029    0.046177
46.7029    0.04672
46.8029    0.046429000000000005
46.9029    0.043708
47.0029    0.044535
47.1029    0.047203
47.2029    0.041818
47.3029    0.04267
47.4029    0.043536
47.5029    0.041491
47.6029    0.042075999999999995
47.7029    0.044835
47.8029    0.041832
47.9029    0.039782
48.0029    0.04256
48.1029    0.045257000000000006
48.2029    0.03877
48.3029    0.03974
48.4029    0.040298
48.5029    0.038286
48.6029    0.040093
48.7029    0.039639999999999995
48.8029    0.041812999999999996
48.9029    0.039788000000000004
49.0029    0.041939
49.1029    0.042002
49.2029    0.040006
49.3029    0.039040000000000005
49.4029    0.041073
49.5029    0.041017
49.6029    0.03925
49.7029    0.037729
49.8029    0.038859
49.9029    0.038352
50.0029    0.039634
50.1029    0.040181
50.2029    0.03793
50.3029    0.040916
50.4029    0.036086
50.5029    0.036341
50.6029    0.036657999999999996
50.7029    0.03904200000000001
50.8029    0.037294
50.9029    0.036604000000000005
51.0029    0.034551
51.1029    0.039356
51.2029    0.038762000000000005
51.3029    0.035434
51.4029    0.035317
51.5029    0.035428
51.6029    0.036853000000000004
51.7029    0.037152000000000004
51.8029    0.035851
51.9029    0.035348
52.0029    0.03435800000000001
52.1029    0.033249
52.2029    0.034964999999999996
52.3029    0.034993
52.4029    0.03401
52.5029    0.034908
52.6029    0.032136
52.7029    0.03245
52.8029    0.036187
52.9029    0.034034
53.0029    0.034208999999999996
53.1029    0.033635
53.2029    0.034942999999999995
53.3029    0.033734
53.4029    0.034616
53.5029    0.032969
53.6029    0.034355000000000004
53.7029    0.032698
53.8029    0.03472600000000001
53.9029    0.032106
54.0029    0.031716
54.1029    0.032846
54.2029    0.029566999999999996
54.3029    0.032566
54.4029    0.031321
54.5029    0.031323
54.6029    0.030979
54.7029    0.031572
54.8029    0.029626999999999997
54.9029    0.028325
55.0029    0.03182
55.1029    0.029989999999999996
55.2029    0.031197000000000003
55.3029    0.031866
55.4029    0.031224000000000002
55.5029    0.029473
55.6029    0.031070999999999998
55.7029    0.029143000000000002
55.8029    0.028585
55.9029    0.030445
56.0029    0.030143999999999997
56.1029    0.030224
56.2029    0.030168
56.3029    0.027629
56.4029    0.027198
56.5029    0.028214000000000003
56.6029    0.026834999999999998
56.7029    0.028700999999999997
56.8029    0.026282
56.9029    0.026453000000000004
57.0029    0.023955999999999998
57.1029    0.025880999999999998
57.2029    0.025949999999999997
57.3029    0.024249
57.4029    0.025620999999999998
57.5029    0.025514000000000002
57.6029    0.02512
57.7029    0.024028
57.8029    0.024794999999999998
57.9029    0.023253
58.0029    0.024487
58.1029    0.025093999999999998
58.2029    0.024621
58.3029    0.023923
58.4029    0.023695
58.5029    0.023598
58.6029    0.02518
58.7029    0.024946
58.8029    0.024723
58.9029    0.026513
59.0029    0.025875000000000002
59.1029    0.026730000000000004
59.2029    0.026587
59.3029    0.029678999999999997
59.4029    0.026803
59.5029    0.028091000000000005
59.6029    0.029309
59.7029    0.028487
59.8029    0.029404
59.9029    0.032575
60.0029    0.032073
60.1029    0.030011
60.2029    0.029509999999999998
60.3029    0.032773
60.4029    0.029279999999999997
60.5029    0.030131
60.6029    0.033930999999999996
60.7029    0.033514
60.8029    0.032783
60.9029    0.033059
61.0029    0.034702
61.1029    0.034192
61.2029    0.037254
61.3029    0.034415
61.4029    0.033645
61.5029    0.036178
61.6029    0.037431
61.7029    0.035122
61.8029    0.038301
61.9029    0.039264
62.0029    0.037173
62.1029    0.037945
62.2029    0.038202
62.3029    0.036904
62.4029    0.038426999999999996
62.5029    0.038244
62.6029    0.034666999999999996
62.7029    0.032996
62.8029    0.03269
62.9029    0.035144999999999996
63.0029    0.033548
63.1029    0.035205
63.2029    0.035192
63.3029    0.034878
63.4029    0.034662
63.5029    0.032382
63.6029    0.034586
63.7029    0.036108
63.8029    0.037385
63.9029    0.035059
64.0029    0.035505
64.1029    0.033867
64.2029    0.039257
64.3029    0.037327
64.4029    0.038447
64.5029    0.038432
64.6029    0.04113700000000001
64.7029    0.038735
64.8029    0.038861
64.9029    0.039002
65.0029    0.038595
65.1029    0.038425
65.2029    0.039008
65.3029    0.038467
65.4029    0.040886000000000006
65.5029    0.040963
65.6029    0.038811
65.7029    0.037348
65.8029    0.035865999999999995
65.9029    0.036846000000000004
66.0029    0.043298
66.1029    0.038387
66.2029    0.037022
66.3029    0.038757
66.4029    0.036964000000000004
66.5029    0.037776
66.6029    0.033579
66.7029    0.037097
66.8029    0.039644
66.9029    0.038127
67.0029    0.042860999999999996
67.1029    0.044243000000000005
67.2029    0.039433
67.3029    0.040032
67.4029    0.042274
67.5029    0.043331
67.6029    0.043266
67.7029    0.037816
67.8029    0.041782
67.9029    0.040492
68.0029    0.039006
68.1029    0.04016
68.2029    0.040517
68.3029    0.043622999999999995
68.4029    0.038307999999999995
68.5029    0.043198
68.6029    0.041014999999999996
68.7029    0.045100999999999995
68.8029    0.043647
68.9029    0.042799000000000004
69.0029    0.044913999999999996
69.1029    0.042568
69.2029    0.04211
69.3029    0.042258000000000004
69.4029    0.041923
69.5029    0.039059
69.6029    0.036079
69.7029    0.038788
69.8029    0.03785
69.9029    0.036809999999999996
70.0029    0.04070699999999999
70.1029    0.036952
70.2029    0.040102
70.3029    0.034266000000000005
70.4029    0.036187
70.5029    0.037995999999999995
70.6029    0.033944
70.7029    0.035601
70.8029    0.035493000000000004
70.9029    0.039006
71.0029    0.033959
71.1029    0.03603
71.2029    0.034323
71.3029    0.035796999999999995
71.4029    0.036584
71.5029    0.033584
71.6029    0.032891000000000004
71.7029    0.032268
71.8029    0.034753000000000006
71.9029    0.029066
72.0029    0.034774
72.1029    0.033921
72.2029    0.030354
72.3029    0.031588
72.4029    0.030043
72.5029    0.031243
72.6029    0.029556999999999996
72.7029    0.029668
72.8029    0.030344
72.9029    0.02781
73.0029    0.030282000000000003
73.1029    0.027609
73.2029    0.025192
73.3029    0.026924999999999998
73.4029    0.030089
73.5029    0.027524
73.6029    0.026518
73.7029    0.024756999999999998
73.8029    0.021988
73.9029    0.025193
74.0029    0.024333
74.1029    0.023511999999999998
74.2029    0.025791999999999995
74.3029    0.022133
74.4029    0.025384999999999998
74.5029    0.024633000000000002
74.6029    0.022213
74.7029    0.025799000000000002
74.8029    0.025427
74.9029    0.021849
75.0029    0.024370000000000003
75.1029    0.027589000000000002
75.2029    0.022968
75.3029    0.023821999999999996
75.4029    0.023088
75.5029    0.024922
75.6029    0.026436
75.7029    0.027946
75.8029    0.024862
75.9029    0.023319
76.0029    0.018685
76.1029    0.025197
76.2029    0.02242
76.3029    0.024059999999999998
76.4029    0.024808
76.5029    0.024207
76.6029    0.023117
76.7029    0.025672999999999998
76.8029    0.021795000000000002
76.9029    0.025965000000000002
77.0029    0.022449999999999998
77.1029    0.020581000000000002
77.2029    0.021921
77.3029    0.019422
77.4029    0.019363
77.5029    0.025867
77.6029    0.020642
77.7029    0.024971
77.8029    0.023109
77.9029    0.01842
78.0029    0.018904999999999998
78.1029    0.017827999999999997
78.2029    0.018650999999999997
78.3029    0.016819
78.4029    0.018419
78.5029    0.015345
78.6029    0.018039
78.7029    0.017622
78.8029    0.015194
78.9029    0.020152999999999997
79.0029    0.021248999999999997
79.1029    0.016511
79.2029    0.015615
79.3029    0.01915
79.4029    0.018785
79.5029    0.019426000000000002
79.6029    0.015126
79.7029    0.019204000000000002
79.8029    0.018948
79.9029    0.013425000000000001
80.0029    0.019705999999999998
80.1029    0.01951
80.2029    0.017776000000000004
80.3029    0.013885
80.4029    0.015589000000000002
80.5029    0.016673
80.6029    0.013626
80.7029    0.020186
80.8029    0.020435000000000002
80.9029    0.017893
81.0029    0.022781999999999997
81.1029    0.022515000000000004
81.2029    0.015468999999999998
81.3029    0.020585999999999997
81.4029    0.018045
81.5029    0.015745
81.6029    0.01981
81.7029    0.025037999999999998
81.8029    0.022767
81.9029    0.017011
82.0029    0.018046999999999997
82.1029    0.016394
82.2029    0.014992000000000002
82.3029    0.02418
82.4029    0.014098
82.5029    0.024003
82.6029    0.022591
82.7029    0.018168
82.8029    0.023547000000000002
82.9029    0.016717
83.0029    0.020457
83.1029    0.015091
83.2029    0.025498
83.3029    0.020081
83.4029    0.027411
83.5029    0.02268
83.6029    0.021023999999999998
83.7029    0.017596
83.8029    0.021671
83.9029    0.011262
84.0029    0.025417000000000002
84.1029    0.014450000000000001
84.2029    0.008718
84.3029    0.018205
84.4029    0.011855
84.5029    0.01651
84.6029    0.019687
84.7029    0.009923999999999999
84.8029    0.017166999999999998
84.9029    0.014516
85.0029    0.011990999999999998
85.1029    0.009382999999999999
85.2029    0.007867
85.3029    0.014329000000000001
85.4029    0.013705
85.5029    0.007951
85.6029    0.008785
85.7029    0.00629
85.8029    0.011554
85.9029    0.005314
86.0029    0.004614
86.1029    0.005604
86.2029    0.008361
86.3029    0.0033740000000000003
86.4029    0.008804000000000001
86.5029    0.011443
86.6029    0.010546
86.7029    0.008388
86.8029    0.0061730000000000005
86.9029    0.007269000000000001