-47.2585    0.016612
-47.1585    0.005861
-47.0585    0.007228
-46.9585    0.007736000000000001
-46.8585    0.008805
-46.7585    0.01009
-46.6585    0.01005
-46.5585    0.008657
-46.4585    0.010602
-46.3585    0.011605999999999998
-46.2585    0.009300000000000001
-46.1585    0.008039999999999999
-46.0585    0.006588999999999999
-45.9585    0.007508
-45.8585    0.004723
-45.7585    0.004681
-45.6585    0.002641
-45.5585    0.0025059999999999995
-45.4585    0.001859
-45.3585    0.001286
-45.2585    0.000915
-45.1585    0.000277
-45.0585    0.000546
-44.9585    0.000283
-44.8585    0.00017800000000000002
-44.7585    0.0
-44.6585    0.00012099999999999999
-44.5585    0.0
-44.4585    0.0
-44.3585    0.0
-44.2585    0.0
-44.1585    5.399999999999999e-05
-44.0585    0.0
-43.9585    0.0
-43.8585    0.0
-43.7585    0.0
-43.6585    0.0
-43.5585    0.0
-43.4585    0.0
-43.3585    0.0
-43.2585    0.0
-43.1585    0.0
-43.0585    0.0
-42.9585    0.0
-42.8585    0.0
-42.7585    0.0
-42.6585    0.0
-42.5585    0.0
-42.4585    0.0
-42.3585    0.0
-42.2585    0.0
-42.1585    0.0
-42.0585    0.0
-41.9585    0.0
-41.8585    0.0
-41.7585    0.0
-41.6585    0.0
-41.5585    0.0
-41.4585    0.0
-41.3585    0.0
-41.2585    0.0
-41.1585    0.0
-41.0585    0.0
-40.9585    0.0
-40.8585    0.0
-40.7585    0.0
-40.6585    0.0
-40.5585    0.0
-40.4585    0.0
-40.3585    0.0
-40.2585    0.0
-40.1585    0.0
-40.0585    0.0
-39.9585    0.0
-39.8585    0.0
-39.7585    0.0
-39.6585    0.0
-39.5585    0.0
-39.4585    0.0
-39.3585    0.0
-39.2585    0.0
-39.1585    0.0
-39.0585    0.0
-38.9585    0.0
-38.8585    0.0
-38.7585    0.0
-38.6585    0.0
-38.5585    0.0
-38.4585    0.0
-38.3585    0.0
-38.2585    0.0
-38.1585    0.0
-38.0585    0.0
-37.9585    0.0
-37.8585    0.0
-37.7585    0.0
-37.6585    0.0
-37.5585    0.0
-37.4585    0.0
-37.3585    0.0
-37.2585    0.0
-37.1585    0.0
-37.0585    0.0
-36.9585    0.0
-36.8585    0.0
-36.7585    0.0
-36.6585    0.0
-36.5585    0.0
-36.4585    0.0
-36.3585    0.0
-36.2585    0.0
-36.1585    0.0
-36.0585    0.0
-35.9585    0.0
-35.8585    0.0
-35.7585    0.0
-35.6585    0.0
-35.5585    0.0
-35.4585    0.0
-35.3585    0.0
-35.2585    0.0
-35.1585    0.0
-35.0585    0.0
-34.9585    0.0
-34.8585    0.0
-34.7585    0.0
-34.6585    0.0
-34.5585    0.0
-34.4585    0.0
-34.3585    0.0
-34.2585    0.0
-34.1585    0.0
-34.0585    0.0
-33.9585    0.0
-33.8585    0.0
-33.7585    0.0
-33.6585    0.0
-33.5585    0.0
-33.4585    0.0
-33.3585    0.0
-33.2585    0.0
-33.1585    0.0
-33.0585    0.0
-32.9585    0.0
-32.8585    0.0
-32.7585    0.0
-32.6585    0.0
-32.5585    0.0
-32.4585    0.0
-32.3585    0.0
-32.2585    0.0
-32.1585    0.0
-32.0585    0.0
-31.9585    0.0
-31.8585    0.0
-31.7585    0.009554
-31.6585    0.00477
-31.5585    0.00477
-31.4585    0.0
-31.3585    0.014335
-31.2585    0.023998
-31.1585    0.023906
-31.0585    0.06733499999999999
-30.9585    0.11007600000000001
-30.8585    0.128995
-30.7585    0.191668
-30.6585    0.306998
-30.5585    0.326046
-30.4585    0.632966
-30.3585    0.8103250000000001
-30.2585    0.8068470000000001
-30.1585    0.979374
-30.0585    1.119304
-29.9585    1.19649
-29.8585    1.2782440000000002
-29.7585    1.327972
-29.6585    1.400194
-29.5585    1.217115
-29.4585    1.178974
-29.3585    1.203885
-29.2585    0.9385799999999999
-29.1585    0.7747360000000001
-29.0585    0.8032689999999999
-28.9585    0.617947
-28.8585    0.5520910000000001
-28.7585    0.491392
-28.6585    0.422637
-28.5585    0.503535
-28.4585    0.527374
-28.3585    0.774943
-28.2585    0.992409
-28.1585    1.045909
-28.0585    1.1876039999999999
-27.9585    1.396746
-27.8585    1.616339
-27.7585    1.8300439999999998
-27.6585    2.07823
-27.5585    2.054684
-27.4585    2.115835
-27.3585    2.0898749999999997
-27.2585    2.145548
-27.1585    2.0599299999999996
-27.0585    2.01528
-26.9585    1.8509809999999998
-26.8585    1.6693149999999999
-26.7585    1.546349
-26.6585    1.4653150000000001
-26.5585    1.112117
-26.4585    1.034824
-26.3585    0.718883
-26.2585    0.690093
-26.1585    0.5249469999999999
-26.0585    0.348167
-25.9585    0.28489299999999995
-25.8585    0.222239
-25.7585    0.221675
-25.6585    0.15869699999999998
-25.5585    0.072816
-25.4585    0.07747899999999999
-25.3585    0.050179
-25.2585    0.032705
-25.1585    0.027888999999999997
-25.0585    0.037273
-24.9585    0.07786399999999999
-24.8585    0.09643
-24.7585    0.128723
-24.6585    0.18908099999999997
-24.5585    0.270139
-24.4585    0.335945
-24.3585    0.407226
-24.2585    0.49612500000000004
-24.1585    0.6779459999999999
-24.0585    0.877892
-23.9585    0.782626
-23.8585    0.8508059999999998
-23.7585    1.054484
-23.6585    1.1832239999999998
-23.5585    1.197558
-23.4585    1.269388
-23.3585    1.0755059999999999
-23.2585    1.049099
-23.1585    0.994381
-23.0585    0.9760610000000001
-22.9585    0.813296
-22.8585    0.793127
-22.7585    0.589738
-22.6585    0.463397
-22.5585    0.43255599999999994
-22.4585    0.361916
-22.3585    0.302444
-22.2585    0.24202099999999996
-22.1585    0.20071999999999998
-22.0585    0.226357
-21.9585    0.19656
-21.8585    0.259235
-21.7585    0.275623
-21.6585    0.418871
-21.5585    0.439045
-21.4585    0.585613
-21.3585    0.6491079999999999
-21.2585    0.817187
-21.1585    0.883284
-21.0585    1.034957
-20.9585    1.1976080000000002
-20.8585    1.1738199999999999
-20.7585    1.115708
-20.6585    1.224067
-20.5585    1.076915
-20.4585    1.152212
-20.3585    0.9937590000000001
-20.2585    0.9329910000000001
-20.1585    0.7575899999999999
-20.0585    0.674395
-19.9585    0.5463640000000001
-19.8585    0.5197959999999999
-19.7585    0.30255
-19.6585    0.36301700000000003
-19.5585    0.19736700000000001
-19.4585    0.19833300000000004
-19.3585    0.150969
-19.2585    0.137146
-19.1585    0.136628
-19.0585    0.136547
-18.9585    0.126762
-18.8585    0.14898
-18.7585    0.16236699999999998
-18.6585    0.26191800000000004
-18.5585    0.298333
-18.4585    0.348246
-18.3585    0.38434599999999997
-18.2585    0.42032499999999995
-18.1585    0.565895
-18.0585    0.47063699999999997
-17.9585    0.602365
-17.8585    0.557717
-17.7585    0.575896
-17.6585    0.526918
-17.5585    0.51725
-17.4585    0.49940500000000004
-17.3585    0.42690700000000004
-17.2585    0.362896
-17.1585    0.349614
-17.0585    0.272585
-16.9585    0.222687
-16.8585    0.159297
-16.7585    0.16845
-16.6585    0.10949
-16.5585    0.104774
-16.4585    0.059219999999999995
-16.3585    0.04108
-16.2585    0.018314999999999998
-16.1585    0.022863
-16.0585    0.009122
-15.9585    0.009183
-15.8585    0.018303
-15.7585    0.0047989999999999994
-15.6585    0.00033099999999999997
-15.5585    0.000667
-15.4585    0.000952
-15.3585    0.001033
-15.2585    0.010306
-15.1585    0.0072440000000000004
-15.0585    0.012462
-14.9585    0.029472
-14.8585    0.050015000000000004
-14.7585    0.062509
-14.6585    0.109381
-14.5585    0.198895
-14.4585    0.280491
-14.3585    0.42972699999999997
-14.2585    0.424653
-14.1585    0.631185
-14.0585    0.6945380000000001
-13.9585    0.8140749999999999
-13.8585    0.783292
-13.7585    1.0562909999999999
-13.6585    1.181232
-13.5585    1.124608
-13.4585    1.307999
-13.3585    1.163554
-13.2585    1.265833
-13.1585    1.230426
-13.0585    1.141086
-12.9585    1.1014020000000002
-12.8585    1.014655
-12.7585    0.9592359999999999
-12.6585    0.852083
-12.5585    0.855731
-12.4585    0.9609540000000001
-12.3585    1.003567
-12.2585    0.916047
-12.1585    0.864319
-12.0585    1.038412
-11.9585    0.9488080000000001
-11.8585    0.8522399999999999
-11.7585    0.7168399999999999
-11.6585    0.623922
-11.5585    0.5418620000000001
-11.4585    0.413045
-11.3585    0.454146
-11.2585    0.400679
-11.1585    0.371396
-11.0585    0.450988
-10.9585    0.624908
-10.8585    0.7546660000000001
-10.7585    0.853063
-10.6585    0.955846
-10.5585    1.1683620000000001
-10.4585    1.3439619999999999
-10.3585    1.562651
-10.2585    2.003489
-10.1585    2.219208
-10.0585    2.5144379999999997
-9.95851    2.605571
-9.8585    2.933632
-9.7585    3.196093
-9.6585    3.513146
-9.55851    3.423981
-9.45851    3.774144
-9.3585    3.494476
-9.2585    3.381127
-9.1585    3.0770720000000003
-9.05851    2.986001
-8.95851    2.538969
-8.8585    2.3807440000000004
-8.7585    2.0315619999999996
-8.6585    2.056575
-8.55851    1.693263
-8.45851    1.576638
-8.3585    1.322007
-8.2585    1.158417
-8.1585    1.1971910000000001
-8.05851    1.058544
-7.9585    0.9341680000000001
-7.8585    0.9983489999999999
-7.75851    0.926766
-7.6585    0.9179030000000001
-7.5585    1.072961
-7.4585    1.108013
-7.3585    1.0731920000000001
-7.25851    1.337272
-7.1585    1.4727839999999999
-7.0585    1.680743
-6.9585    2.04819
-6.8585    2.52163
-6.75851    2.884225
-6.6585    3.4142770000000002
-6.5585    3.864227
-6.4585    4.029641
-6.35851    4.547926
-6.25851    4.873634
-6.1585    5.077033999999999
-6.05851    5.713754000000001
-5.9585    5.749796
-5.85851    5.87839
-5.75851    5.809506000000001
-5.6585    5.938896000000001
-5.55851    6.017218
-5.4585    6.05522
-5.35851    6.073079000000001
-5.25851    5.858219999999999
-5.1585    5.724189999999999
-5.05851    5.4517109999999995
-4.9585    5.187851
-4.85851    5.022562
-4.75851    4.517277000000001
-4.6585    4.222715
-4.55851    3.9636970000000002
-4.4585    3.5919309999999998
-4.35851    3.1342079999999997
-4.25851    2.6678800000000003
-4.1585    2.1793210000000003
-4.05851    2.003847
-3.95851    1.631186
-3.85851    1.467362
-3.75851    1.3080310000000002
-3.6585    1.111729
-3.5585    1.110295
-3.45851    1.215874
-3.35851    1.196238
-3.25851    1.363755
-3.1585    1.550476
-3.0585    1.8102110000000002
-2.95851    1.9545929999999998
-2.85851    2.160263
-2.7585    2.4308749999999995
-2.6585    2.708411
-2.5585    2.8073699999999997
-2.45851    2.950274
-2.35851    3.2213260000000004
-2.2585    3.206737
-2.1585    3.283848
-2.0585    3.2644670000000002
-1.9585    3.259259
-1.85851    3.298077
-1.7585    3.233486
-1.6585    3.195977
-1.55851    3.0813319999999997
-1.4585    2.99507
-1.35851    2.934485
-1.2585    2.6052060000000004
-1.1585    2.571465
-1.05851    2.5145600000000004
-0.958505    2.436205
-0.858505    2.101454
-0.758505    1.869072
-0.658505    1.8050540000000002
-0.558505    1.624811
-0.458505    1.1724470000000002
-0.358505    1.085048
-0.258505    0.893719
-0.158505    0.7612070000000001
-0.058505    0.598231
0.041495    0.4155
0.141495    0.264481
0.241495    0.255948
0.341495    0.16705499999999998
0.441495    0.09072200000000001
0.541495    0.078044
0.641495    0.040084
0.741495    0.014353
0.841495    0.004907999999999999
0.941495    0.009457000000000002
1.0415    0.004512
1.14149    0.0
1.2415    0.0
1.3415    0.0
1.44149    0.0
1.5415    0.0
1.64149    0.0
1.7415    0.0
1.8415    0.0
1.9415    0.0
2.04149    0.0
2.14149    0.0
2.2415    0.0
2.3415    0.0
2.4415    0.0
2.54149    0.0
2.64149    0.0
2.7415    0.0
2.8415    0.0
2.9415    0.0
3.04149    0.0
3.14149    0.0
3.24149    0.0
3.3415    0.0
3.4415    0.004487
3.54149    0.0
3.64149    0.00886
3.74149    0.0
3.8415    0.013345999999999998
3.9415    0.035113000000000005
4.0415    0.027055999999999997
4.14149    0.048735
4.24149    0.048577999999999996
4.3415    0.060457000000000004
4.44149    0.090865
4.5415    0.132114
4.64149    0.198368
4.74149    0.274007
4.8415    0.307819
4.94149    0.346094
5.0415    0.42574
5.14149    0.504905
5.24149    0.601645
5.3415    0.723215
5.44149    0.682554
5.5415    0.8409929999999999
5.64149    0.8616969999999999
5.74149    1.108735
5.8415    1.0093839999999998
5.94149    1.04352
6.0415    1.106756
6.14149    1.218963
6.24149    1.2588430000000002
6.3415    1.221699
6.4415    1.3687529999999999
6.5415    1.4675449999999999
6.6415    1.364434
6.74149    1.44315
6.8415    1.519392
6.9415    1.552186
7.0415    1.6707269999999999
7.1415    1.587171
7.24149    1.6491820000000001
7.3415    1.6341759999999999
7.4415    1.6174840000000001
7.5415    1.599189
7.6415    1.5883669999999999
7.74149    1.613712
7.8415    1.575211
7.9415    1.4526720000000002
8.04149    1.505971
8.1415    1.4968110000000001
8.2415    1.519554
8.3415    1.366082
8.44149    1.362535
8.54149    1.3387099999999998
8.6415    1.391641
8.7415    1.341513
8.8415    1.376725
8.94149    1.317943
9.04149    1.2231329999999998
9.1415    1.3340919999999998
9.2415    1.213165
9.3415    1.277097
9.44149    1.221788
9.54149    1.235699
9.6415    1.229726
9.7415    1.299887
9.8415    1.251503
9.94149    1.30728
10.0415    1.332242
10.1415    1.393548
10.2415    1.407613
10.3415    1.4466150000000002
10.4415    1.459443
10.5415    1.538422
10.6415    1.5928769999999999
10.7415    1.694646
10.8415    1.626517
10.9415    1.726921
11.0415    1.686105
11.1415    1.7683550000000001
11.2415    1.736206
11.3415    1.765445
11.4415    1.7246610000000002
11.5415    1.712257
11.6415    1.7199049999999998
11.7415    1.677343
11.8415    1.7145110000000001
11.9415    1.635134
12.0415    1.617485
12.1415    1.558332
12.2415    1.438517
12.3415    1.470947
12.4415    1.4087290000000001
12.5415    1.354384
12.6415    1.31297
12.7415    1.260399
12.8415    1.143783
12.9415    1.135752
13.0415    1.085232
13.1415    0.9661069999999999
13.2415    0.953889
13.3415    0.868409
13.4415    0.8337420000000001
13.5415    0.7757320000000001
13.6415    0.754955
13.7415    0.699093
13.8415    0.649795
13.9415    0.641938
14.0415    0.5801160000000001
14.1415    0.6204900000000001
14.2415    0.582522
14.3415    0.581231
14.4415    0.547906
14.5415    0.54912
14.6415    0.532353
14.7415    0.520949
14.8415    0.5436679999999999
14.9415    0.5379149999999999
15.0415    0.5416300000000001
15.1415    0.531418
15.2415    0.557605
15.3415    0.576694
15.4415    0.591442
15.5415    0.608879
15.6415    0.6285019999999999
15.7415    0.69143
15.8415    0.713177
15.9415    0.7489540000000001
16.0415    0.817664
16.1415    0.843424
16.2415    0.881623
16.3415    0.9858310000000001
16.4415    1.030442
16.5415    1.10346
16.6415    1.132041
16.7415    1.224299
16.8415    1.239169
16.9415    1.2940189999999998
17.0415    1.348774
17.1415    1.3810149999999999
17.2415    1.3676580000000003
17.3415    1.408499
17.4415    1.4123799999999997
17.5415    1.452366
17.6415    1.4099069999999998
17.7415    1.473589
17.8415    1.42516
17.9415    1.479385
18.0415    1.4458720000000003
18.1415    1.4213360000000002
18.2415    1.455072
18.3415    1.474931
18.4415    1.470432
18.5415    1.482256
18.6415    1.4806949999999999
18.7415    1.471685
18.8415    1.5227270000000002
18.9415    1.493783
19.0415    1.5361249999999997
19.1415    1.573988
19.2415    1.554844
19.3415    1.593632
19.4415    1.549203
19.5415    1.592777
19.6415    1.5918130000000001
19.7415    1.621901
19.8415    1.6452660000000001
19.9415    1.693227
20.0415    1.650501
20.1415    1.671047
20.2415    1.708212
20.3415    1.6845089999999998
20.4415    1.740616
20.5415    1.691923
20.6415    1.7374589999999999
20.7415    1.7550139999999999
20.8415    1.774157
20.9415    1.8268469999999999
21.0415    1.7848240000000002
21.1415    1.800989
21.2415    1.733965
21.3415    1.816032
21.4415    1.8525
21.5415    1.819385
21.6415    1.807347
21.7415    1.8668270000000002
21.8415    1.8262839999999998
21.9415    1.869522
22.0415    1.903656
22.1415    1.8588520000000002
22.2415    1.8251110000000001
22.3415    1.8489309999999999
22.4415    1.844532
22.5415    1.8461400000000001
22.6415    1.8161079999999998
22.7415    1.902984
22.8415    1.8203029999999998
22.9415    1.837913
23.0415    1.842457
23.1415    1.8239200000000002
23.2415    1.9073969999999998
23.3415    1.8178029999999998
23.4415    1.805469
23.5415    1.826623
23.6415    1.824526
23.7415    1.8098049999999999
23.8415    1.747991
23.9415    1.809241
24.0415    1.744488
24.1415    1.801898
24.2415    1.738292
24.3415    1.767791
24.4415    1.7724849999999999
24.5415    1.7365350000000002
24.6415    1.777139
24.7415    1.703198
24.8415    1.7661920000000002
24.9415    1.730924
25.0415    1.70942
25.1415    1.725407
25.2415    1.756919
25.3415    1.6290689999999999
25.4415    1.765103
25.5415    1.72347
25.6415    1.710733
25.7415    1.6737879999999998
25.8415    1.730231
25.9415    1.6991530000000001
26.0415    1.695638
26.1415    1.6964789999999998
26.2415    1.690202
26.3415    1.689638
26.4415    1.6967919999999999
26.5415    1.7160559999999998
26.6415    1.706639
26.7415    1.758516
26.8415    1.6867510000000001
26.9415    1.6474220000000002
27.0415    1.738546
27.1415    1.6717469999999999
27.2415    1.7482969999999998
27.3415    1.664682
27.4415    1.7690270000000001
27.5415    1.65696
27.6415    1.693932
27.7415    1.6994350000000003
27.8415    1.7076529999999999
27.9415    1.694885
28.0415    1.6702649999999999
28.1415    1.714493
28.2415    1.688772
28.3415    1.6812179999999999
28.4415    1.749539
28.5415    1.662057
28.6415    1.611844
28.7415    1.682539
28.8415    1.701117
28.9415    1.6779070000000003
29.0415    1.6311490000000002
29.1415    1.675306
29.2415    1.6105880000000001
29.3415    1.68438
29.4415    1.657938
29.5415    1.655896
29.6415    1.644912
29.7415    1.623386
29.8415    1.661441
29.9415    1.605466
30.0415    1.64141
30.1415    1.641307
30.2415    1.565951
30.3415    1.673996
30.4415    1.5738500000000002
30.5415    1.629081
30.6415    1.5646680000000002
30.7415    1.572009
30.8415    1.5444149999999999
30.9415    1.538079
31.0415    1.571083
31.1415    1.5804299999999998
31.2415    1.5564090000000002
31.3415    1.531093
31.4415    1.5058010000000002
31.5415    1.5169139999999999
31.6415    1.5221190000000002
31.7415    1.4961740000000001
31.8415    1.5130150000000002
31.9415    1.494928
32.0415    1.493677
32.1415    1.4752450000000001
32.2415    1.4698440000000002
32.3415    1.4620989999999998
32.4415    1.4286789999999998
32.5415    1.4547929999999998
32.6415    1.459603
32.7415    1.476578
32.8415    1.448551
32.9415    1.4088180000000001
33.0415    1.4056899999999999
33.1415    1.438445
33.2415    1.36281
33.3415    1.4573269999999998
33.4415    1.344368
33.5415    1.3723319999999999
33.6415    1.418274
33.7415    1.360989
33.8415    1.2888609999999998
33.9415    1.406711
34.0415    1.3336389999999998
34.1415    1.3466690000000001
34.2415    1.342865
34.3415    1.3520549999999998
34.4415    1.327015
34.5415    1.3493149999999998
34.6415    1.3334840000000001
34.7415    1.315969
34.8415    1.325837
34.9415    1.3166740000000001
35.0415    1.287318
35.1415    1.3361509999999999
35.2415    1.317874
35.3415    1.298054
35.4415    1.3728310000000001
35.5415    1.286362
35.6415    1.318205
35.7415    1.340303
35.8415    1.308967
35.9415    1.351664
36.0415    1.309935
36.1415    1.313723
36.2415    1.334378
36.3415    1.3399670000000001
36.4415    1.282992
36.5415    1.364417
36.6415    1.325428
36.7415    1.350707
36.8415    1.3300709999999998
36.9415    1.373375
37.0415    1.346683
37.1415    1.308206
37.2415    1.3565390000000002
37.3415    1.293119
37.4415    1.310207
37.5415    1.344319
37.6415    1.295896
37.7415    1.317107
37.8415    1.284527
37.9415    1.286431
38.0415    1.278075
38.1415    1.306211
38.2415    1.227429
38.3415    1.2549599999999999
38.4415    1.2409690000000002
38.5415    1.1872340000000001
38.6415    1.231378
38.7415    1.204789
38.8415    1.1790189999999998
38.9415    1.1685439999999998
39.0415    1.136034
39.1415    1.129241
39.2415    1.1607899999999998
39.3415    1.11452
39.4415    1.096471
39.5415    1.105273
39.6415    1.095396
39.7415    1.077528
39.8415    0.998735
39.9415    1.071961
40.0415    1.016164
40.1415    1.023143
40.2415    0.997638
40.3415    0.9818020000000001
40.4415    0.977291
40.5415    0.941837
40.6415    0.964059
40.7415    0.968093
40.8415    0.8991169999999999
40.9415    0.902408
41.0415    0.90408
41.1415    0.896246
41.2415    0.903837
41.3415    0.8845670000000001
41.4415    0.8641840000000001
41.5415    0.8243950000000001
41.6415    0.8425729999999999
41.7415    0.814563
41.8415    0.8281499999999999
41.9415    0.7980849999999999
42.0415    0.7612120000000001
42.1415    0.7907869999999999
42.2415    0.7797580000000001
42.3415    0.7528910000000001
42.4415    0.717802
42.5415    0.7530840000000001
42.6415    0.716634
42.7415    0.694364
42.8415    0.7210439999999999
42.9415    0.6934609999999999
43.0415    0.700798
43.1415    0.676116
43.2415    0.658919
43.3415    0.674771
43.4415    0.652735
43.5415    0.661084
43.6415    0.657031
43.7415    0.646678
43.8415    0.6575120000000001
43.9415    0.633518
44.0415    0.619846
44.1415    0.6472730000000001
44.2415    0.5981749999999999
44.3415    0.6210140000000001
44.4415    0.628278
44.5415    0.60581
44.6415    0.58145
44.7415    0.582037
44.8415    0.588636
44.9415    0.604308
45.0415    0.590773
45.1415    0.5603929999999999
45.2415    0.5774980000000001
45.3415    0.56173
45.4415    0.558283
45.5415    0.551588
45.6415    0.552063
45.7415    0.521527
45.8415    0.5549449999999999
45.9415    0.538876
46.0415    0.5273990000000001
46.1415    0.504498
46.2415    0.510927
46.3415    0.521054
46.4415    0.507671
46.5415    0.486886
46.6415    0.491943
46.7415    0.474824
46.8415    0.481312
46.9415    0.464041
47.0415    0.45470499999999997
47.1415    0.44607199999999997
47.2415    0.46593999999999997
47.3415    0.443742
47.4415    0.430932
47.5415    0.41768099999999997
47.6415    0.42392300000000005
47.7415    0.441042
47.8415    0.405171
47.9415    0.43839200000000006
48.0415    0.414574
48.1415    0.42191899999999993
48.2415    0.425489
48.3415    0.415252
48.4415    0.404424
48.5415    0.40818399999999994
48.6415    0.408215
48.7415    0.41305600000000003
48.8415    0.404833
48.9415    0.4106310000000001
49.0415    0.403486
49.1415    0.39204
49.2415    0.409028
49.3415    0.396575
49.4415    0.381704
49.5415    0.394482
49.6415    0.392953
49.7415    0.379773
49.8415    0.37737400000000004
49.9415    0.39173
50.0415    0.375263
50.1415    0.361375
50.2415    0.38152899999999995
50.3415    0.37271000000000004
50.4415    0.3653060000000001
50.5415    0.37642499999999995
50.6415    0.369375
50.7415    0.363083
50.8415    0.361645
50.9415    0.37055899999999997
51.0415    0.37501199999999996
51.1415    0.36248499999999995
51.2415    0.362923
51.3415    0.36224500000000004
51.4415    0.35905600000000004
51.5415    0.370723
51.6415    0.362438
51.7415    0.35199800000000003
51.8415    0.35981
51.9415    0.357985
52.0415    0.361793
52.1415    0.356456
52.2415    0.348309
52.3415    0.349535
52.4415    0.345778
52.5415    0.343379
52.6415    0.337277
52.7415    0.34703500000000004
52.8415    0.33464299999999997
52.9415    0.32447400000000004
53.0415    0.332565
53.1415    0.332911
53.2415    0.325382
53.3415    0.342908
53.4415    0.317816
53.5415    0.329936
53.6415    0.320123
53.7415    0.32474400000000003
53.8415    0.326218
53.9415    0.308345
54.0415    0.304632
54.1415    0.30386399999999997
54.2415    0.31650900000000004
54.3415    0.29309799999999997
54.4415    0.307743
54.5415    0.298757
54.6415    0.296139
54.7415    0.302233
54.8415    0.291478
54.9415    0.295354
55.0415    0.299532
55.1415    0.27991900000000003
55.2415    0.299658
55.3415    0.285696
55.4415    0.276942
55.5415    0.287507
55.6415    0.28689
55.7415    0.278268
55.8415    0.269877
55.9415    0.281931
56.0415    0.267271
56.1415    0.27382
56.2415    0.265825
56.3415    0.257382
56.4415    0.253778
56.5415    0.265227
56.6415    0.251067
56.7415    0.258093
56.8415    0.246121
56.9415    0.24325999999999998
57.0415    0.250085
57.1415    0.24128699999999997
57.2415    0.241737
57.3415    0.236809
57.4415    0.241352
57.5415    0.23967
57.6415    0.232854
57.7415    0.234425
57.8415    0.236795
57.9415    0.22198399999999996
58.0415    0.23304800000000003
58.1415    0.23064999999999997
58.2415    0.226312
58.3415    0.232459
58.4415    0.23172900000000002
58.5415    0.229684
58.6415    0.23134300000000002
58.7415    0.240213
58.8415    0.24212700000000004
58.9415    0.240307
59.0415    0.249932
59.1415    0.253969
59.2415    0.25726699999999997
59.3415    0.272267
59.4415    0.27241800000000005
59.5415    0.278679
59.6415    0.29155499999999995
59.7415    0.28878000000000004
59.8415    0.29798399999999997
59.9415    0.304451
60.0415    0.312324
60.1415    0.329392
60.2415    0.323986
60.3415    0.32806
60.4415    0.3457
60.5415    0.331803
60.6415    0.344285
60.7415    0.349141
60.8415    0.339879
60.9415    0.344974
61.0415    0.345333
61.1415    0.343644
61.2415    0.359186
61.3415    0.34988800000000003
61.4415    0.36095900000000003
61.5415    0.35584299999999996
61.6415    0.35292999999999997
61.7415    0.345767
61.8415    0.346095
61.9415    0.34618000000000004
62.0415    0.35142300000000004
62.1415    0.340805
62.2415    0.349237
62.3415    0.349658
62.4415    0.342501
62.5415    0.340696
62.6415    0.33553299999999997
62.7415    0.356526
62.8415    0.339021
62.9415    0.331368
63.0415    0.358392
63.1415    0.349437
63.2415    0.34921500000000005
63.3415    0.34432300000000005
63.4415    0.34011399999999997
63.5415    0.344129
63.6415    0.363141
63.7415    0.356811
63.8415    0.34912
63.9415    0.34836
64.0415    0.356083
64.1415    0.353234
64.2415    0.35004899999999994
64.3415    0.349634
64.4415    0.356043
64.5415    0.349738
64.6415    0.367873
64.7415    0.351273
64.8415    0.359103
64.9415    0.357476
65.0415    0.36532000000000003
65.1415    0.38043000000000005
65.2415    0.36387899999999995
65.3415    0.382835
65.4415    0.38944399999999996
65.5415    0.370432
65.6415    0.399547
65.7415    0.393374
65.8415    0.39907000000000004
65.9415    0.389172
66.0415    0.410984
66.1415    0.401543
66.2415    0.399176
66.3415    0.416105
66.4415    0.409975
66.5415    0.42167
66.6415    0.41541700000000004
66.7415    0.431255
66.8415    0.42111499999999996
66.9415    0.42585
67.0415    0.433715
67.1415    0.42396599999999995
67.2415    0.44165200000000004
67.3415    0.43621699999999997
67.4415    0.440733
67.5415    0.44499
67.6415    0.451875
67.7415    0.438492
67.8415    0.437026
67.9415    0.435978
68.0415    0.429787
68.1415    0.443544
68.2415    0.42251299999999997
68.3415    0.4287000000000001
68.4415    0.44962799999999997
68.5415    0.43593000000000004
68.6415    0.427033
68.7415    0.43838599999999994
68.8415    0.425447
68.9415    0.423459
69.0415    0.430313
69.1415    0.424721
69.2415    0.438658
69.3415    0.431937
69.4415    0.40085
69.5415    0.433792
69.6415    0.38749
69.7415    0.39798900000000004
69.8415    0.394945
69.9415    0.410074
70.0415    0.394874
70.1415    0.38176000000000004
70.2415    0.367369
70.3415    0.39245599999999997
70.4415    0.3796
70.5415    0.380983
70.6415    0.390452
70.7415    0.36954900000000007
70.8415    0.38365499999999997
70.9415    0.356157
71.0415    0.34453900000000004
71.1415    0.37477900000000003
71.2415    0.352898
71.3415    0.346651
71.4415    0.359342
71.5415    0.36867799999999995
71.6415    0.325793
71.7415    0.334957
71.8415    0.314265
71.9415    0.306026
72.0415    0.303404
72.1415    0.311323
72.2415    0.292725
72.3415    0.29313100000000003
72.4415    0.284921
72.5415    0.271651
72.6415    0.27141
72.7415    0.253575
72.8415    0.24420399999999998
72.9415    0.246503
73.0415    0.242317
73.1415    0.225838
73.2415    0.24111499999999997
73.3415    0.220275
73.4415    0.213584
73.5415    0.217984
73.6415    0.19222899999999998
73.7415    0.21221
73.8415    0.199475
73.9415    0.20434200000000002
74.0415    0.21957900000000002
74.1415    0.22394600000000003
74.2415    0.200224
74.3415    0.203365
74.4415    0.200714
74.5415    0.20746900000000001
74.6415    0.221752
74.7415    0.22082100000000002
74.8415    0.21859699999999999
74.9415    0.24026
75.0415    0.22292
75.1415    0.231798
75.2415    0.228326
75.3415    0.234439
75.4415    0.23169
75.5415    0.23471000000000003
75.6415    0.226126
75.7415    0.236647
75.8415    0.23413499999999998
75.9415    0.211838
76.0415    0.23550600000000002
76.1415    0.224082
76.2415    0.226605
76.3415    0.21864299999999998
76.4415    0.22867
76.5415    0.22201300000000002
76.6415    0.211046
76.7415    0.21548
76.8415    0.20555
76.9415    0.194856
77.0415    0.199378
77.1415    0.190641
77.2415    0.205251
77.3415    0.198099
77.4415    0.179244
77.5415    0.19393
77.6415    0.188173
77.7415    0.17895
77.8415    0.174946
77.9415    0.17696
78.0415    0.17142600000000002
78.1415    0.184809
78.2415    0.17658800000000002
78.3415    0.17750500000000002
78.4415    0.17696499999999998
78.5415    0.17249400000000004
78.6415    0.16761699999999996
78.7415    0.18627
78.8415    0.163692
78.9415    0.168156
79.0415    0.16924
79.1415    0.16708099999999998
79.2415    0.159344
79.3415    0.157362
79.4415    0.155498
79.5415    0.15644999999999998
79.6415    0.149378
79.7415    0.15798199999999998
79.8415    0.157259
79.9415    0.143639
80.0415    0.141938
80.1415    0.140146
80.2415    0.13708700000000001
80.3415    0.141503
80.4415    0.135741
80.5415    0.124115
80.6415    0.130821
80.7415    0.146516
80.8415    0.132789
80.9415    0.14546299999999998
81.0415    0.132993
81.1415    0.14292999999999997
81.2415    0.14772400000000002
81.3415    0.151572
81.4415    0.15686099999999997
81.5415    0.164083
81.6415    0.16513799999999998
81.7415    0.152213
81.8415    0.180754
81.9415    0.166927
82.0415    0.181044
82.1415    0.18533700000000003
82.2415    0.199281
82.3415    0.20183600000000002
82.4415    0.213173
82.5415    0.212663
82.6415    0.207922
82.7415    0.228075
82.8415    0.230248
82.9415    0.222308
83.0415    0.21906
83.1415    0.21756299999999998
83.2415    0.22734500000000002
83.3415    0.20848600000000003
83.4415    0.22109600000000001
83.5415    0.201689
83.6415    0.22245099999999998
83.7415    0.229231
83.8415    0.20472600000000002
83.9415    0.199716
84.0415    0.19299299999999997
84.1415    0.18909199999999998
84.2415    0.17173899999999998
84.3415    0.183033
84.4415    0.161486
84.5415    0.14760500000000001