 vasp.5.4.4.18Apr17-6-g9f103f2a35 (build May 08 2019 13:49:07) complex          
  
 executed on             LinuxIFC date 2019.11.13  16:01:23
 running on   24 total cores
 distrk:  each k-point on   24 cores,    1 groups
 distr:  one band on NCORES_PER_BAND=   6 cores,    4 groups


--------------------------------------------------------------------------------------------------------


 INCAR:
 POTCAR:    PAW_PBE Cu 22Jun2005                  
 POTCAR:    PAW_PBE C 08Apr2002                   
 POTCAR:    PAW_PBE O 08Apr2002                   
 POTCAR:    PAW_PBE Cu 22Jun2005                  
   VRHFIN =Cu: d10 p1                                                           
   LEXCH  = PE                                                                  
   EATOM  =  1390.9808 eV,  102.2342 Ry                                         
                                                                                
   TITEL  = PAW_PBE Cu 22Jun2005                                                
   LULTRA =        F    use ultrasoft PP ?                                      
   IUNSCR =        1    unscreen: 0-lin 1-nonlin 2-no                           
   RPACOR =    2.000    partial core radius                                     
   POMASS =   63.546; ZVAL   =   11.000    mass and valenz                      
   RCORE  =    2.300    outmost cutoff radius                                   
   RWIGS  =    2.200; RWIGS  =    1.164    wigner-seitz radius (au A)           
   ENMAX  =  295.446; ENMIN  =  221.585 eV                                      
   ICORE  =        3    local potential                                         
   LCOR   =        T    correct aug charges                                     
   LPAW   =        T    paw PP                                                  
   EAUG   =  586.980                                                            
   DEXC   =    0.000                                                            
   RMAX   =    2.344    core radius for proj-oper                               
   RAUG   =    1.300    factor for augmentation sphere                          
   RDEP   =    2.302    radius for radial grids                                 
   RDEPT  =    1.771    core radius for aug-charge                              
                                                                                
   Atomic configuration                                                         
    9 entries                                                                   
     n  l   j            E        occ.                                          
     1  0  0.50     -8850.2468   2.0000                                         
     2  0  0.50     -1062.3498   2.0000                                         
     2  1  1.50      -916.8226   6.0000                                         
     3  0  0.50      -114.6929   2.0000                                         
     3  1  1.50       -72.1325   6.0000                                         
     3  2  2.50        -5.0394  10.0000                                         
     4  0  0.50        -4.6097   1.0000                                         
     4  1  0.50        -4.0817   0.0000                                         
     4  3  2.50        -1.3606   0.0000                                         
   Description                                                                  
     l       E           TYP  RCUT    TYP  RCUT                                 
     2     -5.0393973     23  2.200                                             
     2     10.8846608     23  2.200                                             
     0     -4.6097109     23  2.200                                             
     0      8.2520465     23  2.200                                             
     1     -2.7211652     23  2.200                                             
     1     21.7055443     23  2.200                                             
     3      2.7211652     23  2.300                                             
  local pseudopotential read in
  partial core-charges read in
  partial kinetic energy density read in
  atomic valenz-charges read in
  non local Contribution for L=           2  read in
    real space projection operators read in
  non local Contribution for L=           2  read in
    real space projection operators read in
  non local Contribution for L=           0  read in
    real space projection operators read in
  non local Contribution for L=           0  read in
    real space projection operators read in
  non local Contribution for L=           1  read in
    real space projection operators read in
  non local Contribution for L=           1  read in
    real space projection operators read in
    PAW grid and wavefunctions read in
 
   number of l-projection  operators is LMAX  =           6
   number of lm-projection operators is LMMAX =          18
 
 POTCAR:    PAW_PBE C 08Apr2002                   
   VRHFIN =C: s2p2                                                              
   LEXCH  = PE                                                                  
   EATOM  =   147.1560 eV,   10.8157 Ry                                         
                                                                                
   TITEL  = PAW_PBE C 08Apr2002                                                 
   LULTRA =        F    use ultrasoft PP ?                                      
   IUNSCR =        1    unscreen: 0-lin 1-nonlin 2-no                           
   RPACOR =    1.200    partial core radius                                     
   POMASS =   12.011; ZVAL   =    4.000    mass and valenz                      
   RCORE  =    1.500    outmost cutoff radius                                   
   RWIGS  =    1.630; RWIGS  =    0.863    wigner-seitz radius (au A)           
   ENMAX  =  400.000; ENMIN  =  300.000 eV                                      
   ICORE  =        2    local potential                                         
   LCOR   =        T    correct aug charges                                     
   LPAW   =        T    paw PP                                                  
   EAUG   =  644.873                                                            
   DEXC   =    0.000                                                            
   RMAX   =    1.529    core radius for proj-oper                               
   RAUG   =    1.300    factor for augmentation sphere                          
   RDEP   =    1.501    radius for radial grids                                 
   RDEPT  =    1.300    core radius for aug-charge                              
                                                                                
   Atomic configuration                                                         
    4 entries                                                                   
     n  l   j            E        occ.                                          
     1  0  0.50      -273.3789   2.0000                                         
     2  0  0.50       -13.7508   2.0000                                         
     2  1  0.50        -5.2854   2.0000                                         
     3  2  1.50        -5.4423   0.0000                                         
   Description                                                                  
     l       E           TYP  RCUT    TYP  RCUT                                 
     0    -13.7508458     23  1.200                                             
     0     -8.2022199     23  1.200                                             
     1     -5.2854383     23  1.500                                             
     1     34.0145650     23  1.500                                             
     2     -5.4423304      7  1.500                                             
  local pseudopotential read in
  partial core-charges read in
  partial kinetic energy density read in
  atomic valenz-charges read in
  non local Contribution for L=           0  read in
    real space projection operators read in
  non local Contribution for L=           0  read in
    real space projection operators read in
  non local Contribution for L=           1  read in
    real space projection operators read in
  non local Contribution for L=           1  read in
    real space projection operators read in
    PAW grid and wavefunctions read in
 
   number of l-projection  operators is LMAX  =           4
   number of lm-projection operators is LMMAX =           8
 
 POTCAR:    PAW_PBE O 08Apr2002                   
   VRHFIN =O: s2p4                                                              
   LEXCH  = PE                                                                  
   EATOM  =   432.3788 eV,   31.7789 Ry                                         
                                                                                
   TITEL  = PAW_PBE O 08Apr2002                                                 
   LULTRA =        F    use ultrasoft PP ?                                      
   IUNSCR =        1    unscreen: 0-lin 1-nonlin 2-no                           
   RPACOR =    1.200    partial core radius                                     
   POMASS =   16.000; ZVAL   =    6.000    mass and valenz                      
   RCORE  =    1.520    outmost cutoff radius                                   
   RWIGS  =    1.550; RWIGS  =    0.820    wigner-seitz radius (au A)           
   ENMAX  =  400.000; ENMIN  =  300.000 eV                                      
   ICORE  =        2    local potential                                         
   LCOR   =        T    correct aug charges                                     
   LPAW   =        T    paw PP                                                  
   EAUG   =  605.392                                                            
   DEXC   =    0.000                                                            
   RMAX   =    1.553    core radius for proj-oper                               
   RAUG   =    1.300    factor for augmentation sphere                          
   RDEP   =    1.550    radius for radial grids                                 
   RDEPT  =    1.329    core radius for aug-charge                              
                                                                                
   Atomic configuration                                                         
    4 entries                                                                   
     n  l   j            E        occ.                                          
     1  0  0.50      -514.6923   2.0000                                         
     2  0  0.50       -23.9615   2.0000                                         
     2  1  0.50        -9.0305   4.0000                                         
     3  2  1.50        -9.5241   0.0000                                         
   Description                                                                  
     l       E           TYP  RCUT    TYP  RCUT                                 
     0    -23.9615318     23  1.200                                             
     0     -9.5240782     23  1.200                                             
     1     -9.0304911     23  1.520                                             
     1      8.1634956     23  1.520                                             
     2     -9.5240782      7  1.500                                             
  local pseudopotential read in
  partial core-charges read in
  partial kinetic energy density read in
  kinetic energy density of atom read in
  atomic valenz-charges read in
  non local Contribution for L=           0  read in
    real space projection operators read in
  non local Contribution for L=           0  read in
    real space projection operators read in
  non local Contribution for L=           1  read in
    real space projection operators read in
  non local Contribution for L=           1  read in
    real space projection operators read in
    PAW grid and wavefunctions read in
 
   number of l-projection  operators is LMAX  =           4
   number of lm-projection operators is LMMAX =           8
 
  PAW_PBE Cu 22Jun2005                  :
 energy of atom  1       EATOM=-1390.9808
 kinetic energy error for atom=    0.0033 (will be added to EATOM!!)
  PAW_PBE C 08Apr2002                   :
 energy of atom  2       EATOM= -147.1560
 kinetic energy error for atom=    0.0057 (will be added to EATOM!!)
  PAW_PBE O 08Apr2002                   :
 energy of atom  3       EATOM= -432.3788
 kinetic energy error for atom=    0.0168 (will be added to EATOM!!)
 
 
 POSCAR: Cu13 C1 O1                              
  positions in cartesian coordinates
  No initial velocities read in
 exchange correlation table for  LEXCH =        8
   RHO(1)=    0.500       N(1)  =     2000
   RHO(2)=  100.500       N(2)  =     4000
 


--------------------------------------------------------------------------------------------------------


 ion  position               nearest neighbor table
   1  0.290  0.424  0.555-   8 2.40   6 2.48   7 2.49   2 2.49   9 2.50   3 2.54
   2  0.379  0.546  0.486-   7 2.34  10 2.40   8 2.46   4 2.48   1 2.49  11 2.50  13 2.63   9 2.70
                             6 2.74
   3  0.393  0.290  0.562-   6 2.40   7 2.40   5 2.52   1 2.54
   4  0.540  0.510  0.478-  11 2.46   2 2.48  12 2.49   7 2.56  13 2.57   5 2.57   6 2.75
   5  0.547  0.347  0.530-   6 2.36   7 2.48   3 2.52  12 2.57   4 2.57
   6  0.445  0.432  0.613-   5 2.36   3 2.40  13 2.47   1 2.48   9 2.51   7 2.58  12 2.69   2 2.74
                             4 2.75
   7  0.414  0.400  0.447-   2 2.34   3 2.40   5 2.48   1 2.49   4 2.56   6 2.58
   8  0.228  0.571  0.545-   9 2.35   1 2.40   2 2.46  10 2.55
   9  0.332  0.547  0.659-   8 2.35  13 2.48  10 2.48   1 2.50   6 2.51   2 2.70
  10  0.355  0.682  0.567-   2 2.40  11 2.45   9 2.48  13 2.49   8 2.55
  11  0.493  0.668  0.481-  13 2.36  10 2.45   4 2.46   2 2.50
  12  0.619  0.474  0.619-  14 1.81   4 2.49   5 2.57  13 2.67   6 2.69
  13  0.485  0.592  0.618-  11 2.36   6 2.47   9 2.48  10 2.49   4 2.57   2 2.63  12 2.67
  14  0.736  0.496  0.642-  15 1.15  12 1.81
  15  0.812  0.504  0.634-  14 1.15
 

IMPORTANT INFORMATION: All symmetrisations will be switched off!
NOSYMM: (Re-)initialisation of all symmetry stuff for point group C_1.

 
 

Automatic generation of k-mesh.
 generate k-points for:    1    1    1
Space group operators:
 irot       det(A)        alpha          n_x          n_y          n_z        tau_x        tau_y        tau_z
    1     1.000000     0.000000     1.000000     0.000000     0.000000     0.000000     0.000000     0.000000
 
 Subroutine IBZKPT returns following result:
 ===========================================
 
 Found      1 irreducible k-points:
 
 Following reciprocal coordinates:
            Coordinates               Weight
  0.000000  0.000000  0.000000      1.000000
 
 Following cartesian coordinates:
            Coordinates               Weight
  0.000000  0.000000  0.000000      1.000000
 


--------------------------------------------------------------------------------------------------------




 Dimension of arrays:
   k-points           NKPTS =      1   k-points in BZ     NKDIM =      1   number of bands    NBANDS=     92
   number of dos      NEDOS =    301   number of ions     NIONS =     15
   non local maximal  LDIM  =      6   non local SUM 2l+1 LMDIM =     18
   total plane-waves  NPLWV = ******
   max r-space proj   IRMAX =      1   max aug-charges    IRDMAX=  15028
   dimension x,y,z NGX =   120 NGY =  120 NGZ =  120
   dimension x,y,z NGXF=   240 NGYF=  240 NGZF=  240
   support grid    NGXF=   240 NGYF=  240 NGZF=  240
   ions per type =              13   1   1
   NGX,Y,Z   is equivalent  to a cutoff of  13.30, 13.30, 13.30 a.u.
   NGXF,Y,Z  is equivalent  to a cutoff of  26.60, 26.60, 26.60 a.u.

 SYSTEM =  CuCO                                    
 POSCAR =  Cu13 C1 O1                              

 Startparameter for this run:
   NWRITE =      2    write-flag & timer
   PREC   = accura    normal or accurate (medium, high low for compatibility)
   ISTART =      0    job   : 0-new  1-cont  2-samecut
   ICHARG =      2    charge: 1-file 2-atom 10-const
   ISPIN  =      2    spin polarized calculation?
   LNONCOLLINEAR =      F non collinear calculations
   LSORBIT =      F    spin-orbit coupling
   INIWAV =      1    electr: 0-lowe 1-rand  2-diag
   LASPH  =      F    aspherical Exc in radial PAW
   METAGGA=      F    non-selfconsistent MetaGGA calc.

 Electronic Relaxation 1
   ENCUT  =  600.0 eV  44.10 Ry    6.64 a.u.  29.96 29.96 29.96*2*pi/ulx,y,z
   ENINI  =  600.0     initial cutoff
   ENAUG  =  644.9 eV  augmentation charge cutoff
   NELM   =    300;   NELMIN=  3; NELMDL= -5     # of ELM steps 
   EDIFF  = 0.1E-06   stopping-criterion for ELM
   LREAL  =      F    real-space projection
   NLSPLINE    = F    spline interpolate recip. space projectors
   LCOMPAT=      F    compatible to vasp.4.4
   GGA_COMPAT  = T    GGA compatible to vasp.4.4-vasp.4.6
   LMAXPAW     = -100 max onsite density
   LMAXMIX     =    2 max onsite mixed and CHGCAR
   VOSKOWN=      0    Vosko Wilk Nusair interpolation
   ROPT   =    0.00000   0.00000   0.00000
 Ionic relaxation
   EDIFFG = -.1E-02   stopping-criterion for IOM
   NSW    =      0    number of steps for IOM
   NBLOCK =      1;   KBLOCK =      1    inner block; outer block 
   IBRION =     -1    ionic relax: 0-MD 1-quasi-New 2-CG
   NFREE  =      0    steps in history (QN), initial steepest desc. (CG)
   ISIF   =      2    stress and relaxation
   IWAVPR =     10    prediction:  0-non 1-charg 2-wave 3-comb
   ISYM   =      0    0-nonsym 1-usesym 2-fastsym
   LCORR  =      T    Harris-Foulkes like correction to forces

   POTIM  = 0.5000    time-step for ionic-motion
   TEIN   =    0.0    initial temperature
   TEBEG  =    0.0;   TEEND  =   0.0 temperature during run
   SMASS  =  -3.00    Nose mass-parameter (am)
   estimated Nose-frequenzy (Omega)   =  0.10E-29 period in steps =****** mass=  -0.514E-26a.u.
   SCALEE = 1.0000    scale energy and forces
   NPACO  =    256;   APACO  = 16.0  distance and # of slots for P.C.
   PSTRESS=    0.0 pullay stress

  Mass of Ions in am
   POMASS =  63.55 12.01 16.00
  Ionic Valenz
   ZVAL   =  11.00  4.00  6.00
  Atomic Wigner-Seitz radii
   RWIGS  =  -1.00 -1.00 -1.00
  virtual crystal weights 
   VCA    =   1.00  1.00  1.00
   NELECT =     153.0000    total number of electrons
   NUPDOWN=       1.0000    fix difference up-down

 DOS related values:
   EMIN   =  10.00;   EMAX   =-10.00  energy-range for DOS
   EFERMI =   0.00
   ISMEAR =     1;   SIGMA  =   0.10  broadening in eV -4-tet -1-fermi 0-gaus

 Electronic relaxation 2 (details)
   IALGO  =     68    algorithm
   LDIAG  =      T    sub-space diagonalisation (order eigenvalues)
   LSUBROT=      F    optimize rotation matrix (better conditioning)
   TURBO    =      0    0=normal 1=particle mesh
   IRESTART =      0    0=no restart 2=restart with 2 vectors
   NREBOOT  =      0    no. of reboots
   NMIN     =      0    reboot dimension
   EREF     =   0.00    reference energy to select bands
   IMIX   =      4    mixing-type and parameters
     AMIX     =   0.40;   BMIX     =  1.00
     AMIX_MAG =   1.60;   BMIX_MAG =  1.00
     AMIN     =   0.10
     WC   =   100.;   INIMIX=   1;  MIXPRE=   1;  MAXMIX= -45

 Intra band minimization:
   WEIMIN = 0.0000     energy-eigenvalue tresh-hold
   EBREAK =  0.27E-09  absolut break condition
   DEPER  =   0.30     relativ break condition  

   TIME   =   0.40     timestep for ELM

  volume/ion in A,a.u.               =     225.00      1518.37
  Fermi-wavevector in a.u.,A,eV,Ry     =   0.583733  1.103095  4.636102  0.340744
  Thomas-Fermi vector in A             =   1.629149
 
 Write flags
   LWAVE        =      F    write WAVECAR
   LDOWNSAMPLE  =      F    k-point downsampling of WAVECAR
   LCHARG       =      F    write CHGCAR
   LVTOT        =      F    write LOCPOT, total local potential
   LVHAR        =      F    write LOCPOT, Hartree potential only
   LELF         =      F    write electronic localiz. function (ELF)
   LORBIT       =      0    0 simple, 1 ext, 2 COOP (PROOUT), +10 PAW based schemes


 Dipole corrections
   LMONO  =      F    monopole corrections only (constant potential shift)
   LDIPOL =      F    correct potential (dipole corrections)
   IDIPOL =      0    1-x, 2-y, 3-z, 4-all directions 
   EPSILON=  1.0000000 bulk dielectric constant

 Exchange correlation treatment:
   GGA     =    PE    GGA type
   LEXCH   =     8    internal setting for exchange type
   VOSKOWN=      0    Vosko Wilk Nusair interpolation
   LHFCALC =     F    Hartree Fock is set to
   LHFONE  =     F    Hartree Fock one center treatment
   AEXX    =    0.0000 exact exchange contribution

 Linear response parameters
   LEPSILON=     F    determine dielectric tensor
   LRPA    =     F    only Hartree local field effects (RPA)
   LNABLA  =     F    use nabla operator in PAW spheres
   LVEL    =     F    velocity operator in full k-point grid
   LINTERFAST=   F  fast interpolation
   KINTER  =     0    interpolate to denser k-point grid
   CSHIFT  =0.1000    complex shift for real part using Kramers Kronig
   OMEGAMAX=  -1.0    maximum frequency
   DEG_THRESHOLD= 0.2000000E-02 threshold for treating states as degnerate
   RTIME   =   -0.100 relaxation time in fs
  (WPLASMAI=    0.000 imaginary part of plasma frequency in eV, 0.658/RTIME)
   DFIELD  = 0.0000000 0.0000000 0.0000000 field for delta impulse in time
 
 Orbital magnetization related:
   ORBITALMAG=     F  switch on orbital magnetization
   LCHIMAG   =     F  perturbation theory with respect to B field
   DQ        =  0.001000  dq finite difference perturbation B field
   LLRAUG    =     F  two centre corrections for induced B field



--------------------------------------------------------------------------------------------------------


 Static calculation
 charge density and potential will be updated during run
 spin polarized calculation
 RMM-DIIS sequential band-by-band and
  variant of blocked Davidson during initial phase
 perform sub-space diagonalisation
    before iterative eigenvector-optimisation
 modified Broyden-mixing scheme, WC =      100.0
 initial mixing is a Kerker type mixing with AMIX =  0.4000 and BMIX =      1.0000
 Hartree-type preconditioning will be used
 using additional bands           15
 reciprocal scheme for non local part
 use partial core corrections
 calculate Harris-corrections to forces 
   (improved forces if not selfconsistent)
 use gradient corrections 
 use of overlap-Matrix (Vanderbilt PP)
 Methfessel and Paxton  Order N= 1 SIGMA  =   0.10


--------------------------------------------------------------------------------------------------------


  energy-cutoff  :      600.00
  volume of cell :     3375.00
      direct lattice vectors                 reciprocal lattice vectors
    15.000000000  0.000000000  0.000000000     0.066666667  0.000000000  0.000000000
     0.000000000 15.000000000  0.000000000     0.000000000  0.066666667  0.000000000
     0.000000000  0.000000000 15.000000000     0.000000000  0.000000000  0.066666667

  length of vectors
    15.000000000 15.000000000 15.000000000     0.066666667  0.066666667  0.066666667


 
 k-points in units of 2pi/SCALE and weight: read from INCAR                         
   0.00000000  0.00000000  0.00000000       1.000
 
 k-points in reciprocal lattice and weights: read from INCAR                         
   0.00000000  0.00000000  0.00000000       1.000
 
 position of ions in fractional coordinates (direct lattice) 
   0.28988600  0.42406333  0.55472400
   0.37882267  0.54631067  0.48592267
   0.39270733  0.28981467  0.56202467
   0.53993800  0.51038000  0.47754467
   0.54710600  0.34714600  0.53002267
   0.44459867  0.43236200  0.61311067
   0.41392933  0.39954733  0.44718800
   0.22807867  0.57108867  0.54478867
   0.33170933  0.54699867  0.65947867
   0.35514067  0.68212000  0.56703600
   0.49308533  0.66780667  0.48056600
   0.61881267  0.47424067  0.61929533
   0.48522267  0.59186867  0.61800333
   0.73564667  0.49581467  0.64208333
   0.81175333  0.50366000  0.63391600
 
 position of ions in cartesian coordinates  (Angst):
   4.34829000  6.36095000  8.32086000
   5.68234000  8.19466000  7.28884000
   5.89061000  4.34722000  8.43037000
   8.09907000  7.65570000  7.16317000
   8.20659000  5.20719000  7.95034000
   6.66898000  6.48543000  9.19666000
   6.20894000  5.99321000  6.70782000
   3.42118000  8.56633000  8.17183000
   4.97564000  8.20498000  9.89218000
   5.32711000 10.23180000  8.50554000
   7.39628000 10.01710000  7.20849000
   9.28219000  7.11361000  9.28943000
   7.27834000  8.87803000  9.27005000
  11.03470000  7.43722000  9.63125000
  12.17630000  7.55490000  9.50874000
 


--------------------------------------------------------------------------------------------------------


 k-point  1 :   0.0000 0.0000 0.0000  plane waves:  112451

 maximum and minimum number of plane-waves per node :     18753    18726

 maximum number of plane-waves:    112451
 maximum index in each direction: 
   IXMAX=   29   IYMAX=   29   IZMAX=   29
   IXMIN=  -29   IYMIN=  -29   IZMIN=  -29


 parallel 3D FFT for wavefunctions:
    minimum data exchange during FFTs selected (reduces bandwidth)
 parallel 3D FFT for charge:
    minimum data exchange during FFTs selected (reduces bandwidth)


 total amount of memory used by VASP MPI-rank0   158680. kBytes
=======================================================================

   base      :      30000. kBytes
   nonl-proj :      12601. kBytes
   fftplans  :      27994. kBytes
   grid      :      74150. kBytes
   one-center:         93. kBytes
   wavefun   :      13842. kBytes
 
     INWAV:  cpu time    0.0000: real time    0.0001
 Broyden mixing: mesh for mixing (old mesh)
   NGX = 59   NGY = 59   NGZ = 59
  (NGX  =240   NGY  =240   NGZ  =240)
  gives a total of 205379 points

 initial charge density was supplied:
 charge density of overlapping atoms calculated
 number of electron     153.0000000 magnetization       1.0000000
 keeping initial charge density in first step


--------------------------------------------------------------------------------------------------------


 Maximum index for augmentation-charges          709 (set IRDMAX)


--------------------------------------------------------------------------------------------------------


 First call to EWALD:  gamma=   0.118
 Maximum number of real-space cells 3x 3x 3
 Maximum number of reciprocal cells 3x 3x 3

    FEWALD:  cpu time    0.0016: real time    0.0022


--------------------------------------- Iteration      1(   1)  ---------------------------------------


    POTLOK:  cpu time    1.1579: real time    1.1635
    SETDIJ:  cpu time    0.0171: real time    0.0172
     EDDAV:  cpu time    7.4808: real time    7.5001
       DOS:  cpu time    0.0008: real time    0.0008
    --------------------------------------------
      LOOP:  cpu time    8.6566: real time    8.6817

 eigenvalue-minimisations  :   376
 total energy-change (2. order) : 0.1116266E+04  (-0.4458866E+04)
 number of electron     153.0000000 magnetization       1.0000000
 augmentation part      153.0000000 magnetization       1.0000000

 Free energy of the ion-electron system (eV)
  ---------------------------------------------------
  alpha Z        PSCENC =        41.16232785
  Ewald energy   TEWEN  =     16191.00329311
  -Hartree energ DENC   =    -33218.10643254
  -exchange      EXHF   =         0.00000000
  -V(xc)+E(xc)   XCENC  =       623.14140863
  PAW double counting   =     16421.75059358   -17800.06104309
  entropy T*S    EENTRO =         0.00578682
  eigenvalues    EBANDS =       195.15062452
  atomic energy  EATOM  =     18662.21924712
  Solvation  Ediel_sol  =         0.00000000
  ---------------------------------------------------
  free energy    TOTEN  =      1116.26580599 eV

  energy without entropy =     1116.26001918  energy(sigma->0) =     1116.26387705


--------------------------------------------------------------------------------------------------------




--------------------------------------- Iteration      1(   2)  ---------------------------------------


     EDDAV:  cpu time    7.3335: real time    7.3535
       DOS:  cpu time    0.0005: real time    0.0005
    --------------------------------------------
      LOOP:  cpu time    7.3340: real time    7.3540

 eigenvalue-minimisations  :   368
 total energy-change (2. order) :-0.1027873E+04  (-0.9750282E+03)
 number of electron     153.0000000 magnetization       1.0000000
 augmentation part      153.0000000 magnetization       1.0000000

 Free energy of the ion-electron system (eV)
  ---------------------------------------------------
  alpha Z        PSCENC =        41.16232785
  Ewald energy   TEWEN  =     16191.00329311
  -Hartree energ DENC   =    -33218.10643254
  -exchange      EXHF   =         0.00000000
  -V(xc)+E(xc)   XCENC  =       623.14140863
  PAW double counting   =     16421.75059358   -17800.06104309
  entropy T*S    EENTRO =         0.00593604
  eigenvalues    EBANDS =      -832.72261520
  atomic energy  EATOM  =     18662.21924712
  Solvation  Ediel_sol  =         0.00000000
  ---------------------------------------------------
  free energy    TOTEN  =        88.39271550 eV

  energy without entropy =       88.38677946  energy(sigma->0) =       88.39073682


--------------------------------------------------------------------------------------------------------




--------------------------------------- Iteration      1(   3)  ---------------------------------------


     EDDAV:  cpu time   11.3781: real time   11.4060
       DOS:  cpu time    0.0006: real time    0.0006
    --------------------------------------------
      LOOP:  cpu time   11.3787: real time   11.4066

 eigenvalue-minimisations  :   648
 total energy-change (2. order) :-0.1211767E+03  (-0.1131677E+03)
 number of electron     153.0000000 magnetization       1.0000000
 augmentation part      153.0000000 magnetization       1.0000000

 Free energy of the ion-electron system (eV)
  ---------------------------------------------------
  alpha Z        PSCENC =        41.16232785
  Ewald energy   TEWEN  =     16191.00329311
  -Hartree energ DENC   =    -33218.10643254
  -exchange      EXHF   =         0.00000000
  -V(xc)+E(xc)   XCENC  =       623.14140863
  PAW double counting   =     16421.75059358   -17800.06104309
  entropy T*S    EENTRO =         0.01468812
  eigenvalues    EBANDS =      -953.90805068
  atomic energy  EATOM  =     18662.21924712
  Solvation  Ediel_sol  =         0.00000000
  ---------------------------------------------------
  free energy    TOTEN  =       -32.78396791 eV

  energy without entropy =      -32.79865603  energy(sigma->0) =      -32.78886395


--------------------------------------------------------------------------------------------------------




--------------------------------------- Iteration      1(   4)  ---------------------------------------


     EDDAV:  cpu time   10.0714: real time   10.0969
       DOS:  cpu time    0.0005: real time    0.0005
    --------------------------------------------
      LOOP:  cpu time   10.0719: real time   10.0974

 eigenvalue-minimisations  :   552
 total energy-change (2. order) :-0.2294213E+02  (-0.2251845E+02)
 number of electron     153.0000000 magnetization       1.0000000
 augmentation part      153.0000000 magnetization       1.0000000

 Free energy of the ion-electron system (eV)
  ---------------------------------------------------
  alpha Z        PSCENC =        41.16232785
  Ewald energy   TEWEN  =     16191.00329311
  -Hartree energ DENC   =    -33218.10643254
  -exchange      EXHF   =         0.00000000
  -V(xc)+E(xc)   XCENC  =       623.14140863
  PAW double counting   =     16421.75059358   -17800.06104309
  entropy T*S    EENTRO =         0.01201446
  eigenvalues    EBANDS =      -976.84750371
  atomic energy  EATOM  =     18662.21924712
  Solvation  Ediel_sol  =         0.00000000
  ---------------------------------------------------
  free energy    TOTEN  =       -55.72609459 eV

  energy without entropy =      -55.73810906  energy(sigma->0) =      -55.73009941


--------------------------------------------------------------------------------------------------------




--------------------------------------- Iteration      1(   5)  ---------------------------------------


     EDDAV:  cpu time   11.6439: real time   11.6711
       DOS:  cpu time    0.0007: real time    0.0007
    CHARGE:  cpu time    0.7112: real time    0.7129
    MIXING:  cpu time    0.0231: real time    0.0232
    --------------------------------------------
      LOOP:  cpu time   12.3789: real time   12.4079

 eigenvalue-minimisations  :   664
 total energy-change (2. order) :-0.1677845E+01  (-0.1533470E+01)
 number of electron     152.9999985 magnetization       1.0000000
 augmentation part       87.4775185 magnetization       0.3746469

 Broyden mixing:
  rms(total) = 0.23831E+01    rms(broyden)= 0.23830E+01
  rms(prec ) = 0.27399E+01
  weight for this iteration     100.00

 Free energy of the ion-electron system (eV)
  ---------------------------------------------------
  alpha Z        PSCENC =        41.16232785
  Ewald energy   TEWEN  =     16191.00329311
  -Hartree energ DENC   =    -33218.10643254
  -exchange      EXHF   =         0.00000000
  -V(xc)+E(xc)   XCENC  =       623.14140863
  PAW double counting   =     16421.75059358   -17800.06104309
  entropy T*S    EENTRO =         0.01378467
  eigenvalues    EBANDS =      -978.52711861
  atomic energy  EATOM  =     18662.21924712
  Solvation  Ediel_sol  =         0.00000000
  ---------------------------------------------------
  free energy    TOTEN  =       -57.40393929 eV

  energy without entropy =      -57.41772396  energy(sigma->0) =      -57.40853418


--------------------------------------------------------------------------------------------------------




--------------------------------------- Iteration      1(   6)  ---------------------------------------


    POTLOK:  cpu time    1.1310: real time    1.1334
    SETDIJ:  cpu time    0.0176: real time    0.0178
    EDDIAG:  cpu time    1.1106: real time    1.1130
  RMM-DIIS:  cpu time    6.9294: real time    6.9394
    ORTHCH:  cpu time    0.0539: real time    0.0539
       DOS:  cpu time    0.0005: real time    0.0005
    CHARGE:  cpu time    0.6851: real time    0.6854
    MIXING:  cpu time    0.0234: real time    0.0234
    --------------------------------------------
      LOOP:  cpu time    9.9514: real time    9.9668

 eigenvalue-minimisations  :   425
 total energy-change (2. order) : 0.6188121E+00  (-0.1245150E+02)
 number of electron     152.9999982 magnetization       1.0000000
 augmentation part       95.7813195 magnetization       0.0649385

 Broyden mixing:
  rms(total) = 0.15987E+01    rms(broyden)= 0.15985E+01
  rms(prec ) = 0.18405E+01
  weight for this iteration     100.00

 eigenvalues of (default mixing * dielectric matrix)
  average eigenvalue GAMMA=   0.6071
  0.6071

 Free energy of the ion-electron system (eV)
  ---------------------------------------------------
  alpha Z        PSCENC =        41.16232785
  Ewald energy   TEWEN  =     16191.00329311
  -Hartree energ DENC   =    -32964.42974998
  -exchange      EXHF   =         0.00000000
  -V(xc)+E(xc)   XCENC  =       610.92507414
  PAW double counting   =     16675.26228455   -17998.31424510
  entropy T*S    EENTRO =         0.00872290
  eigenvalues    EBANDS =     -1274.62208182
  atomic energy  EATOM  =     18662.21924712
  Solvation  Ediel_sol  =         0.00000000
  ---------------------------------------------------
  free energy    TOTEN  =       -56.78512723 eV

  energy without entropy =      -56.79385013  energy(sigma->0) =      -56.78803487


--------------------------------------------------------------------------------------------------------




--------------------------------------- Iteration      1(   7)  ---------------------------------------


    POTLOK:  cpu time    1.1317: real time    1.1343
    SETDIJ:  cpu time    0.0175: real time    0.0175
    EDDIAG:  cpu time    1.1130: real time    1.1135
  RMM-DIIS:  cpu time    6.0568: real time    6.0608
    ORTHCH:  cpu time    0.0544: real time    0.0544
       DOS:  cpu time    0.0004: real time    0.0004
    CHARGE:  cpu time    0.6497: real time    0.6501
    MIXING:  cpu time    0.0242: real time    0.0242
    --------------------------------------------
      LOOP:  cpu time    9.0477: real time    9.0551

 eigenvalue-minimisations  :   377
 total energy-change (2. order) : 0.7477944E+01  (-0.2583673E+01)
 number of electron     152.9999983 magnetization       1.0000000
 augmentation part       92.9478218 magnetization       0.0982136

 Broyden mixing:
  rms(total) = 0.39887E+00    rms(broyden)= 0.39885E+00
  rms(prec ) = 0.49282E+00
  weight for this iteration     100.00

 eigenvalues of (default mixing * dielectric matrix)
  average eigenvalue GAMMA=   0.9185
  1.1648  0.6722

 Free energy of the ion-electron system (eV)
  ---------------------------------------------------
  alpha Z        PSCENC =        41.16232785
  Ewald energy   TEWEN  =     16191.00329311
  -Hartree energ DENC   =    -33099.28719352
  -exchange      EXHF   =         0.00000000
  -V(xc)+E(xc)   XCENC  =       615.38371145
  PAW double counting   =     17010.65751456   -18383.49360681
  entropy T*S    EENTRO =         0.00900380
  eigenvalues    EBANDS =     -1086.96148064
  atomic energy  EATOM  =     18662.21924712
  Solvation  Ediel_sol  =         0.00000000
  ---------------------------------------------------
  free energy    TOTEN  =       -49.30718307 eV

  energy without entropy =      -49.31618687  energy(sigma->0) =      -49.31018434


--------------------------------------------------------------------------------------------------------




--------------------------------------- Iteration      1(   8)  ---------------------------------------


    POTLOK:  cpu time    1.1328: real time    1.1339
    SETDIJ:  cpu time    0.0171: real time    0.0171
    EDDIAG:  cpu time    1.1148: real time    1.1153
  RMM-DIIS:  cpu time    7.0553: real time    7.0592
    ORTHCH:  cpu time    0.0547: real time    0.0547
       DOS:  cpu time    0.0005: real time    0.0005
    CHARGE:  cpu time    0.6673: real time    0.6676
    MIXING:  cpu time    0.0249: real time    0.0249
    --------------------------------------------
      LOOP:  cpu time   10.0674: real time   10.0732

 eigenvalue-minimisations  :   417
 total energy-change (2. order) : 0.2570730E+00  (-0.4315516E+00)
 number of electron     152.9999983 magnetization       1.0000000
 augmentation part       92.1237360 magnetization       0.1055424

 Broyden mixing:
  rms(total) = 0.30839E+00    rms(broyden)= 0.30837E+00
  rms(prec ) = 0.34875E+00
  weight for this iteration     100.00

 eigenvalues of (default mixing * dielectric matrix)
  average eigenvalue GAMMA=   0.9174
  1.3510  0.7006  0.7006

 Free energy of the ion-electron system (eV)
  ---------------------------------------------------
  alpha Z        PSCENC =        41.16232785
  Ewald energy   TEWEN  =     16191.00329311
  -Hartree energ DENC   =    -33148.83043591
  -exchange      EXHF   =         0.00000000
  -V(xc)+E(xc)   XCENC  =       615.86350534
  PAW double counting   =     17358.16321740   -18750.57996497
  entropy T*S    EENTRO =         0.00934894
  eigenvalues    EBANDS =     -1018.06064893
  atomic energy  EATOM  =     18662.21924712
  Solvation  Ediel_sol  =         0.00000000
  ---------------------------------------------------
  free energy    TOTEN  =       -49.05011005 eV

  energy without entropy =      -49.05945899  energy(sigma->0) =      -49.05322636


--------------------------------------------------------------------------------------------------------




--------------------------------------- Iteration      1(   9)  ---------------------------------------


    POTLOK:  cpu time    1.1334: real time    1.1343
    SETDIJ:  cpu time    0.0173: real time    0.0173
    EDDIAG:  cpu time    1.1136: real time    1.1142
  RMM-DIIS:  cpu time    6.7437: real time    6.7479
    ORTHCH:  cpu time    0.0546: real time    0.0546
       DOS:  cpu time    0.0005: real time    0.0005
    CHARGE:  cpu time    0.6688: real time    0.6691
    MIXING:  cpu time    0.0250: real time    0.0250
    --------------------------------------------
      LOOP:  cpu time    9.7569: real time    9.7628

 eigenvalue-minimisations  :   417
 total energy-change (2. order) : 0.4798918E-01  (-0.1051282E+00)
 number of electron     152.9999983 magnetization       1.0000000
 augmentation part       92.3018913 magnetization       0.0866916

 Broyden mixing:
  rms(total) = 0.19035E+00    rms(broyden)= 0.19034E+00
  rms(prec ) = 0.22516E+00
  weight for this iteration     100.00

 eigenvalues of (default mixing * dielectric matrix)
  average eigenvalue GAMMA=   1.0321
  2.0868  0.7735  0.7735  0.4946

 Free energy of the ion-electron system (eV)
  ---------------------------------------------------
  alpha Z        PSCENC =        41.16232785
  Ewald energy   TEWEN  =     16191.00329311
  -Hartree energ DENC   =    -33147.21750248
  -exchange      EXHF   =         0.00000000
  -V(xc)+E(xc)   XCENC  =       615.41059230
  PAW double counting   =     17461.93681347   -18856.09249981
  entropy T*S    EENTRO =         0.00935351
  eigenvalues    EBANDS =     -1017.43374594
  atomic energy  EATOM  =     18662.21924712
  Solvation  Ediel_sol  =         0.00000000
  ---------------------------------------------------
  free energy    TOTEN  =       -49.00212087 eV

  energy without entropy =      -49.01147438  energy(sigma->0) =      -49.00523870


--------------------------------------------------------------------------------------------------------




--------------------------------------- Iteration      1(  10)  ---------------------------------------


    POTLOK:  cpu time    1.1322: real time    1.1340
    SETDIJ:  cpu time    0.0175: real time    0.0175
    EDDIAG:  cpu time    1.1125: real time    1.1130
  RMM-DIIS:  cpu time    7.0779: real time    7.0833
    ORTHCH:  cpu time    0.0512: real time    0.0512
       DOS:  cpu time    0.0004: real time    0.0004
    CHARGE:  cpu time    0.6674: real time    0.6678
    MIXING:  cpu time    0.0255: real time    0.0255
    --------------------------------------------
      LOOP:  cpu time   10.0846: real time   10.0927

 eigenvalue-minimisations  :   421
 total energy-change (2. order) : 0.6347938E-01  (-0.2324286E-01)
 number of electron     152.9999983 magnetization       1.0000000
 augmentation part       92.4947016 magnetization       0.0745945

 Broyden mixing:
  rms(total) = 0.62178E-01    rms(broyden)= 0.62173E-01
  rms(prec ) = 0.80492E-01
  weight for this iteration     100.00

 eigenvalues of (default mixing * dielectric matrix)
  average eigenvalue GAMMA=   1.0203
  2.1117  0.9593  0.7802  0.7802  0.4702

 Free energy of the ion-electron system (eV)
  ---------------------------------------------------
  alpha Z        PSCENC =        41.16232785
  Ewald energy   TEWEN  =     16191.00329311
  -Hartree energ DENC   =    -33145.46736318
  -exchange      EXHF   =         0.00000000
  -V(xc)+E(xc)   XCENC  =       614.96886983
  PAW double counting   =     17567.71830181   -18963.44437642
  entropy T*S    EENTRO =         0.00934326
  eigenvalues    EBANDS =     -1017.10828486
  atomic energy  EATOM  =     18662.21924712
  Solvation  Ediel_sol  =         0.00000000
  ---------------------------------------------------
  free energy    TOTEN  =       -48.93864148 eV

  energy without entropy =      -48.94798475  energy(sigma->0) =      -48.94175591


--------------------------------------------------------------------------------------------------------




--------------------------------------- Iteration      1(  11)  ---------------------------------------


    POTLOK:  cpu time    1.1324: real time    1.1363
    SETDIJ:  cpu time    0.0174: real time    0.0174
    EDDIAG:  cpu time    1.1110: real time    1.1116
  RMM-DIIS:  cpu time    7.1541: real time    7.1700
    ORTHCH:  cpu time    0.0505: real time    0.0507
       DOS:  cpu time    0.0004: real time    0.0004
    CHARGE:  cpu time    0.6640: real time    0.6642
    MIXING:  cpu time    0.0264: real time    0.0263
    --------------------------------------------
      LOOP:  cpu time   10.1562: real time   10.1770

 eigenvalue-minimisations  :   434
 total energy-change (2. order) : 0.9069546E-02  (-0.8171496E-02)
 number of electron     152.9999983 magnetization       1.0000000
 augmentation part       92.4199560 magnetization       0.0789639

 Broyden mixing:
  rms(total) = 0.44323E-01    rms(broyden)= 0.44319E-01
  rms(prec ) = 0.56739E-01
  weight for this iteration     100.00

 eigenvalues of (default mixing * dielectric matrix)
  average eigenvalue GAMMA=   1.0233
  2.1188  1.3889  0.7637  0.7637  0.6335  0.4709

 Free energy of the ion-electron system (eV)
  ---------------------------------------------------
  alpha Z        PSCENC =        41.16232785
  Ewald energy   TEWEN  =     16191.00329311
  -Hartree energ DENC   =    -33153.24954706
  -exchange      EXHF   =         0.00000000
  -V(xc)+E(xc)   XCENC  =       615.10999326
  PAW double counting   =     17609.36374727   -19007.06968130
  entropy T*S    EENTRO =         0.00934586
  eigenvalues    EBANDS =     -1007.47829805
  atomic energy  EATOM  =     18662.21924712
  Solvation  Ediel_sol  =         0.00000000
  ---------------------------------------------------
  free energy    TOTEN  =       -48.92957194 eV

  energy without entropy =      -48.93891780  energy(sigma->0) =      -48.93268722


--------------------------------------------------------------------------------------------------------




--------------------------------------- Iteration      1(  12)  ---------------------------------------


    POTLOK:  cpu time    1.1323: real time    1.1332
    SETDIJ:  cpu time    0.0179: real time    0.0179
    EDDIAG:  cpu time    1.1104: real time    1.1109
  RMM-DIIS:  cpu time    6.8261: real time    6.8414
    ORTHCH:  cpu time    0.0508: real time    0.0509
       DOS:  cpu time    0.0004: real time    0.0004
    CHARGE:  cpu time    0.6655: real time    0.6676
    MIXING:  cpu time    0.0270: real time    0.0270
    --------------------------------------------
      LOOP:  cpu time    9.8305: real time    9.8493

 eigenvalue-minimisations  :   420
 total energy-change (2. order) : 0.3385845E-02  (-0.2090061E-02)
 number of electron     152.9999983 magnetization       1.0000000
 augmentation part       92.4243116 magnetization       0.0786966

 Broyden mixing:
  rms(total) = 0.19285E-01    rms(broyden)= 0.19284E-01
  rms(prec ) = 0.30836E-01
  weight for this iteration     100.00

 eigenvalues of (default mixing * dielectric matrix)
  average eigenvalue GAMMA=   1.0694
  2.3499  1.7256  0.9908  0.7052  0.7052  0.5538  0.4550

 Free energy of the ion-electron system (eV)
  ---------------------------------------------------
  alpha Z        PSCENC =        41.16232785
  Ewald energy   TEWEN  =     16191.00329311
  -Hartree energ DENC   =    -33156.02473400
  -exchange      EXHF   =         0.00000000
  -V(xc)+E(xc)   XCENC  =       615.15093479
  PAW double counting   =     17617.34317167   -19015.35544978
  entropy T*S    EENTRO =         0.00935367
  eigenvalues    EBANDS =     -1004.43433052
  atomic energy  EATOM  =     18662.21924712
  Solvation  Ediel_sol  =         0.00000000
  ---------------------------------------------------
  free energy    TOTEN  =       -48.92618609 eV

  energy without entropy =      -48.93553977  energy(sigma->0) =      -48.92930398


--------------------------------------------------------------------------------------------------------




--------------------------------------- Iteration      1(  13)  ---------------------------------------


    POTLOK:  cpu time    1.1333: real time    1.1366
    SETDIJ:  cpu time    0.0171: real time    0.0171
    EDDIAG:  cpu time    1.1087: real time    1.1120
  RMM-DIIS:  cpu time    7.1416: real time    7.1666
    ORTHCH:  cpu time    0.0502: real time    0.0503
       DOS:  cpu time    0.0004: real time    0.0004
    CHARGE:  cpu time    0.6640: real time    0.6671
    MIXING:  cpu time    0.0281: real time    0.0281
    --------------------------------------------
      LOOP:  cpu time   10.1435: real time   10.1782

 eigenvalue-minimisations  :   448
 total energy-change (2. order) : 0.1073551E-02  (-0.6504920E-03)
 number of electron     152.9999983 magnetization       1.0000000
 augmentation part       92.4374154 magnetization       0.0788603

 Broyden mixing:
  rms(total) = 0.95310E-02    rms(broyden)= 0.95305E-02
  rms(prec ) = 0.19857E-01
  weight for this iteration     100.00

 eigenvalues of (default mixing * dielectric matrix)
  average eigenvalue GAMMA=   1.0991
  2.4117  1.8549  1.2682  0.7579  0.7579  0.7725  0.5251  0.4446

 Free energy of the ion-electron system (eV)
  ---------------------------------------------------
  alpha Z        PSCENC =        41.16232785
  Ewald energy   TEWEN  =     16191.00329311
  -Hartree energ DENC   =    -33159.82898233
  -exchange      EXHF   =         0.00000000
  -V(xc)+E(xc)   XCENC  =       615.16432422
  PAW double counting   =     17623.80946935   -19021.90525766
  entropy T*S    EENTRO =         0.00935253
  eigenvalues    EBANDS =     -1000.55888672
  atomic energy  EATOM  =     18662.21924712
  Solvation  Ediel_sol  =         0.00000000
  ---------------------------------------------------
  free energy    TOTEN  =       -48.92511254 eV

  energy without entropy =      -48.93446507  energy(sigma->0) =      -48.92823005


--------------------------------------------------------------------------------------------------------




--------------------------------------- Iteration      1(  14)  ---------------------------------------


    POTLOK:  cpu time    1.1300: real time    1.1363
    SETDIJ:  cpu time    0.0171: real time    0.0171
    EDDIAG:  cpu time    1.1068: real time    1.1101
  RMM-DIIS:  cpu time    6.6969: real time    6.7201
    ORTHCH:  cpu time    0.0518: real time    0.0519
       DOS:  cpu time    0.0004: real time    0.0004
    CHARGE:  cpu time    0.6651: real time    0.6669
    MIXING:  cpu time    0.0293: real time    0.0293
    --------------------------------------------
      LOOP:  cpu time    9.6974: real time    9.7321

 eigenvalue-minimisations  :   414
 total energy-change (2. order) :-0.1007974E-02  (-0.3368107E-03)
 number of electron     152.9999983 magnetization       1.0000000
 augmentation part       92.4481446 magnetization       0.0787513

 Broyden mixing:
  rms(total) = 0.11600E-01    rms(broyden)= 0.11600E-01
  rms(prec ) = 0.17673E-01
  weight for this iteration     100.00

 eigenvalues of (default mixing * dielectric matrix)
  average eigenvalue GAMMA=   1.1331
  2.3484  2.3484  1.3768  0.9582  0.7480  0.7480  0.7221  0.4995  0.4483

 Free energy of the ion-electron system (eV)
  ---------------------------------------------------
  alpha Z        PSCENC =        41.16232785
  Ewald energy   TEWEN  =     16191.00329311
  -Hartree energ DENC   =    -33164.52100450
  -exchange      EXHF   =         0.00000000
  -V(xc)+E(xc)   XCENC  =       615.18832759
  PAW double counting   =     17618.57438702   -19016.39523754
  entropy T*S    EENTRO =         0.00935209
  eigenvalues    EBANDS =      -996.16681326
  atomic energy  EATOM  =     18662.21924712
  Solvation  Ediel_sol  =         0.00000000
  ---------------------------------------------------
  free energy    TOTEN  =       -48.92612052 eV

  energy without entropy =      -48.93547260  energy(sigma->0) =      -48.92923788


--------------------------------------------------------------------------------------------------------




--------------------------------------- Iteration      1(  15)  ---------------------------------------


    POTLOK:  cpu time    1.1307: real time    1.1348
    SETDIJ:  cpu time    0.0170: real time    0.0170
    EDDIAG:  cpu time    1.1074: real time    1.1105
  RMM-DIIS:  cpu time    6.7677: real time    6.7928
    ORTHCH:  cpu time    0.0502: real time    0.0505
       DOS:  cpu time    0.0004: real time    0.0004
    CHARGE:  cpu time    0.6662: real time    0.6680
    MIXING:  cpu time    0.0292: real time    0.0293
    --------------------------------------------
      LOOP:  cpu time    9.7687: real time    9.8033

 eigenvalue-minimisations  :   404
 total energy-change (2. order) :-0.1102997E-02  (-0.1686562E-03)
 number of electron     152.9999983 magnetization       1.0000000
 augmentation part       92.4398442 magnetization       0.0791704

 Broyden mixing:
  rms(total) = 0.58077E-02    rms(broyden)= 0.58074E-02
  rms(prec ) = 0.10212E-01
  weight for this iteration     100.00

 eigenvalues of (default mixing * dielectric matrix)
  average eigenvalue GAMMA=   1.1671
  2.6372  2.6372  1.3054  1.3054  0.8208  0.7374  0.7374  0.5595  0.4829  0.4478

 Free energy of the ion-electron system (eV)
  ---------------------------------------------------
  alpha Z        PSCENC =        41.16232785
  Ewald energy   TEWEN  =     16191.00329311
  -Hartree energ DENC   =    -33168.45362315
  -exchange      EXHF   =         0.00000000
  -V(xc)+E(xc)   XCENC  =       615.23133225
  PAW double counting   =     17613.27074386   -19011.00516071
  entropy T*S    EENTRO =         0.00935199
  eigenvalues    EBANDS =      -992.36473583
  atomic energy  EATOM  =     18662.21924712
  Solvation  Ediel_sol  =         0.00000000
  ---------------------------------------------------
  free energy    TOTEN  =       -48.92722351 eV

  energy without entropy =      -48.93657551  energy(sigma->0) =      -48.93034084


--------------------------------------------------------------------------------------------------------




--------------------------------------- Iteration      1(  16)  ---------------------------------------


    POTLOK:  cpu time    1.1313: real time    1.1357
    SETDIJ:  cpu time    0.0167: real time    0.0169
    EDDIAG:  cpu time    1.1071: real time    1.1104
  RMM-DIIS:  cpu time    6.9155: real time    6.9410
    ORTHCH:  cpu time    0.0499: real time    0.0500
       DOS:  cpu time    0.0003: real time    0.0003
    CHARGE:  cpu time    0.6646: real time    0.6665
    MIXING:  cpu time    0.0305: real time    0.0305
    --------------------------------------------
      LOOP:  cpu time    9.9160: real time    9.9513

 eigenvalue-minimisations  :   391
 total energy-change (2. order) :-0.1283351E-02  (-0.9294438E-04)
 number of electron     152.9999983 magnetization       1.0000000
 augmentation part       92.4353162 magnetization       0.0794322

 Broyden mixing:
  rms(total) = 0.48928E-02    rms(broyden)= 0.48925E-02
  rms(prec ) = 0.76162E-02
  weight for this iteration     100.00

 eigenvalues of (default mixing * dielectric matrix)
  average eigenvalue GAMMA=   1.1960
  3.0867  2.6091  1.4484  1.4484  0.7554  0.7554  0.7996  0.7996  0.4456  0.5038
  0.5038

 Free energy of the ion-electron system (eV)
  ---------------------------------------------------
  alpha Z        PSCENC =        41.16232785
  Ewald energy   TEWEN  =     16191.00329311
  -Hartree energ DENC   =    -33171.05258586
  -exchange      EXHF   =         0.00000000
  -V(xc)+E(xc)   XCENC  =       615.25865511
  PAW double counting   =     17609.47594613   -19007.15792458
  entropy T*S    EENTRO =         0.00935030
  eigenvalues    EBANDS =      -989.84681604
  atomic energy  EATOM  =     18662.21924712
  Solvation  Ediel_sol  =         0.00000000
  ---------------------------------------------------
  free energy    TOTEN  =       -48.92850686 eV

  energy without entropy =      -48.93785717  energy(sigma->0) =      -48.93162363


--------------------------------------------------------------------------------------------------------




--------------------------------------- Iteration      1(  17)  ---------------------------------------


    POTLOK:  cpu time    1.1325: real time    1.1357
    SETDIJ:  cpu time    0.0169: real time    0.0169
    EDDIAG:  cpu time    1.1073: real time    1.1112
  RMM-DIIS:  cpu time    6.4543: real time    6.4769
    ORTHCH:  cpu time    0.0503: real time    0.0504
       DOS:  cpu time    0.0004: real time    0.0004
    CHARGE:  cpu time    0.6636: real time    0.6655
    MIXING:  cpu time    0.0315: real time    0.0316
    --------------------------------------------
      LOOP:  cpu time    9.4569: real time    9.4886

 eigenvalue-minimisations  :   391
 total energy-change (2. order) :-0.1749245E-02  (-0.5202148E-04)
 number of electron     152.9999983 magnetization       1.0000000
 augmentation part       92.4384731 magnetization       0.0792691

 Broyden mixing:
  rms(total) = 0.25113E-02    rms(broyden)= 0.25113E-02
  rms(prec ) = 0.43040E-02
  weight for this iteration     100.00

 eigenvalues of (default mixing * dielectric matrix)
  average eigenvalue GAMMA=   1.3277
  4.3157  2.5565  2.0403  1.5320  0.9483  0.9483  0.7466  0.7466  0.6553  0.4469
  0.5111  0.4847

 Free energy of the ion-electron system (eV)
  ---------------------------------------------------
  alpha Z        PSCENC =        41.16232785
  Ewald energy   TEWEN  =     16191.00329311
  -Hartree energ DENC   =    -33173.10965920
  -exchange      EXHF   =         0.00000000
  -V(xc)+E(xc)   XCENC  =       615.26735617
  PAW double counting   =     17607.03866485   -19004.65959773
  entropy T*S    EENTRO =         0.00935049
  eigenvalues    EBANDS =      -987.86123876
  atomic energy  EATOM  =     18662.21924712
  Solvation  Ediel_sol  =         0.00000000
  ---------------------------------------------------
  free energy    TOTEN  =       -48.93025611 eV

  energy without entropy =      -48.93960660  energy(sigma->0) =      -48.93337294


--------------------------------------------------------------------------------------------------------




--------------------------------------- Iteration      1(  18)  ---------------------------------------


    POTLOK:  cpu time    1.1348: real time    1.1397
    SETDIJ:  cpu time    0.0172: real time    0.0174
    EDDIAG:  cpu time    1.1069: real time    1.1103
  RMM-DIIS:  cpu time    6.7562: real time    6.7977
    ORTHCH:  cpu time    0.0502: real time    0.0503
       DOS:  cpu time    0.0004: real time    0.0004
    CHARGE:  cpu time    0.6655: real time    0.6676
    MIXING:  cpu time    0.0326: real time    0.0326
    --------------------------------------------
      LOOP:  cpu time    9.7638: real time    9.8160

 eigenvalue-minimisations  :   406
 total energy-change (2. order) :-0.9523477E-03  (-0.2356981E-04)
 number of electron     152.9999983 magnetization       1.0000000
 augmentation part       92.4385367 magnetization       0.0793363

 Broyden mixing:
  rms(total) = 0.16016E-02    rms(broyden)= 0.16016E-02
  rms(prec ) = 0.27792E-02
  weight for this iteration     100.00

 eigenvalues of (default mixing * dielectric matrix)
  average eigenvalue GAMMA=   1.3549
  5.0108  2.6335  2.1885  1.2649  1.2649  0.8589  0.8589  0.7478  0.7478  0.6099
  0.4469  0.5055  0.4757

 Free energy of the ion-electron system (eV)
  ---------------------------------------------------
  alpha Z        PSCENC =        41.16232785
  Ewald energy   TEWEN  =     16191.00329311
  -Hartree energ DENC   =    -33174.18600855
  -exchange      EXHF   =         0.00000000
  -V(xc)+E(xc)   XCENC  =       615.26936910
  PAW double counting   =     17606.62113001   -19004.24536661
  entropy T*S    EENTRO =         0.00935048
  eigenvalues    EBANDS =      -986.78455095
  atomic energy  EATOM  =     18662.21924712
  Solvation  Ediel_sol  =         0.00000000
  ---------------------------------------------------
  free energy    TOTEN  =       -48.93120846 eV

  energy without entropy =      -48.94055894  energy(sigma->0) =      -48.93432528


--------------------------------------------------------------------------------------------------------




--------------------------------------- Iteration      1(  19)  ---------------------------------------


    POTLOK:  cpu time    1.1345: real time    1.1382
    SETDIJ:  cpu time    0.0174: real time    0.0174
    EDDIAG:  cpu time    1.1064: real time    1.1100
  RMM-DIIS:  cpu time    7.2104: real time    7.2356
    ORTHCH:  cpu time    0.0501: real time    0.0501
       DOS:  cpu time    0.0004: real time    0.0004
    CHARGE:  cpu time    0.6650: real time    0.6670
    MIXING:  cpu time    0.0339: real time    0.0339
    --------------------------------------------
      LOOP:  cpu time   10.2182: real time   10.2527

 eigenvalue-minimisations  :   448
 total energy-change (2. order) :-0.7473584E-03  (-0.1430456E-04)
 number of electron     152.9999983 magnetization       1.0000000
 augmentation part       92.4358129 magnetization       0.0793502

 Broyden mixing:
  rms(total) = 0.12399E-02    rms(broyden)= 0.12398E-02
  rms(prec ) = 0.20961E-02
  weight for this iteration     100.00

 eigenvalues of (default mixing * dielectric matrix)
  average eigenvalue GAMMA=   1.4192
  5.7496  2.7431  2.2181  1.5493  1.5493  0.9504  0.9504  0.7431  0.7431  0.6628
  0.5824  0.4464  0.5003  0.4799

 Free energy of the ion-electron system (eV)
  ---------------------------------------------------
  alpha Z        PSCENC =        41.16232785
  Ewald energy   TEWEN  =     16191.00329311
  -Hartree energ DENC   =    -33174.87635201
  -exchange      EXHF   =         0.00000000
  -V(xc)+E(xc)   XCENC  =       615.27138004
  PAW double counting   =     17606.92548450   -19004.58408174
  entropy T*S    EENTRO =         0.00935038
  eigenvalues    EBANDS =      -986.06260505
  atomic energy  EATOM  =     18662.21924712
  Solvation  Ediel_sol  =         0.00000000
  ---------------------------------------------------
  free energy    TOTEN  =       -48.93195581 eV

  energy without entropy =      -48.94130619  energy(sigma->0) =      -48.93507261


--------------------------------------------------------------------------------------------------------




--------------------------------------- Iteration      1(  20)  ---------------------------------------


    POTLOK:  cpu time    1.1334: real time    1.1382
    SETDIJ:  cpu time    0.0168: real time    0.0168
    EDDIAG:  cpu time    1.1062: real time    1.1104
  RMM-DIIS:  cpu time    6.8834: real time    6.9070
    ORTHCH:  cpu time    0.0502: real time    0.0502
       DOS:  cpu time    0.0004: real time    0.0004
    CHARGE:  cpu time    0.6652: real time    0.6671
    MIXING:  cpu time    0.0356: real time    0.0356
    --------------------------------------------
      LOOP:  cpu time    9.8911: real time    9.9257

 eigenvalue-minimisations  :   423
 total energy-change (2. order) :-0.5582457E-03  (-0.4283333E-05)
 number of electron     152.9999983 magnetization       1.0000000
 augmentation part       92.4364017 magnetization       0.0793395

 Broyden mixing:
  rms(total) = 0.82897E-03    rms(broyden)= 0.82894E-03
  rms(prec ) = 0.14121E-02
  weight for this iteration     100.00

 eigenvalues of (default mixing * dielectric matrix)
  average eigenvalue GAMMA=   1.4532
  6.3706  2.8182  2.2373  2.0125  1.4558  0.9532  0.9532  0.8669  0.7589  0.7589
  0.6484  0.4467  0.5274  0.5098  0.4803

 Free energy of the ion-electron system (eV)
  ---------------------------------------------------
  alpha Z        PSCENC =        41.16232785
  Ewald energy   TEWEN  =     16191.00329311
  -Hartree energ DENC   =    -33174.99948802
  -exchange      EXHF   =         0.00000000
  -V(xc)+E(xc)   XCENC  =       615.26996253
  PAW double counting   =     17607.07839382   -19004.74059426
  entropy T*S    EENTRO =         0.00935061
  eigenvalues    EBANDS =      -985.93500681
  atomic energy  EATOM  =     18662.21924712
  Solvation  Ediel_sol  =         0.00000000
  ---------------------------------------------------
  free energy    TOTEN  =       -48.93251406 eV

  energy without entropy =      -48.94186467  energy(sigma->0) =      -48.93563093


--------------------------------------------------------------------------------------------------------




--------------------------------------- Iteration      1(  21)  ---------------------------------------


    POTLOK:  cpu time    1.1328: real time    1.1358
    SETDIJ:  cpu time    0.0177: real time    0.0179
    EDDIAG:  cpu time    1.1535: real time    1.1580
  RMM-DIIS:  cpu time    6.5868: real time    6.6102
    ORTHCH:  cpu time    0.0502: real time    0.0503
       DOS:  cpu time    0.0003: real time    0.0003
    CHARGE:  cpu time    0.6633: real time    0.6651
    MIXING:  cpu time    0.0373: real time    0.0374
    --------------------------------------------
      LOOP:  cpu time    9.6419: real time    9.6750

 eigenvalue-minimisations  :   404
 total energy-change (2. order) :-0.4041701E-03  (-0.3269258E-05)
 number of electron     152.9999983 magnetization       1.0000000
 augmentation part       92.4378418 magnetization       0.0793532

 Broyden mixing:
  rms(total) = 0.56739E-03    rms(broyden)= 0.56733E-03
  rms(prec ) = 0.91665E-03
  weight for this iteration     100.00

 eigenvalues of (default mixing * dielectric matrix)
  average eigenvalue GAMMA=   1.4816
  6.6509  3.1012  2.4006  2.1486  1.3503  1.3503  0.9514  0.9514  0.7538  0.7538
  0.6944  0.6443  0.4466  0.5294  0.5015  0.4768

 Free energy of the ion-electron system (eV)
  ---------------------------------------------------
  alpha Z        PSCENC =        41.16232785
  Ewald energy   TEWEN  =     16191.00329311
  -Hartree energ DENC   =    -33174.95873001
  -exchange      EXHF   =         0.00000000
  -V(xc)+E(xc)   XCENC  =       615.26788321
  PAW double counting   =     17607.20831252   -19004.86242506
  entropy T*S    EENTRO =         0.00935080
  eigenvalues    EBANDS =      -985.98217776
  atomic energy  EATOM  =     18662.21924712
  Solvation  Ediel_sol  =         0.00000000
  ---------------------------------------------------
  free energy    TOTEN  =       -48.93291823 eV

  energy without entropy =      -48.94226903  energy(sigma->0) =      -48.93603516


--------------------------------------------------------------------------------------------------------




--------------------------------------- Iteration      1(  22)  ---------------------------------------


    POTLOK:  cpu time    1.1301: real time    1.1367
    SETDIJ:  cpu time    0.0179: real time    0.0179
    EDDIAG:  cpu time    1.1075: real time    1.1107
  RMM-DIIS:  cpu time    6.5609: real time    6.5841
    ORTHCH:  cpu time    0.0508: real time    0.0509
       DOS:  cpu time    0.0003: real time    0.0003
    CHARGE:  cpu time    0.6620: real time    0.6639
    MIXING:  cpu time    0.0389: real time    0.0390
    --------------------------------------------
      LOOP:  cpu time    9.5686: real time    9.6036

 eigenvalue-minimisations  :   400
 total energy-change (2. order) :-0.2676622E-03  (-0.1868851E-05)
 number of electron     152.9999983 magnetization       1.0000000
 augmentation part       92.4380845 magnetization       0.0793702

 Broyden mixing:
  rms(total) = 0.42228E-03    rms(broyden)= 0.42227E-03
  rms(prec ) = 0.65636E-03
  weight for this iteration     100.00

 eigenvalues of (default mixing * dielectric matrix)
  average eigenvalue GAMMA=   1.5406
  7.0354  3.9034  2.4763  2.1289  1.5625  1.5625  1.0067  1.0067  0.7682  0.7682
  0.7324  0.7046  0.5800  0.4465  0.5306  0.4788  0.4986

 Free energy of the ion-electron system (eV)
  ---------------------------------------------------
  alpha Z        PSCENC =        41.16232785
  Ewald energy   TEWEN  =     16191.00329311
  -Hartree energ DENC   =    -33175.01246920
  -exchange      EXHF   =         0.00000000
  -V(xc)+E(xc)   XCENC  =       615.26659024
  PAW double counting   =     17607.41021388   -19005.06391535
  entropy T*S    EENTRO =         0.00935075
  eigenvalues    EBANDS =      -985.92782429
  atomic energy  EATOM  =     18662.21924712
  Solvation  Ediel_sol  =         0.00000000
  ---------------------------------------------------
  free energy    TOTEN  =       -48.93318589 eV

  energy without entropy =      -48.94253665  energy(sigma->0) =      -48.93630281


--------------------------------------------------------------------------------------------------------




--------------------------------------- Iteration      1(  23)  ---------------------------------------


    POTLOK:  cpu time    1.1324: real time    1.1354
    SETDIJ:  cpu time    0.0169: real time    0.0170
    EDDIAG:  cpu time    1.1051: real time    1.1084
  RMM-DIIS:  cpu time    6.9509: real time    6.9749
    ORTHCH:  cpu time    0.0514: real time    0.0515
       DOS:  cpu time    0.0004: real time    0.0004
    CHARGE:  cpu time    0.6636: real time    0.6656
    MIXING:  cpu time    0.0408: real time    0.0417
    --------------------------------------------
      LOOP:  cpu time    9.9615: real time    9.9949

 eigenvalue-minimisations  :   405
 total energy-change (2. order) :-0.1443552E-03  (-0.8954300E-06)
 number of electron     152.9999983 magnetization       1.0000000
 augmentation part       92.4375597 magnetization       0.0793650

 Broyden mixing:
  rms(total) = 0.23391E-03    rms(broyden)= 0.23387E-03
  rms(prec ) = 0.37474E-03
  weight for this iteration     100.00

 eigenvalues of (default mixing * dielectric matrix)
  average eigenvalue GAMMA=   1.5664
  7.4254  4.2438  2.4910  2.1732  1.7987  1.3117  1.3117  0.9856  0.9856  0.7625
  0.7625  0.7368  0.6691  0.5896  0.4466  0.4787  0.5178  0.5040

 Free energy of the ion-electron system (eV)
  ---------------------------------------------------
  alpha Z        PSCENC =        41.16232785
  Ewald energy   TEWEN  =     16191.00329311
  -Hartree energ DENC   =    -33175.10212181
  -exchange      EXHF   =         0.00000000
  -V(xc)+E(xc)   XCENC  =       615.26673573
  PAW double counting   =     17607.50753733   -19005.16594510
  entropy T*S    EENTRO =         0.00935074
  eigenvalues    EBANDS =      -985.83375522
  atomic energy  EATOM  =     18662.21924712
  Solvation  Ediel_sol  =         0.00000000
  ---------------------------------------------------
  free energy    TOTEN  =       -48.93333025 eV

  energy without entropy =      -48.94268099  energy(sigma->0) =      -48.93644716


--------------------------------------------------------------------------------------------------------




--------------------------------------- Iteration      1(  24)  ---------------------------------------


    POTLOK:  cpu time    1.1332: real time    1.1366
    SETDIJ:  cpu time    0.0172: real time    0.0173
    EDDIAG:  cpu time    1.1065: real time    1.1095
  RMM-DIIS:  cpu time    6.3895: real time    6.4262
    ORTHCH:  cpu time    0.0512: real time    0.0512
       DOS:  cpu time    0.0004: real time    0.0003
    CHARGE:  cpu time    0.6623: real time    0.6641
    MIXING:  cpu time    0.0424: real time    0.0424
    --------------------------------------------
      LOOP:  cpu time    9.4025: real time    9.4475

 eigenvalue-minimisations  :   391
 total energy-change (2. order) :-0.1044301E-03  (-0.7103435E-06)
 number of electron     152.9999983 magnetization       1.0000000
 augmentation part       92.4370717 magnetization       0.0793602

 Broyden mixing:
  rms(total) = 0.17507E-03    rms(broyden)= 0.17507E-03
  rms(prec ) = 0.25956E-03
  weight for this iteration     100.00

 eigenvalues of (default mixing * dielectric matrix)
  average eigenvalue GAMMA=   1.5780
  7.6894  4.5472  2.4819  2.2471  1.9705  1.4213  1.4213  1.0045  1.0045  0.7905
  0.7905  0.7264  0.7264  0.6141  0.5969  0.4466  0.4787  0.5010  0.5237

 Free energy of the ion-electron system (eV)
  ---------------------------------------------------
  alpha Z        PSCENC =        41.16232785
  Ewald energy   TEWEN  =     16191.00329311
  -Hartree energ DENC   =    -33175.13187248
  -exchange      EXHF   =         0.00000000
  -V(xc)+E(xc)   XCENC  =       615.26752645
  PAW double counting   =     17607.45087063   -19005.11270116
  entropy T*S    EENTRO =         0.00935072
  eigenvalues    EBANDS =      -985.80147692
  atomic energy  EATOM  =     18662.21924712
  Solvation  Ediel_sol  =         0.00000000
  ---------------------------------------------------
  free energy    TOTEN  =       -48.93343468 eV

  energy without entropy =      -48.94278540  energy(sigma->0) =      -48.93655158


--------------------------------------------------------------------------------------------------------




--------------------------------------- Iteration      1(  25)  ---------------------------------------


    POTLOK:  cpu time    1.1332: real time    1.1364
    SETDIJ:  cpu time    0.0167: real time    0.0166
    EDDIAG:  cpu time    1.1069: real time    1.1101
  RMM-DIIS:  cpu time    6.3381: real time    6.3616
    ORTHCH:  cpu time    0.0507: real time    0.0510
       DOS:  cpu time    0.0004: real time    0.0004
    CHARGE:  cpu time    0.6652: real time    0.6668
    MIXING:  cpu time    0.0443: real time    0.0446
    --------------------------------------------
      LOOP:  cpu time    9.3555: real time    9.3875

 eigenvalue-minimisations  :   393
 total energy-change (2. order) :-0.6222118E-04  (-0.5139632E-06)
 number of electron     152.9999983 magnetization       1.0000000
 augmentation part       92.4371652 magnetization       0.0793664

 Broyden mixing:
  rms(total) = 0.13809E-03    rms(broyden)= 0.13808E-03
  rms(prec ) = 0.19449E-03
  weight for this iteration     100.00

 eigenvalues of (default mixing * dielectric matrix)
  average eigenvalue GAMMA=   1.6176
  7.9381  4.9577  2.5788  2.5788  1.9799  1.5952  1.2971  1.2971  0.9891  0.9891
  0.7629  0.7629  0.7253  0.7253  0.6525  0.4466  0.5707  0.4787  0.5018  0.5245

 Free energy of the ion-electron system (eV)
  ---------------------------------------------------
  alpha Z        PSCENC =        41.16232785
  Ewald energy   TEWEN  =     16191.00329311
  -Hartree energ DENC   =    -33175.13068717
  -exchange      EXHF   =         0.00000000
  -V(xc)+E(xc)   XCENC  =       615.26736889
  PAW double counting   =     17607.36619548   -19005.02472342
  entropy T*S    EENTRO =         0.00935073
  eigenvalues    EBANDS =      -985.80586948
  atomic energy  EATOM  =     18662.21924712
  Solvation  Ediel_sol  =         0.00000000
  ---------------------------------------------------
  free energy    TOTEN  =       -48.93349690 eV

  energy without entropy =      -48.94284763  energy(sigma->0) =      -48.93661381


--------------------------------------------------------------------------------------------------------




--------------------------------------- Iteration      1(  26)  ---------------------------------------


    POTLOK:  cpu time    1.1323: real time    1.1369
    SETDIJ:  cpu time    0.0182: real time    0.0181
    EDDIAG:  cpu time    1.1066: real time    1.1097
  RMM-DIIS:  cpu time    6.1724: real time    6.1947
    ORTHCH:  cpu time    0.0510: real time    0.0513
       DOS:  cpu time    0.0004: real time    0.0004
    CHARGE:  cpu time    0.6658: real time    0.6677
    MIXING:  cpu time    0.0469: real time    0.0472
    --------------------------------------------
      LOOP:  cpu time    9.1935: real time    9.2259

 eigenvalue-minimisations  :   383
 total energy-change (2. order) :-0.3616794E-04  (-0.3396744E-06)
 number of electron     152.9999983 magnetization       1.0000000
 augmentation part       92.4375681 magnetization       0.0793658

 Broyden mixing:
  rms(total) = 0.93496E-04    rms(broyden)= 0.93492E-04
  rms(prec ) = 0.12530E-03
  weight for this iteration     100.00

 eigenvalues of (default mixing * dielectric matrix)
  average eigenvalue GAMMA=   1.6315
  8.1248  5.3099  2.9436  2.5660  1.8921  1.8921  1.3122  1.3122  0.9913  0.9913
  0.8226  0.8226  0.7350  0.7350  0.6399  0.6399  0.4466  0.5809  0.4789  0.5016
  0.5225

 Free energy of the ion-electron system (eV)
  ---------------------------------------------------
  alpha Z        PSCENC =        41.16232785
  Ewald energy   TEWEN  =     16191.00329311
  -Hartree energ DENC   =    -33175.11648349
  -exchange      EXHF   =         0.00000000
  -V(xc)+E(xc)   XCENC  =       615.26679706
  PAW double counting   =     17607.29837743   -19004.95164392
  entropy T*S    EENTRO =         0.00935073
  eigenvalues    EBANDS =      -985.82479895
  atomic energy  EATOM  =     18662.21924712
  Solvation  Ediel_sol  =         0.00000000
  ---------------------------------------------------
  free energy    TOTEN  =       -48.93353307 eV

  energy without entropy =      -48.94288380  energy(sigma->0) =      -48.93664998


--------------------------------------------------------------------------------------------------------




--------------------------------------- Iteration      1(  27)  ---------------------------------------


    POTLOK:  cpu time    1.1310: real time    1.1356
    SETDIJ:  cpu time    0.0173: real time    0.0174
    EDDIAG:  cpu time    1.1066: real time    1.1098
  RMM-DIIS:  cpu time    5.1339: real time    5.1503
    ORTHCH:  cpu time    0.0516: real time    0.0516
       DOS:  cpu time    0.0004: real time    0.0004
    CHARGE:  cpu time    0.6655: real time    0.6689
    MIXING:  cpu time    0.0497: real time    0.0497
    --------------------------------------------
      LOOP:  cpu time    8.1558: real time    8.1838

 eigenvalue-minimisations  :   303
 total energy-change (2. order) :-0.1246577E-04  (-0.1115493E-06)
 number of electron     152.9999983 magnetization       1.0000000
 augmentation part       92.4374740 magnetization       0.0793556

 Broyden mixing:
  rms(total) = 0.69196E-04    rms(broyden)= 0.69192E-04
  rms(prec ) = 0.92881E-04
  weight for this iteration     100.00

 eigenvalues of (default mixing * dielectric matrix)
  average eigenvalue GAMMA=   1.6359
  8.2068  5.6093  3.1995  2.4915  1.9623  1.9623  1.3575  1.3575  1.0300  1.0300
  0.9552  0.8290  0.7603  0.7603  0.6757  0.6341  0.6341  0.4466  0.5849  0.4789
  0.5015  0.5215

 Free energy of the ion-electron system (eV)
  ---------------------------------------------------
  alpha Z        PSCENC =        41.16232785
  Ewald energy   TEWEN  =     16191.00329311
  -Hartree energ DENC   =    -33175.11925244
  -exchange      EXHF   =         0.00000000
  -V(xc)+E(xc)   XCENC  =       615.26689562
  PAW double counting   =     17607.29699439   -19004.95120654
  entropy T*S    EENTRO =         0.00935073
  eigenvalues    EBANDS =      -985.82119537
  atomic energy  EATOM  =     18662.21924712
  Solvation  Ediel_sol  =         0.00000000
  ---------------------------------------------------
  free energy    TOTEN  =       -48.93354553 eV

  energy without entropy =      -48.94289626  energy(sigma->0) =      -48.93666244


--------------------------------------------------------------------------------------------------------




--------------------------------------- Iteration      1(  28)  ---------------------------------------


    POTLOK:  cpu time    1.1310: real time    1.1340
    SETDIJ:  cpu time    0.0174: real time    0.0174
    EDDIAG:  cpu time    1.1042: real time    1.1102
  RMM-DIIS:  cpu time    4.5203: real time    4.5337
    ORTHCH:  cpu time    0.0511: real time    0.0513
       DOS:  cpu time    0.0003: real time    0.0003
    CHARGE:  cpu time    0.6654: real time    0.6670
[...]
     66      -4.9043      1.00000
     67      -4.8907      1.00000
     68      -4.8726      1.00000
     69      -4.8525      1.00000
     70      -4.8116      1.00000
     71      -4.7950      1.00000
     72      -4.7776      1.00000
     73      -4.7231      1.00000
     74      -4.5479      1.00000
     75      -4.1900      1.00000
     76      -4.1160      1.00000
     77      -3.4898      1.00001
     78      -3.0641     -0.00001
     79      -2.9026     -0.00000
     80      -2.5527     -0.00000
     81      -2.3546     -0.00000
     82      -1.9459     -0.00000
     83      -1.8916     -0.00000
     84      -1.7331     -0.00000
     85      -1.3634     -0.00000
     86      -1.0331     -0.00000
     87      -0.9596     -0.00000
     88      -0.7892     -0.00000
     89      -0.3748      0.00000
     90      -0.2686      0.00000
     91      -0.0979      0.00000
     92       0.2156      0.00000

 spin component 2

 k-point     1 :       0.0000    0.0000    0.0000
  band No.  band energies     occupation 
      1     -28.4709      1.00000
      2     -13.8036      1.00000
      3     -11.3224      1.00000
      4     -11.1326      1.00000
      5     -10.9277      1.00000
      6      -9.9930      1.00000
      7      -8.5007      1.00000
      8      -8.1084      1.00000
      9      -7.5503      1.00000
     10      -7.4420      1.00000
     11      -7.3106      1.00000
     12      -7.1869      1.00000
     13      -7.1538      1.00000
     14      -7.0197      1.00000
     15      -6.9196      1.00000
     16      -6.7754      1.00000
     17      -6.7715      1.00000
     18      -6.7004      1.00000
     19      -6.6494      1.00000
     20      -6.5929      1.00000
     21      -6.5677      1.00000
     22      -6.5343      1.00000
     23      -6.4564      1.00000
     24      -6.4338      1.00000
     25      -6.3933      1.00000
     26      -6.3327      1.00000
     27      -6.3038      1.00000
     28      -6.2296      1.00000
     29      -6.2164      1.00000
     30      -6.1964      1.00000
     31      -6.1360      1.00000
     32      -6.0814      1.00000
     33      -6.0292      1.00000
     34      -5.9992      1.00000
     35      -5.8477      1.00000
     36      -5.8054      1.00000
     37      -5.7572      1.00000
     38      -5.6817      1.00000
     39      -5.6187      1.00000
     40      -5.6085      1.00000
     41      -5.5197      1.00000
     42      -5.4962      1.00000
     43      -5.4728      1.00000
     44      -5.4643      1.00000
     45      -5.3866      1.00000
     46      -5.3664      1.00000
     47      -5.3441      1.00000
     48      -5.3085      1.00000
     49      -5.2951      1.00000
     50      -5.2761      1.00000
     51      -5.2545      1.00000
     52      -5.2481      1.00000
     53      -5.2384      1.00000
     54      -5.2091      1.00000
     55      -5.1727      1.00000
     56      -5.1475      1.00000
     57      -5.1319      1.00000
     58      -5.1096      1.00000
     59      -5.0928      1.00000
     60      -5.0475      1.00000
     61      -5.0248      1.00000
     62      -4.9923      1.00000
     63      -4.9802      1.00000
     64      -4.9562      1.00000
     65      -4.8940      1.00000
     66      -4.8765      1.00000
     67      -4.8674      1.00000
     68      -4.8296      1.00000
     69      -4.8203      1.00000
     70      -4.7843      1.00000
     71      -4.7616      1.00000
     72      -4.7524      1.00000
     73      -4.6946      1.00000
     74      -4.5033      1.00000
     75      -4.1285      1.03540
     76      -4.0794      0.96460
     77      -3.2795     -0.00000
     78      -3.0141     -0.00000
     79      -2.8520     -0.00000
     80      -2.4830     -0.00000
     81      -2.2669     -0.00000
     82      -1.9066     -0.00000
     83      -1.8258     -0.00000
     84      -1.6657     -0.00000
     85      -1.2416      0.00000
     86      -0.9187      0.00000
     87      -0.8592      0.00000
     88      -0.7150      0.00000
     89      -0.2827      0.00000
     90      -0.1912      0.00000
     91      -0.0401      0.00000
     92       0.1295      0.00000


--------------------------------------------------------------------------------------------------------


 soft charge-density along one line, spin component           1
         0         1         2         3         4         5         6         7         8         9
 total charge-density along one line
 
 soft charge-density along one line, spin component           2
         0         1         2         3         4         5         6         7         8         9
 total charge-density along one line
 
 pseudopotential strength for first ion, spin component:           1
-10.522   0.002  -0.014   0.002  -0.009   1.024  -0.001   0.013
  0.002 -10.509  -0.007   0.006   0.004  -0.001   1.015   0.005
 -0.014  -0.007 -10.493   0.003  -0.011   0.013   0.005   1.001
  0.002   0.006   0.003 -10.497  -0.002  -0.001  -0.007  -0.002
 -0.009   0.004  -0.011  -0.002 -10.510   0.007  -0.003   0.009
  1.024  -0.001   0.013  -0.001   0.007   6.287   0.001  -0.010
 -0.001   1.015   0.005  -0.007  -0.003   0.001   6.291  -0.003
  0.013   0.005   1.001  -0.002   0.009  -0.010  -0.003   6.302
 -0.001  -0.007  -0.002   1.004   0.001   0.001   0.007   0.001
  0.007  -0.003   0.009   0.001   1.015  -0.005   0.002  -0.007
 -0.007   0.001  -0.004  -0.000  -0.004   0.004   0.000  -0.001
 -0.013   0.001  -0.007  -0.001  -0.007   0.008   0.001  -0.002
 -0.014  -0.001   0.004  -0.000   0.008   0.009   0.001  -0.003
 -0.000  -0.006  -0.001  -0.012  -0.000   0.000   0.004   0.001
 -0.005  -0.000   0.008  -0.001  -0.013   0.003   0.000  -0.006
 -0.015  -0.001   0.004  -0.000   0.008   0.009   0.001  -0.004
 -0.000  -0.005  -0.001  -0.013  -0.000   0.001   0.004   0.001
 -0.004  -0.000   0.009  -0.001  -0.014   0.001   0.001  -0.006
 pseudopotential strength for first ion, spin component:           2
-10.486   0.002  -0.007  -0.007   0.004   0.995  -0.002   0.006
  0.002 -10.498  -0.007   0.006   0.002  -0.002   1.004   0.005
 -0.007  -0.007 -10.481   0.002  -0.007   0.006   0.005   0.991
 -0.007   0.006   0.002 -10.482  -0.005   0.006  -0.005  -0.001
  0.004   0.002  -0.007  -0.005 -10.495  -0.003  -0.002   0.006
  0.995  -0.002   0.006   0.006  -0.003   6.305   0.001  -0.004
 -0.002   1.004   0.005  -0.005  -0.002   0.001   6.297  -0.004
  0.006   0.005   0.991  -0.001   0.006  -0.004  -0.004   6.307
  0.006  -0.005  -0.001   0.991   0.003  -0.003   0.004   0.001
 -0.003  -0.002   0.006   0.003   1.002   0.002   0.001  -0.004
 -0.003   0.001  -0.001  -0.001  -0.002   0.001   0.000  -0.002
 -0.005   0.003  -0.003  -0.001  -0.004   0.001   0.001  -0.003
 -0.015  -0.000   0.005   0.000   0.007   0.012  -0.001  -0.005
  0.000  -0.007  -0.000  -0.014   0.000  -0.000   0.006  -0.001
 -0.008   0.000   0.009   0.000  -0.014   0.007  -0.000  -0.007
 -0.016  -0.000   0.005   0.001   0.008   0.013  -0.001  -0.006
  0.001  -0.007   0.000  -0.015   0.001  -0.001   0.006  -0.002
 -0.009   0.001   0.010   0.001  -0.016   0.007  -0.001  -0.008
 total augmentation occupancy for first ion, spin component:           1
  1.935   0.005  -0.007   0.001  -0.003  -0.014  -0.002   0.007  -0.000   0.003  -0.009   0.013   0.026   0.001   0.036  -0.020
  0.005   1.925  -0.005   0.006  -0.001  -0.002  -0.018   0.006  -0.001  -0.000  -0.004  -0.001   0.001   0.041  -0.002  -0.001
 -0.007  -0.005   1.945   0.003  -0.004   0.007   0.006  -0.027  -0.004   0.003  -0.011   0.009  -0.014   0.001  -0.015   0.006
  0.001   0.006   0.003   1.937  -0.005  -0.000  -0.001  -0.004  -0.021   0.002   0.003   0.002   0.007   0.061  -0.001  -0.000
 -0.003  -0.001  -0.004  -0.005   1.938   0.003  -0.000   0.003   0.002  -0.015  -0.007   0.006  -0.016   0.006   0.039   0.012
 -0.014  -0.002   0.007  -0.000   0.003   0.014  -0.000   0.002   0.000   0.001  -0.027   0.000   0.019   0.000   0.009  -0.001
 -0.002  -0.018   0.006  -0.001  -0.000  -0.000   0.008   0.000   0.001  -0.000   0.009  -0.001  -0.000   0.013   0.001  -0.000
  0.007   0.006  -0.027  -0.004   0.003   0.002   0.000   0.007  -0.000   0.001  -0.034   0.005  -0.006  -0.001  -0.006   0.001
 -0.000  -0.001  -0.004  -0.021   0.002   0.000   0.001  -0.000   0.009  -0.001  -0.007   0.001  -0.001   0.021  -0.003  -0.000
  0.003  -0.000   0.003   0.002  -0.015   0.001  -0.000   0.001  -0.001   0.013  -0.013   0.000  -0.021  -0.003   0.022   0.001
 -0.009  -0.004  -0.011   0.003  -0.007  -0.027   0.009  -0.034  -0.007  -0.013   1.648  -0.117   0.130  -0.004   0.180  -0.017
  0.013  -0.001   0.009   0.002   0.006   0.000  -0.001   0.005   0.001   0.000  -0.117   0.014  -0.017   0.002  -0.026   0.002
  0.026   0.001  -0.014   0.007  -0.016   0.019  -0.000  -0.006  -0.001  -0.021   0.130  -0.017   0.182   0.003  -0.039  -0.012
  0.001   0.041   0.001   0.061   0.006   0.000   0.013  -0.001   0.021  -0.003  -0.004   0.002   0.003   0.092  -0.011  -0.001
  0.036  -0.002  -0.015  -0.001   0.039   0.009   0.001  -0.006  -0.003   0.022   0.180  -0.026  -0.039  -0.011   0.142   0.001
 -0.020  -0.001   0.006  -0.000   0.012  -0.001  -0.000   0.001  -0.000   0.001  -0.017   0.002  -0.012  -0.001   0.001   0.001
  0.000  -0.013  -0.001  -0.021   0.000  -0.000  -0.001   0.000  -0.001   0.000   0.001  -0.000  -0.001  -0.006   0.001   0.000
 -0.013   0.000   0.010  -0.001  -0.020  -0.000  -0.000   0.001   0.000  -0.001  -0.025   0.003   0.001   0.001  -0.010   0.000
 total augmentation occupancy for first ion, spin component:           2
  0.014  -0.001   0.002  -0.005   0.007  -0.002  -0.000  -0.002   0.001  -0.002   0.030   0.006  -0.008   0.007  -0.018  -0.001
 -0.001   0.000  -0.000   0.001  -0.001  -0.000   0.001  -0.000   0.000   0.000  -0.003  -0.001   0.002  -0.002   0.002   0.000
  0.002  -0.000   0.001  -0.001   0.001  -0.002  -0.000   0.002   0.000  -0.001   0.004   0.000   0.000   0.004  -0.001   0.000
 -0.005   0.001  -0.001   0.004  -0.003   0.001   0.000   0.000   0.002   0.000  -0.013  -0.002   0.002  -0.007   0.008   0.000
  0.007  -0.001   0.001  -0.003   0.003  -0.002   0.000  -0.001   0.000   0.001   0.014   0.002  -0.001   0.003  -0.011  -0.000
 -0.002  -0.000  -0.002   0.001  -0.002   0.001  -0.000   0.000  -0.000   0.000  -0.007  -0.001   0.001  -0.002   0.005   0.000
 -0.000   0.001  -0.000   0.000   0.000  -0.000  -0.000   0.000  -0.000  -0.000   0.000   0.000   0.000   0.000  -0.001  -0.000
 -0.002  -0.000   0.002   0.000  -0.001   0.000   0.000   0.000  -0.000   0.000  -0.002  -0.000   0.000  -0.000   0.001   0.000
  0.001   0.000   0.000   0.002   0.000  -0.000  -0.000  -0.000  -0.000  -0.000   0.002   0.000  -0.001   0.001  -0.001  -0.000
 -0.002   0.000  -0.001   0.000   0.001   0.000  -0.000   0.000  -0.000  -0.000  -0.002  -0.000   0.001  -0.001   0.002   0.000
  0.030  -0.003   0.004  -0.013   0.014  -0.007   0.000  -0.002   0.002  -0.002   0.077   0.004  -0.013   0.019  -0.039  -0.000
  0.006  -0.001   0.000  -0.002   0.002  -0.001   0.000  -0.000   0.000  -0.000   0.004   0.001  -0.001   0.001  -0.002  -0.000
 -0.008   0.002   0.000   0.002  -0.001   0.001   0.000   0.000  -0.001   0.001  -0.013  -0.001   0.002  -0.002   0.004   0.000
  0.007  -0.002   0.004  -0.007   0.003  -0.002   0.000  -0.000   0.001  -0.001   0.019   0.001  -0.002   0.004  -0.007  -0.000
 -0.018   0.002  -0.001   0.008  -0.011   0.005  -0.001   0.001  -0.001   0.002  -0.039  -0.002   0.004  -0.007   0.016   0.000
 -0.001   0.000   0.000   0.000  -0.000   0.000  -0.000   0.000  -0.000   0.000  -0.000  -0.000   0.000  -0.000   0.000   0.000
  0.000  -0.000   0.000  -0.001   0.000   0.000  -0.000  -0.000   0.000   0.000  -0.000   0.000   0.000   0.000   0.000  -0.000
 -0.001   0.000   0.000   0.001  -0.001   0.000   0.000   0.000  -0.000   0.000  -0.000  -0.000   0.000  -0.000   0.000   0.000


------------------------ aborting loop because EDIFF is reached ----------------------------------------


    CHARGE:  cpu time    0.6618: real time    0.6638
    FORLOC:  cpu time    0.0649: real time    0.0650
    FORNL :  cpu time    1.5358: real time    1.5382
    STRESS:  cpu time    5.9969: real time    6.0153
    FORCOR:  cpu time    1.1445: real time    1.1475
    FORHAR:  cpu time    0.1859: real time    0.1864
    MIXING:  cpu time    0.1198: real time    0.1203
    OFIELD:  cpu time    0.0000: real time    0.0000

  FORCE on cell =-STRESS in cart. coord.  units (eV):
  Direction    XX          YY          ZZ          XY          YZ          ZX
  --------------------------------------------------------------------------------------
  Alpha Z    41.16233    41.16233    41.16233
  Ewald   10138.08484  7506.86280 -1453.96026  -720.14620   270.47866   125.29453
  Hartree 15263.01655 12977.33059  4934.78135  -667.88178   237.33884   132.91473
  E(xc)    -876.03842  -877.51520  -879.27546     0.05793     0.02920    -0.05238
  Local  -26793.93126-21912.99899 -4917.17171  1391.42698  -506.75375  -260.61155
  n-local  -332.44051  -323.79561  -330.50536    -2.03553    -0.03263     1.44354
  augment  1222.53826  1226.05337  1232.57605     0.08552    -0.67354    -0.22616
  Kinetic  1334.97332  1362.04887  1369.99029    -2.44539    -0.44910     1.41732
  Fock        0.00000     0.00000     0.00000     0.00000     0.00000     0.00000
  -------------------------------------------------------------------------------------
  Total      -2.63489    -0.85184    -2.40278    -0.93848    -0.06232     0.18002
  in kB      -1.25083    -0.40439    -1.14065    -0.44551    -0.02958     0.08546
  external pressure =       -0.93 kB  Pullay stress =        0.00 kB


 VOLUME and BASIS-vectors are now :
 -----------------------------------------------------------------------------
  energy-cutoff  :      600.00
  volume of cell :     3375.00
      direct lattice vectors                 reciprocal lattice vectors
    15.000000000  0.000000000  0.000000000     0.066666667  0.000000000  0.000000000
     0.000000000 15.000000000  0.000000000     0.000000000  0.066666667  0.000000000
     0.000000000  0.000000000 15.000000000     0.000000000  0.000000000  0.066666667

  length of vectors
    15.000000000 15.000000000 15.000000000     0.066666667  0.066666667  0.066666667


 FORCES acting on ions
    electron-ion (+dipol)            ewald-force                    non-local-force                 convergence-correction
 -----------------------------------------------------------------------------------------------
   0.110E+04 0.667E+03 -.343E+02   -.110E+04 -.664E+03 0.346E+02   -.476E+01 -.336E+01 -.261E+00   -.529E-05 0.489E-05 -.640E-06
   0.409E+03 -.340E+03 0.934E+03   -.407E+03 0.338E+03 -.933E+03   -.138E+01 0.304E+01 0.556E-01   -.175E-05 -.206E-04 -.242E-04
   0.319E+03 0.126E+04 -.187E+03   -.317E+03 -.125E+04 0.185E+03   -.236E+01 -.925E+01 0.216E+01   -.269E-05 -.653E-05 -.302E-06
   -.871E+03 -.133E+03 0.877E+03   0.867E+03 0.133E+03 -.872E+03   0.348E+01 -.165E-01 -.439E+01   -.572E-05 -.945E-06 -.318E-05
   -.814E+03 0.995E+03 0.211E+03   0.810E+03 -.989E+03 -.209E+03   0.437E+01 -.612E+01 -.263E+01   0.151E-05 0.193E-05 -.656E-05
   -.100E+03 0.490E+03 -.921E+03   0.100E+03 -.488E+03 0.921E+03   0.551E+00 -.222E+01 0.369E+00   -.999E-05 0.923E-05 0.204E-04
   0.178E+03 0.633E+03 0.120E+04   -.177E+03 -.629E+03 -.119E+04   -.440E+00 -.447E+01 -.590E+01   0.120E-05 0.158E-04 -.516E-05
   0.124E+04 -.381E+03 0.185E+03   -.123E+04 0.378E+03 -.181E+03   -.873E+01 0.322E+01 -.327E+01   -.277E-04 -.257E-05 -.101E-04
   0.576E+03 -.203E+03 -.120E+04   -.572E+03 0.202E+03 0.120E+04   -.350E+01 0.326E+00 0.712E+01   0.857E-05 -.107E-04 0.767E-05
   0.440E+03 -.125E+04 -.138E+03   -.437E+03 0.125E+04 0.136E+03   -.283E+01 0.708E+01 0.153E+01   -.107E-04 0.145E-04 0.377E-05
   -.505E+03 -.106E+04 0.655E+03   0.501E+03 0.105E+04 -.649E+03   0.371E+01 0.651E+01 -.614E+01   0.452E-05 -.255E-05 0.716E-06
   -.798E+03 0.958E+02 -.525E+03   0.797E+03 -.957E+02 0.520E+03   0.500E+00 0.937E-02 0.470E+01   0.212E-04 0.786E-05 -.824E-06
   -.548E+03 -.713E+03 -.847E+03   0.545E+03 0.709E+03 0.844E+03   0.309E+01 0.354E+01 0.283E+01   0.285E-05 -.141E-04 0.123E-04
   -.133E+03 -.122E+02 -.143E+03   0.113E+03 0.100E+02 0.146E+03   0.197E+02 0.196E+01 -.302E+01   0.649E-05 0.471E-06 0.564E-06
   -.444E+03 -.410E+02 -.564E+02   0.504E+03 0.470E+02 0.499E+02   -.593E+02 -.592E+01 0.643E+01   0.862E-05 -.307E-06 -.303E-05
 -----------------------------------------------------------------------------------------------
   0.479E+02 0.566E+01 0.431E+00   0.455E-12 0.355E-12 0.789E-12   -.479E+02 -.566E+01 -.430E+00   -.891E-05 -.360E-05 -.851E-05
 
 
 POSITION                                       TOTAL-FORCE (eV/Angst)
 -----------------------------------------------------------------------------------
      4.34829      6.36095      8.32086         0.195968     -0.281317      0.045876
      5.68234      8.19466      7.28884        -0.011216      0.443683      0.347137
      5.89061      4.34722      8.43037        -0.045081      0.056649      0.003219
      8.09907      7.65570      7.16317        -0.302738     -0.354138      0.514599
      8.20659      5.20719      7.95034         0.074503      0.208456     -0.071833
      6.66898      6.48543      9.19666         0.260358      0.443000     -0.137727
      6.20894      5.99321      6.70782         0.301761     -0.204393      0.211096
      3.42118      8.56633      8.17183        -0.083376      0.283780     -0.108233
      4.97564      8.20498      9.89218         0.465004     -0.090672     -0.357164
      5.32711     10.23180      8.50554        -0.108093     -0.037117      0.064027
      7.39628     10.01710      7.20849        -0.048176     -0.004452     -0.037306
      9.28219      7.11361      9.28943        -0.775998      0.043926     -0.455981
      7.27834      8.87803      9.27005        -0.041065     -0.446829     -0.135609
     11.03470      7.43722      9.63125        -0.131373     -0.173876      0.112062
     12.17630      7.55490      9.50874         0.249521      0.113298      0.005837
 -----------------------------------------------------------------------------------
    total drift:                                0.000497      0.002058      0.000252


--------------------------------------------------------------------------------------------------------



  FREE ENERGIE OF THE ION-ELECTRON SYSTEM (eV)
  ---------------------------------------------------
  free  energy   TOTEN  =       -48.93356115 eV

  energy  without entropy=      -48.94291190  energy(sigma->0) =      -48.93667807
 


--------------------------------------------------------------------------------------------------------


    POTLOK:  cpu time    1.1521: real time    1.1547


--------------------------------------------------------------------------------------------------------


     LOOP+:  cpu time  350.1551: real time  351.1899
    4ORBIT:  cpu time    0.0000: real time    0.0000

 total amount of memory used by VASP MPI-rank0   158680. kBytes
=======================================================================

   base      :      30000. kBytes
   nonl-proj :      12601. kBytes
   fftplans  :      27994. kBytes
   grid      :      74150. kBytes
   one-center:         93. kBytes
   wavefun   :      13842. kBytes
 
  
  
 General timing and accounting informations for this job:
 ========================================================
  
                  Total CPU time used (sec):      354.142
                            User time (sec):      342.252
                          System time (sec):       11.891
                         Elapsed time (sec):      355.215
  
                   Maximum memory used (kb):      281228.
                   Average memory used (kb):           0.
  
                          Minor page faults:       298611
                          Major page faults:            0
                 Voluntary context switches:          702
