<?xml version="1.0" encoding="ISO-8859-1"?>
<modeling>
 <generator>
  <i name="program" type="string">vasp </i>
  <i name="version" type="string">5.4.4.18Apr17-6-g9f103f2a35  </i>
  <i name="subversion" type="string">(build May 08 2019 13:49:07) complex            parallel </i>
  <i name="platform" type="string">LinuxIFC </i>
  <i name="date" type="string">2019 11 13 </i>
  <i name="time" type="string">11:22:26 </i>
 </generator>
 <incar>
  <i type="string" name="SYSTEM"> CuCO</i>
  <i type="int" name="ISTART">     0</i>
  <i type="string" name="PREC">accurate</i>
  <i type="string" name="ALGO"> Fast</i>
  <i type="int" name="ISPIN">     2</i>
  <i type="int" name="INIWAV">     1</i>
  <i type="int" name="NELM">   300</i>
  <i type="int" name="NELMIN">     3</i>
  <i type="int" name="IBRION">    -1</i>
  <i name="EDIFF">      0.00000010</i>
  <i name="EDIFFG">     -0.00100000</i>
  <i type="int" name="NSW">     0</i>
  <i type="int" name="ISYM">     0</i>
  <i name="ENCUT">    600.00000000</i>
  <i name="NUPDOWN">      1.00000000</i>
  <i type="logical" name="LREAL"> F  </i>
  <i type="int" name="ISMEAR">     1</i>
  <i name="SIGMA">      0.10000000</i>
  <i name="KSPACING">      0.50000000</i>
  <i type="logical" name="KGAMMA"> F  </i>
  <i type="logical" name="LWAVE"> F  </i>
  <i type="logical" name="LCHARG"> F  </i>
  <v type="int" name="KPOINT_BSE">    -1     0     0     0</v>
  <i type="int" name="NELM">   300</i>
  <i type="string" name="GGA"> PE</i>
 </incar>
 <structure name="primitive_cell" >
  <crystal>
   <varray name="basis" >
    <v>      15.00000000       0.00000000       0.00000000 </v>
    <v>       0.00000000      15.00000000       0.00000000 </v>
    <v>       0.00000000       0.00000000      15.00000000 </v>
   </varray>
   <i name="volume">   3375.00000000 </i>
   <varray name="rec_basis" >
    <v>       0.06666667       0.00000000       0.00000000 </v>
    <v>       0.00000000       0.06666667       0.00000000 </v>
    <v>       0.00000000       0.00000000       0.06666667 </v>
   </varray>
  </crystal>
  <varray name="positions" >
   <v>       0.29275267       0.41865467      -0.44608600 </v>
   <v>       0.39616600       0.29312333      -0.43609467 </v>
   <v>       0.22908933      -0.43091067      -0.45229200 </v>
   <v>       0.37590000      -0.45343867       0.49163267 </v>
   <v>       0.44773333       0.43432067      -0.38795467 </v>
   <v>       0.33445733      -0.45539867      -0.34469800 </v>
   <v>       0.41895800       0.39909000       0.44287267 </v>
   <v>      -0.45413533       0.34932733      -0.46834067 </v>
   <v>      -0.46873867      -0.49383867       0.47836000 </v>
   <v>       0.48708133      -0.40718600      -0.38077000 </v>
   <v>       0.35166667      -0.31766667      -0.43336400 </v>
   <v>       0.48323000      -0.33483933       0.47913200 </v>
   <v>      -0.37595400       0.48402600      -0.38879733 </v>
   <v>      -0.26335333       0.49132400      -0.34726600 </v>
   <v>      -0.18569333      -0.49900533      -0.34983133 </v>
  </varray>
 </structure>
 <varray name="primitive_index" >
  <v type="int" >        1 </v>
  <v type="int" >        3 </v>
  <v type="int" >        8 </v>
  <v type="int" >        2 </v>
  <v type="int" >        6 </v>
  <v type="int" >        9 </v>
  <v type="int" >        7 </v>
  <v type="int" >        5 </v>
  <v type="int" >        4 </v>
  <v type="int" >       13 </v>
  <v type="int" >       10 </v>
  <v type="int" >       11 </v>
  <v type="int" >       12 </v>
  <v type="int" >       14 </v>
  <v type="int" >       15 </v>
 </varray>
 <kpoints>
  <generation param="Monkhorst-Pack">
   <v type="int" name="divisions">       1        1        1 </v>
   <v name="usershift">      0.00000000       0.00000000       0.00000000 </v>
   <v name="genvec1">      1.00000000       0.00000000       0.00000000 </v>
   <v name="genvec2">      0.00000000       1.00000000       0.00000000 </v>
   <v name="genvec3">      0.00000000       0.00000000       1.00000000 </v>
   <v name="shift">      0.00000000       0.00000000       0.00000000 </v>
  </generation>
  <varray name="kpointlist" >
   <v>       0.00000000       0.00000000       0.00000000 </v>
  </varray>
  <varray name="weights" >
   <v>       1.00000000 </v>
  </varray>
 </kpoints>
 <parameters>
  <separator name="general" >
   <i type="string" name="SYSTEM">CuCO</i>
   <i type="logical" name="LCOMPAT"> F  </i>
  </separator>
  <separator name="electronic" >
   <i type="string" name="PREC">accura</i>
   <i name="ENMAX">    600.00000000</i>
   <i name="ENAUG">    644.87300000</i>
   <i name="EDIFF">      0.00000010</i>
   <i type="int" name="IALGO">    68</i>
   <i type="int" name="IWAVPR">    10</i>
   <i type="int" name="NBANDS">    92</i>
   <i name="NELECT">    153.00000000</i>
   <i type="int" name="TURBO">     0</i>
   <i type="int" name="IRESTART">     0</i>
   <i type="int" name="NREBOOT">     0</i>
   <i type="int" name="NMIN">     0</i>
   <i name="EREF">      0.00000000</i>
   <separator name="electronic smearing" >
    <i type="int" name="ISMEAR">     1</i>
    <i name="SIGMA">      0.10000000</i>
    <i name="KSPACING">      0.50000000</i>
    <i type="logical" name="KGAMMA"> F  </i>
   </separator>
   <separator name="electronic projectors" >
    <i type="logical" name="LREAL"> F  </i>
    <v name="ROPT">      0.00000000      0.00000000      0.00000000</v>
    <i type="int" name="LMAXPAW">  -100</i>
    <i type="int" name="LMAXMIX">     2</i>
    <i type="logical" name="NLSPLINE"> F  </i>
   </separator>
   <separator name="electronic startup" >
    <i type="int" name="ISTART">     0</i>
    <i type="int" name="ICHARG">     2</i>
    <i type="int" name="INIWAV">     1</i>
   </separator>
   <separator name="electronic spin" >
    <i type="int" name="ISPIN">     2</i>
    <i type="logical" name="LNONCOLLINEAR"> F  </i>
    <v name="MAGMOM">      0.06666667      0.06666667      0.06666667      0.06666667      0.06666667      0.06666667      0.06666667      0.06666667      0.06666667      0.06666667      0.06666667      0.06666667      0.06666667      0.06666667      0.06666667</v>
    <i name="NUPDOWN">      1.00000000</i>
    <i type="logical" name="LSORBIT"> F  </i>
    <v name="SAXIS">      0.00000000      0.00000000      1.00000000</v>
    <i type="logical" name="LSPIRAL"> F  </i>
    <v name="QSPIRAL">      0.00000000      0.00000000      0.00000000</v>
    <i type="logical" name="LZEROZ"> F  </i>
   </separator>
   <separator name="electronic exchange-correlation" >
    <i type="logical" name="LASPH"> F  </i>
    <i type="logical" name="LMETAGGA"> F  </i>
   </separator>
   <separator name="electronic convergence" >
    <i type="int" name="NELM">   300</i>
    <i type="int" name="NELMDL">    -5</i>
    <i type="int" name="NELMIN">     3</i>
    <i name="ENINI">    600.00000000</i>
    <separator name="electronic convergence detail" >
     <i type="logical" name="LDIAG"> T  </i>
     <i type="logical" name="LSUBROT"> F  </i>
     <i name="WEIMIN">      0.00000000</i>
     <i name="EBREAK">      0.00000000</i>
     <i name="DEPER">      0.30000000</i>
     <i type="int" name="NRMM">     4</i>
     <i name="TIME">      0.40000000</i>
    </separator>
   </separator>
   <separator name="electronic mixer" >
    <i name="AMIX">      0.40000000</i>
    <i name="BMIX">      1.00000000</i>
    <i name="AMIN">      0.10000000</i>
    <i name="AMIX_MAG">      1.60000000</i>
    <i name="BMIX_MAG">      1.00000000</i>
    <separator name="electronic mixer details" >
     <i type="int" name="IMIX">     4</i>
     <i type="logical" name="MIXFIRST"> F  </i>
     <i type="int" name="MAXMIX">   -45</i>
     <i name="WC">    100.00000000</i>
     <i type="int" name="INIMIX">     1</i>
     <i type="int" name="MIXPRE">     1</i>
     <i type="int" name="MREMOVE">     5</i>
    </separator>
   </separator>
   <separator name="electronic dipolcorrection" >
    <i type="logical" name="LDIPOL"> F  </i>
    <i type="logical" name="LMONO"> F  </i>
    <i type="int" name="IDIPOL">     0</i>
    <i name="EPSILON">      1.00000000</i>
    <v name="DIPOL">   -100.00000000   -100.00000000   -100.00000000</v>
    <i name="EFIELD">      0.00000000</i>
   </separator>
  </separator>
  <separator name="grids" >
   <i type="int" name="NGX">   120</i>
   <i type="int" name="NGY">   120</i>
   <i type="int" name="NGZ">   120</i>
   <i type="int" name="NGXF">   240</i>
   <i type="int" name="NGYF">   240</i>
   <i type="int" name="NGZF">   240</i>
   <i type="logical" name="ADDGRID"> F  </i>
  </separator>
  <separator name="ionic" >
   <i type="int" name="NSW">     0</i>
   <i type="int" name="IBRION">    -1</i>
   <i type="int" name="MDALGO">     0</i>
   <i type="int" name="ISIF">     2</i>
   <i name="PSTRESS">      0.00000000</i>
   <i name="EDIFFG">     -0.00100000</i>
   <i type="int" name="NFREE">     0</i>
   <i name="POTIM">      0.50000000</i>
   <i name="SMASS">     -3.00000000</i>
   <i name="SCALEE">      1.00000000</i>
  </separator>
  <separator name="ionic md" >
   <i name="TEBEG">      0.00010000</i>
   <i name="TEEND">      0.00010000</i>
   <i type="int" name="NBLOCK">     1</i>
   <i type="int" name="KBLOCK">     1</i>
   <i type="int" name="NPACO">   256</i>
   <i name="APACO">     16.00000000</i>
  </separator>
  <separator name="symmetry" >
   <i type="int" name="ISYM">     0</i>
   <i name="SYMPREC">      0.00001000</i>
  </separator>
  <separator name="dos" >
   <i type="int" name="LORBIT">     0</i>
   <v name="RWIGS">     -1.00000000     -1.00000000     -1.00000000</v>
   <i type="int" name="NEDOS">   301</i>
   <i name="EMIN">     10.00000000</i>
   <i name="EMAX">    -10.00000000</i>
   <i name="EFERMI">      0.00000000</i>
  </separator>
  <separator name="writing" >
   <i type="int" name="NWRITE">     2</i>
   <i type="logical" name="LWAVE"> F  </i>
   <i type="logical" name="LDOWNSAMPLE"> F  </i>
   <i type="logical" name="LCHARG"> F  </i>
   <i type="logical" name="LPARD"> F  </i>
   <i type="logical" name="LVTOT"> F  </i>
   <i type="logical" name="LVHAR"> F  </i>
   <i type="logical" name="LELF"> F  </i>
   <i type="logical" name="LOPTICS"> F  </i>
   <v name="STM">      0.00000000      0.00000000      0.00000000      0.00000000      0.00000000      0.00000000      0.00000000</v>
  </separator>
  <separator name="performance" >
   <i type="int" name="NPAR">     4</i>
   <i type="int" name="NSIM">     4</i>
   <i type="int" name="NBLK">    -1</i>
   <i type="logical" name="LPLANE"> T  </i>
   <i type="logical" name="LSCALAPACK"> T  </i>
   <i type="logical" name="LSCAAWARE"> F  </i>
   <i type="logical" name="LSCALU"> F  </i>
   <i type="logical" name="LASYNC"> F  </i>
   <i type="logical" name="LORBITALREAL"> F  </i>
  </separator>
  <separator name="miscellaneous" >
   <i type="int" name="IDIOT">     3</i>
   <i type="int" name="ISPECIAL">     0</i>
   <i type="logical" name="LMUSIC"> F  </i>
   <v name="POMASS">     63.54600000     12.01100000     16.00000000</v>
   <v name="DARWINR">      0.00000000      0.00000000      0.00000000</v>
   <v name="DARWINV">      1.00000000      1.00000000      1.00000000</v>
   <i type="logical" name="LCORR"> T  </i>
  </separator>
  <i type="logical" name="GGA_COMPAT"> T  </i>
  <i type="logical" name="LBERRY"> F  </i>
  <i type="int" name="ICORELEVEL">     0</i>
  <i type="logical" name="LDAU"> F  </i>
  <i type="int" name="I_CONSTRAINED_M">     0</i>
  <separator name="electronic exchange-correlation" >
   <i type="string" name="GGA">PE</i>
   <i type="int" name="VOSKOWN">     0</i>
   <i type="logical" name="LHFCALC"> F  </i>
   <i type="string" name="PRECFOCK"></i>
   <i type="logical" name="LSYMGRAD"> F  </i>
   <i type="logical" name="LHFONE"> F  </i>
   <i type="logical" name="LRHFCALC"> F  </i>
   <i type="logical" name="LTHOMAS"> F  </i>
   <i type="logical" name="LMODELHF"> F  </i>
   <i name="ENCUT4O">     -1.00000000</i>
   <i type="int" name="EXXOEP">     0</i>
   <i type="int" name="FOURORBIT">     0</i>
   <i name="AEXX">      0.00000000</i>
   <i name="HFALPHA">      0.00000000</i>
   <i name="MCALPHA">      0.00000000</i>
   <i name="ALDAX">      1.00000000</i>
   <i name="AGGAX">      1.00000000</i>
   <i name="ALDAC">      1.00000000</i>
   <i name="AGGAC">      1.00000000</i>
   <i type="int" name="NKREDX">     1</i>
   <i type="int" name="NKREDY">     1</i>
   <i type="int" name="NKREDZ">     1</i>
   <i type="logical" name="SHIFTRED"> F  </i>
   <i type="logical" name="ODDONLY"> F  </i>
   <i type="logical" name="EVENONLY"> F  </i>
   <i type="int" name="LMAXFOCK">     0</i>
   <i type="int" name="NMAXFOCKAE">     0</i>
   <i type="logical" name="LFOCKAEDFT"> F  </i>
   <i name="HFSCREEN">      0.00000000</i>
   <i name="HFSCREENC">      0.00000000</i>
   <i type="int" name="NBANDSGWLOW">     0</i>
  </separator>
  <separator name="vdW DFT" >
   <i type="logical" name="LUSE_VDW"> F  </i>
   <i name="Zab_VDW">     -0.84910000</i>
   <i name="PARAM1">      0.12340000</i>
   <i name="PARAM2">      1.00000000</i>
   <i name="PARAM3">      0.00000000</i>
  </separator>
  <separator name="model GW" >
   <i type="int" name="MODEL_GW">     0</i>
   <i name="MODEL_EPS0">    135.00000000</i>
   <i name="MODEL_ALPHA">      1.00000000</i>
  </separator>
  <separator name="linear response parameters" >
   <i type="logical" name="LEPSILON"> F  </i>
   <i type="logical" name="LRPA"> F  </i>
   <i type="logical" name="LNABLA"> F  </i>
   <i type="logical" name="LVEL"> F  </i>
   <i type="int" name="KINTER">     0</i>
   <i name="CSHIFT">      0.10000000</i>
   <i name="OMEGAMAX">     -1.00000000</i>
   <i name="DEG_THRESHOLD">      0.00200000</i>
   <i name="RTIME">     -0.10000000</i>
   <i name="WPLASMAI">      0.00000000</i>
   <v name="DFIELD">      0.00000000      0.00000000      0.00000000</v>
   <v name="WPLASMA">      0.00000000      0.00000000      0.00000000      0.00000000      0.00000000      0.00000000      0.00000000      0.00000000      0.00000000</v>
  </separator>
  <separator name="orbital magnetization" >
   <i type="logical" name="NUCIND"> F  </i>
   <v name="MAGPOS">      0.00000000      0.00000000      0.00000000</v>
   <i type="logical" name="LNICSALL"> T  </i>
   <i type="logical" name="ORBITALMAG"> F  </i>
   <i type="logical" name="LMAGBLOCH"> F  </i>
   <i type="logical" name="LCHIMAG"> F  </i>
   <i type="logical" name="LGAUGE"> T  </i>
   <i type="int" name="MAGATOM">     0</i>
   <v name="MAGDIPOL">      0.00000000      0.00000000      0.00000000</v>
   <v name="AVECCONST">      0.00000000      0.00000000      0.00000000</v>
  </separator>
  <separator name="response functions" >
   <i type="logical" name="LADDER"> F  </i>
   <i type="logical" name="LRPAFORCE"> F  </i>
   <i type="logical" name="LFXC"> F  </i>
   <i type="logical" name="LHARTREE"> T  </i>
   <i type="int" name="IBSE">     0</i>
   <v type="int" name="KPOINT">    -1     0     0     0</v>
   <i type="logical" name="LTCTE"> F  </i>
   <i type="logical" name="LTETE"> F  </i>
   <i type="logical" name="LTRIPLET"> F  </i>
   <i type="logical" name="LFXCEPS"> F  </i>
   <i type="logical" name="LFXHEG"> F  </i>
   <i type="int" name="NATURALO">     2</i>
   <i type="logical" name="L2ORDER"> F  </i>
   <i type="logical" name="LMP2LT"> F  </i>
   <i type="logical" name="LUSEW"> F  </i>
   <i name="ENCUTGW">     -2.00000000</i>
   <i name="ENCUTGWSOFT">     -2.00000000</i>
   <i name="ENCUTLF">     -1.00000000</i>
   <i type="int" name="LMAXMP2">    -1</i>
   <i name="SCISSOR">      0.00000000</i>
   <i type="int" name="NOMEGA">     0</i>
   <i type="int" name="NOMEGAR">     0</i>
   <i type="int" name="NBANDSGW">    -1</i>
   <i type="int" name="NBANDSO">    -1</i>
   <i type="int" name="NBANDSV">    -1</i>
   <i type="int" name="NELM">   300</i>
   <i type="int" name="NELMHF">     1</i>
   <i type="int" name="DIM">     3</i>
   <i type="int" name="ANTIRES">     0</i>
   <i name="OMEGAMAX">    -30.00000000</i>
   <i name="OMEGAMIN">    -30.00000000</i>
   <i name="OMEGATL">   -200.00000000</i>
   <i type="int" name="OMEGAGRID">   140</i>
   <i name="CSHIFT">     -0.10000000</i>
   <i type="logical" name="SELFENERGY"> F  </i>
   <i type="logical" name="LSPECTRAL"> F  </i>
   <i type="logical" name="LSPECTRALGW"> F  </i>
   <i type="logical" name="LSINGLES"> F  </i>
   <i type="logical" name="LFERMIGW"> F  </i>
   <i type="logical" name="ODDONLYGW"> F  </i>
   <i type="logical" name="EVENONLYGW"> F  </i>
   <i type="int" name="NKREDLFX">     1</i>
   <i type="int" name="NKREDLFY">     1</i>
   <i type="int" name="NKREDLFZ">     1</i>
   <i type="int" name="MAXMEM">  2800</i>
   <i type="int" name="TELESCOPE">     0</i>
   <i type="int" name="TAUPAR">     1</i>
   <i type="int" name="OMEGAPAR">    -1</i>
   <i name="LAMBDA">      1.00000000</i>
  </separator>
  <separator name="External order field" >
   <i name="OFIELD_KAPPA">      0.00000000</i>
   <v name="OFIELD_K">      0.00000000      0.00000000      0.00000000</v>
   <i name="OFIELD_Q6_NEAR">      0.00000000</i>
   <i name="OFIELD_Q6_FAR">      0.00000000</i>
   <i name="OFIELD_A">      0.00000000</i>
  </separator>
 </parameters>
 <atominfo>
  <atoms>      15 </atoms>
  <types>       3 </types>
  <array name="atoms" >
   <dimension dim="1">ion</dimension>
   <field type="string">element</field>
   <field type="int">atomtype</field>
   <set>
    <rc><c>Cu</c><c>   1</c></rc>
    <rc><c>Cu</c><c>   1</c></rc>
    <rc><c>Cu</c><c>   1</c></rc>
    <rc><c>Cu</c><c>   1</c></rc>
    <rc><c>Cu</c><c>   1</c></rc>
    <rc><c>Cu</c><c>   1</c></rc>
    <rc><c>Cu</c><c>   1</c></rc>
    <rc><c>Cu</c><c>   1</c></rc>
    <rc><c>Cu</c><c>   1</c></rc>
    <rc><c>Cu</c><c>   1</c></rc>
    <rc><c>Cu</c><c>   1</c></rc>
    <rc><c>Cu</c><c>   1</c></rc>
    <rc><c>Cu</c><c>   1</c></rc>
    <rc><c>C </c><c>   2</c></rc>
    <rc><c>O </c><c>   3</c></rc>
   </set>
  </array>
  <array name="atomtypes" >
   <dimension dim="1">type</dimension>
   <field type="int">atomspertype</field>
   <field type="string">element</field>
   <field>mass</field>
   <field>valence</field>
   <field type="string">pseudopotential</field>
   <set>
    <rc><c>  13</c><c>Cu</c><c>     63.54600000</c><c>     11.00000000</c><c>  PAW_PBE Cu 22Jun2005                  </c></rc>
    <rc><c>   1</c><c>C </c><c>     12.01100000</c><c>      4.00000000</c><c>  PAW_PBE C 08Apr2002                   </c></rc>
    <rc><c>   1</c><c>O </c><c>     16.00000000</c><c>      6.00000000</c><c>  PAW_PBE O 08Apr2002                   </c></rc>
   </set>
  </array>
 </atominfo>
 <structure name="initialpos" >
  <crystal>
   <varray name="basis" >
    <v>      15.00000000       0.00000000       0.00000000 </v>
    <v>       0.00000000      15.00000000       0.00000000 </v>
    <v>       0.00000000       0.00000000      15.00000000 </v>
   </varray>
   <i name="volume">   3375.00000000 </i>
   <varray name="rec_basis" >
    <v>       0.06666667       0.00000000       0.00000000 </v>
    <v>       0.00000000       0.06666667       0.00000000 </v>
    <v>       0.00000000       0.00000000       0.06666667 </v>
   </varray>
  </crystal>
  <varray name="positions" >
   <v>       0.29275267       0.41865467       0.55391400 </v>
   <v>       0.37590000       0.54656133       0.49163267 </v>
   <v>       0.39616600       0.29312333       0.56390533 </v>
   <v>       0.53126133       0.50616133       0.47836000 </v>
   <v>       0.54586467       0.34932733       0.53165933 </v>
   <v>       0.44773333       0.43432067       0.61204533 </v>
   <v>       0.41895800       0.39909000       0.44287267 </v>
   <v>       0.22908933       0.56908933       0.54770800 </v>
   <v>       0.33445733       0.54460133       0.65530200 </v>
   <v>       0.35166667       0.68233333       0.56663600 </v>
   <v>       0.48323000       0.66516067       0.47913200 </v>
   <v>       0.62404600       0.48402600       0.61120267 </v>
   <v>       0.48708133       0.59281400       0.61923000 </v>
   <v>       0.73664667       0.49132400       0.65273400 </v>
   <v>       0.81430667       0.50099467       0.65016867 </v>
  </varray>
 </structure>
 <calculation>
  <scstep>
   <time name="dav">    7.52    7.52</time>
   <time name="total">    8.71    8.72</time>
   <energy>
    <i name="alphaZ">     41.16232785 </i>
    <i name="ewald">  16575.44210500 </i>
    <i name="hartreedc"> -33594.81819306 </i>
    <i name="XCdc">    623.71245658 </i>
    <i name="pawpsdc">  16421.75059358 </i>
    <i name="pawaedc"> -17800.06104309 </i>
    <i name="eentropy">      0.00774598 </i>
    <i name="bandstr">    190.00269522 </i>
    <i name="atom">  18662.21924712 </i>
    <i name="e_fr_energy">   1119.41793518 </i>
    <i name="e_wo_entrp">   1119.41018920 </i>
    <i name="e_0_energy">   1119.41535319 </i>
   </energy>
  </scstep>
  <scstep>
   <time name="dav">    7.37    7.37</time>
   <time name="total">    7.37    7.37</time>
   <energy>
    <i name="e_fr_energy">     86.59711836 </i>
    <i name="e_wo_entrp">     86.58642609 </i>
    <i name="e_0_energy">     86.59355427 </i>
   </energy>
  </scstep>
  <scstep>
   <time name="dav">   11.40   11.41</time>
   <time name="total">   11.40   11.41</time>
   <energy>
    <i name="e_fr_energy">    -33.35096902 </i>
    <i name="e_wo_entrp">    -33.36054240 </i>
    <i name="e_0_energy">    -33.35416015 </i>
   </energy>
  </scstep>
  <scstep>
   <time name="dav">   10.18   10.19</time>
   <time name="total">   10.18   10.19</time>
   <energy>
    <i name="e_fr_energy">    -55.85024530 </i>
    <i name="e_wo_entrp">    -55.85920514 </i>
    <i name="e_0_energy">    -55.85323191 </i>
   </energy>
  </scstep>
  <scstep>
   <time name="dav">   12.05   12.05</time>
   <time name="total">   12.76   12.77</time>
   <energy>
    <i name="e_fr_energy">    -57.62837288 </i>
    <i name="e_wo_entrp">    -57.63721438 </i>
    <i name="e_0_energy">    -57.63132005 </i>
   </energy>
  </scstep>
  <scstep>
   <time name="diag">    1.10    1.10</time>
   <time name="diis">    7.17    7.19</time>
   <time name="orth">    0.06    0.06</time>
   <time name="total">   10.16   10.19</time>
   <energy>
    <i name="e_fr_energy">    -57.13405493 </i>
    <i name="e_wo_entrp">    -57.14340249 </i>
    <i name="e_0_energy">    -57.13717078 </i>
   </energy>
  </scstep>
  <scstep>
   <time name="diag">    1.10    1.10</time>
   <time name="diis">    7.26    7.26</time>
   <time name="orth">    0.06    0.06</time>
   <time name="total">   10.26   10.27</time>
   <energy>
    <i name="e_fr_energy">    -49.35290921 </i>
    <i name="e_wo_entrp">    -49.36222571 </i>
    <i name="e_0_energy">    -49.35601471 </i>
   </energy>
  </scstep>
  <scstep>
   <time name="diag">    1.10    1.10</time>
   <time name="diis">    7.11    7.12</time>
   <time name="orth">    0.06    0.06</time>
   <time name="total">   10.11   10.12</time>
   <energy>
    <i name="e_fr_energy">    -49.05116942 </i>
    <i name="e_wo_entrp">    -49.06026892 </i>
    <i name="e_0_energy">    -49.05420258 </i>
   </energy>
  </scstep>
  <scstep>
   <time name="diag">    1.10    1.10</time>
   <time name="diis">    7.48    7.48</time>
   <time name="orth">    0.06    0.06</time>
   <time name="total">   10.48   10.49</time>
   <energy>
    <i name="e_fr_energy">    -49.01563462 </i>
    <i name="e_wo_entrp">    -49.02454529 </i>
    <i name="e_0_energy">    -49.01860485 </i>
   </energy>
  </scstep>
  <scstep>
   <time name="diag">    1.10    1.10</time>
   <time name="diis">    7.17    7.18</time>
   <time name="orth">    0.06    0.06</time>
   <time name="total">   10.18   10.19</time>
   <energy>
    <i name="e_fr_energy">    -48.94705250 </i>
    <i name="e_wo_entrp">    -48.95604690 </i>
    <i name="e_0_energy">    -48.95005063 </i>
   </energy>
  </scstep>
  <scstep>
   <time name="diag">    1.10    1.10</time>
   <time name="diis">    7.10    7.11</time>
   <time name="orth">    0.05    0.05</time>
   <time name="total">   10.11   10.12</time>
   <energy>
    <i name="e_fr_energy">    -48.93932884 </i>
    <i name="e_wo_entrp">    -48.94822978 </i>
    <i name="e_0_energy">    -48.94229582 </i>
   </energy>
  </scstep>
  <scstep>
   <time name="diag">    1.10    1.10</time>
   <time name="diis">    7.09    7.09</time>
   <time name="orth">    0.06    0.06</time>
   <time name="total">   10.09   10.10</time>
   <energy>
    <i name="e_fr_energy">    -48.93571248 </i>
    <i name="e_wo_entrp">    -48.94466434 </i>
    <i name="e_0_energy">    -48.93869643 </i>
   </energy>
  </scstep>
  <scstep>
   <time name="diag">    1.10    1.10</time>
   <time name="diis">    7.48    7.48</time>
   <time name="orth">    0.06    0.06</time>
   <time name="total">   10.49   10.49</time>
   <energy>
    <i name="e_fr_energy">    -48.93443672 </i>
    <i name="e_wo_entrp">    -48.94336187 </i>
    <i name="e_0_energy">    -48.93741177 </i>
   </energy>
  </scstep>
  <scstep>
   <time name="diag">    1.10    1.10</time>
   <time name="diis">    7.18    7.19</time>
   <time name="orth">    0.06    0.06</time>
   <time name="total">   10.19   10.20</time>
   <energy>
    <i name="e_fr_energy">    -48.93534915 </i>
    <i name="e_wo_entrp">    -48.94427086 </i>
    <i name="e_0_energy">    -48.93832306 </i>
   </energy>
  </scstep>
  <scstep>
   <time name="diag">    1.10    1.10</time>
   <time name="diis">    6.90    6.90</time>
   <time name="orth">    0.05    0.05</time>
   <time name="total">    9.91    9.92</time>
   <energy>
    <i name="e_fr_energy">    -48.93634132 </i>
    <i name="e_wo_entrp">    -48.94525893 </i>
    <i name="e_0_energy">    -48.93931386 </i>
   </energy>
  </scstep>
  <scstep>
   <time name="diag">    1.10    1.10</time>
   <time name="diis">    6.85    6.85</time>
   <time name="orth">    0.06    0.06</time>
   <time name="total">    9.87    9.87</time>
   <energy>
    <i name="e_fr_energy">    -48.93767403 </i>
    <i name="e_wo_entrp">    -48.94658752 </i>
    <i name="e_0_energy">    -48.94064519 </i>
   </energy>
  </scstep>
  <scstep>
   <time name="diag">    1.10    1.10</time>
   <time name="diis">    7.12    7.12</time>
   <time name="orth">    0.06    0.06</time>
   <time name="total">   10.13   10.14</time>
   <energy>
    <i name="e_fr_energy">    -48.93928981 </i>
    <i name="e_wo_entrp">    -48.94820507 </i>
    <i name="e_0_energy">    -48.94226156 </i>
   </energy>
  </scstep>
  <scstep>
   <time name="diag">    1.10    1.10</time>
   <time name="diis">    6.64    6.65</time>
   <time name="orth">    0.06    0.06</time>
   <time name="total">    9.66    9.66</time>
   <energy>
    <i name="e_fr_energy">    -48.94033484 </i>
    <i name="e_wo_entrp">    -48.94924762 </i>
    <i name="e_0_energy">    -48.94330576 </i>
   </energy>
  </scstep>
  <scstep>
   <time name="diag">    1.10    1.10</time>
   <time name="diis">    7.07    7.08</time>
   <time name="orth">    0.06    0.06</time>
   <time name="total">   10.09   10.10</time>
   <energy>
    <i name="e_fr_energy">    -48.94095310 </i>
    <i name="e_wo_entrp">    -48.94986536 </i>
    <i name="e_0_energy">    -48.94392385 </i>
   </energy>
  </scstep>
  <scstep>
   <time name="diag">    1.10    1.10</time>
   <time name="diis">    7.06    7.07</time>
   <time name="orth">    0.06    0.06</time>
   <time name="total">   10.08   10.09</time>
   <energy>
    <i name="e_fr_energy">    -48.94161987 </i>
    <i name="e_wo_entrp">    -48.95053319 </i>
    <i name="e_0_energy">    -48.94459098 </i>
   </energy>
  </scstep>
  <scstep>
   <time name="diag">    1.10    1.10</time>
   <time name="diis">    7.02    7.03</time>
   <time name="orth">    0.06    0.06</time>
   <time name="total">   10.05   10.06</time>
   <energy>
    <i name="e_fr_energy">    -48.94201393 </i>
    <i name="e_wo_entrp">    -48.95092856 </i>
    <i name="e_0_energy">    -48.94498548 </i>
   </energy>
  </scstep>
  <scstep>
   <time name="diag">    1.10    1.10</time>
   <time name="diis">    6.80    6.80</time>
   <time name="orth">    0.06    0.06</time>
   <time name="total">    9.82    9.83</time>
   <energy>
    <i name="e_fr_energy">    -48.94229948 </i>
    <i name="e_wo_entrp">    -48.95121378 </i>
    <i name="e_0_energy">    -48.94527091 </i>
   </energy>
  </scstep>
  <scstep>
   <time name="diag">    1.10    1.10</time>
   <time name="diis">    6.94    6.94</time>
   <time name="orth">    0.06    0.06</time>
   <time name="total">    9.96    9.97</time>
   <energy>
    <i name="e_fr_energy">    -48.94247256 </i>
    <i name="e_wo_entrp">    -48.95138665 </i>
    <i name="e_0_energy">    -48.94544392 </i>
   </energy>
  </scstep>
  <scstep>
   <time name="diag">    1.10    1.10</time>
   <time name="diis">    6.87    6.87</time>
   <time name="orth">    0.06    0.06</time>
   <time name="total">    9.90    9.91</time>
   <energy>
    <i name="e_fr_energy">    -48.94255753 </i>
    <i name="e_wo_entrp">    -48.95147141 </i>
    <i name="e_0_energy">    -48.94552882 </i>
   </energy>
  </scstep>
  <scstep>
   <time name="diag">    1.10    1.10</time>
   <time name="diis">    6.70    6.71</time>
   <time name="orth">    0.06    0.06</time>
   <time name="total">    9.73    9.74</time>
   <energy>
    <i name="e_fr_energy">    -48.94263411 </i>
    <i name="e_wo_entrp">    -48.95154813 </i>
    <i name="e_0_energy">    -48.94560545 </i>
   </energy>
  </scstep>
  <scstep>
   <time name="diag">    1.10    1.10</time>
   <time name="diis">    6.13    6.14</time>
   <time name="orth">    0.05    0.05</time>
   <time name="total">    9.16    9.17</time>
   <energy>
    <i name="e_fr_energy">    -48.94266911 </i>
    <i name="e_wo_entrp">    -48.95158313 </i>
    <i name="e_0_energy">    -48.94564045 </i>
   </energy>
  </scstep>
  <scstep>
   <time name="diag">    1.10    1.10</time>
   <time name="diis">    5.47    5.47</time>
   <time name="orth">    0.05    0.05</time>
   <time name="total">    8.50    8.50</time>
   <energy>
    <i name="e_fr_energy">    -48.94267762 </i>
    <i name="e_wo_entrp">    -48.95159163 </i>
    <i name="e_0_energy">    -48.94564896 </i>
   </energy>
  </scstep>
  <scstep>
   <time name="diag">    1.10    1.10</time>
   <time name="diis">    4.36    4.36</time>
   <time name="orth">    0.05    0.05</time>
   <time name="total">    7.39    7.39</time>
   <energy>
    <i name="e_fr_energy">    -48.94268491 </i>
    <i name="e_wo_entrp">    -48.95159896 </i>
    <i name="e_0_energy">    -48.94565626 </i>
   </energy>
  </scstep>
  <scstep>
   <time name="diag">    1.10    1.10</time>
   <time name="diis">    4.12    4.13</time>
   <time name="orth">    0.06    0.06</time>
   <time name="total">    7.17    7.17</time>
   <energy>
    <i name="e_fr_energy">    -48.94269009 </i>
    <i name="e_wo_entrp">    -48.95160417 </i>
    <i name="e_0_energy">    -48.94566145 </i>
   </energy>
  </scstep>
  <scstep>
   <time name="diag">    1.10    1.10</time>
   <time name="diis">    4.58    4.59</time>
   <time name="orth">    0.05    0.05</time>
   <time name="total">    7.63    7.64</time>
   <energy>
    <i name="e_fr_energy">    -48.94269143 </i>
    <i name="e_wo_entrp">    -48.95160553 </i>
    <i name="e_0_energy">    -48.94566280 </i>
   </energy>
  </scstep>
  <scstep>
   <time name="diag">    1.10    1.10</time>
   <time name="diis">    4.40    4.40</time>
   <time name="orth">    0.06    0.06</time>
   <time name="total">    7.45    7.46</time>
   <energy>
    <i name="e_fr_energy">    -48.94269243 </i>
    <i name="e_wo_entrp">    -48.95160653 </i>
    <i name="e_0_energy">    -48.94566380 </i>
   </energy>
  </scstep>
  <scstep>
   <time name="diag">    1.10    1.10</time>
   <time name="diis">    4.31    4.34</time>
   <time name="orth">    0.05    0.05</time>
   <time name="total">    7.38    7.41</time>
   <energy>
    <i name="e_fr_energy">    -48.94269328 </i>
    <i name="e_wo_entrp">    -48.95160739 </i>
    <i name="e_0_energy">    -48.94566465 </i>
   </energy>
  </scstep>
  <scstep>
   <time name="diag">    1.10    1.10</time>
   <time name="diis">    4.57    4.57</time>
   <time name="orth">    0.05    0.05</time>
   <time name="total">    7.65    7.66</time>
   <energy>
    <i name="e_fr_energy">    -48.94269374 </i>
    <i name="e_wo_entrp">    -48.95160784 </i>
    <i name="e_0_energy">    -48.94566511 </i>
   </energy>
  </scstep>
  <scstep>
   <time name="diag">    1.11    1.11</time>
   <time name="diis">    3.78    3.78</time>
   <time name="orth">    0.05    0.05</time>
   <time name="total">    6.87    6.88</time>
   <energy>
    <i name="e_fr_energy">    -48.94269407 </i>
    <i name="e_wo_entrp">    -48.95160816 </i>
    <i name="e_0_energy">    -48.94566543 </i>
   </energy>
  </scstep>
  <scstep>
   <time name="diag">    1.11    1.11</time>
   <time name="diis">    3.57    3.58</time>
   <time name="orth">    0.06    0.06</time>
   <time name="total">    6.67    6.67</time>
   <energy>
    <i name="e_fr_energy">    -48.94269432 </i>
    <i name="e_wo_entrp">    -48.95160842 </i>
    <i name="e_0_energy">    -48.94566569 </i>
   </energy>
  </scstep>
  <scstep>
   <time name="diag">    1.10    1.10</time>
   <time name="diis">    3.47    3.47</time>
   <time name="orth">    0.05    0.05</time>
   <time name="total">    6.57    6.57</time>
   <energy>
    <i name="e_fr_energy">    -48.94269459 </i>
    <i name="e_wo_entrp">    -48.95160869 </i>
    <i name="e_0_energy">    -48.94566596 </i>
   </energy>
  </scstep>
  <scstep>
   <time name="diag">    1.11    1.11</time>
   <time name="diis">    3.46    3.46</time>
   <time name="orth">    0.05    0.05</time>
   <time name="total">    5.80    5.80</time>
   <energy>
    <i name="alphaZ">     41.16232785 </i>
    <i name="ewald">  16575.44210500 </i>
    <i name="hartreedc"> -33549.28650319 </i>
    <i name="XCdc">    615.61392316 </i>
    <i name="pawpsdc">  17668.23378804 </i>
    <i name="pawaedc"> -19067.56425248 </i>
    <i name="eentropy">      0.00891410 </i>
    <i name="bandstr">   -994.77224427 </i>
    <i name="atom">  18662.21924712 </i>
    <i name="e_fr_energy">    -48.94269468 </i>
    <i name="e_wo_entrp">    -48.95160878 </i>
    <i name="e_0_energy">    -48.94566604 </i>
   </energy>
  </scstep>
  <structure>
   <crystal>
    <varray name="basis" >
     <v>      15.00000000       0.00000000       0.00000000 </v>
     <v>       0.00000000      15.00000000       0.00000000 </v>
     <v>       0.00000000       0.00000000      15.00000000 </v>
    </varray>
    <i name="volume">   3375.00000000 </i>
    <varray name="rec_basis" >
     <v>       0.06666667       0.00000000       0.00000000 </v>
     <v>       0.00000000       0.06666667       0.00000000 </v>
     <v>       0.00000000       0.00000000       0.06666667 </v>
    </varray>
   </crystal>
   <varray name="positions" >
    <v>       0.29275267       0.41865467       0.55391400 </v>
    <v>       0.37590000       0.54656133       0.49163267 </v>
    <v>       0.39616600       0.29312333       0.56390533 </v>
    <v>       0.53126133       0.50616133       0.47836000 </v>
    <v>       0.54586467       0.34932733       0.53165933 </v>
    <v>       0.44773333       0.43432067       0.61204533 </v>
    <v>       0.41895800       0.39909000       0.44287267 </v>
    <v>       0.22908933       0.56908933       0.54770800 </v>
    <v>       0.33445733       0.54460133       0.65530200 </v>
    <v>       0.35166667       0.68233333       0.56663600 </v>
    <v>       0.48323000       0.66516067       0.47913200 </v>
    <v>       0.62404600       0.48402600       0.61120267 </v>
    <v>       0.48708133       0.59281400       0.61923000 </v>
    <v>       0.73664667       0.49132400       0.65273400 </v>
    <v>       0.81430667       0.50099467       0.65016867 </v>
   </varray>
  </structure>
  <varray name="forces" >
   <v>       0.06515682      -0.02393839      -0.00761690 </v>
   <v>      -0.03873746      -0.10903955      -0.09801377 </v>
   <v>      -0.12585370      -0.26865165      -0.05095168 </v>
   <v>       0.32539010       0.12072583       0.41858079 </v>
   <v>       0.60326481      -0.09803113      -0.24699750 </v>
   <v>       0.04208758       0.54242506       0.11626871 </v>
   <v>      -0.21855541      -0.17099896       0.29152803 </v>
   <v>      -0.54697159       0.20360583      -0.25883507 </v>
   <v>       0.45665756      -0.07479627       0.14081008 </v>
   <v>      -0.19694300       0.15849580       0.27848856 </v>
   <v>       0.28921327       0.12371405      -0.16233618 </v>
   <v>      -0.91467246      -0.20546856      -0.28099857 </v>
   <v>      -0.01395850      -0.26800401      -0.19021697 </v>
   <v>       1.81741997       0.29331163      -0.12829400 </v>
   <v>      -1.54349799      -0.22334967       0.17858446 </v>
  </varray>
  <varray name="stress" >
   <v>      -0.15604665      -0.42869412      -0.04956039 </v>
   <v>      -0.42869412       0.54509491       0.07102164 </v>
   <v>      -0.04956039       0.07102165      -0.32605771 </v>
  </varray>
  <energy>
   <i name="e_fr_energy">    -48.94269468 </i>
   <i name="e_wo_entrp">    -48.94566604 </i>
   <i name="e_0_energy">      0.00891410 </i>
  </energy>
  <time name="totalsc">  351.26  351.55</time>
  <eigenvalues>
   <array>
    <dimension dim="1">band</dimension>
    <dimension dim="2">kpoint</dimension>
    <dimension dim="3">spin</dimension>
    <field>eigene</field>
    <field>occ</field>
    <set>
     <set comment="spin 1">
      <set comment="kpoint 1">
       <r>  -28.0477    1.0000 </r>
       <r>  -13.7883    1.0000 </r>
       <r>  -11.2129    1.0000 </r>
       <r>  -10.8520    1.0000 </r>
       <r>  -10.7269    1.0000 </r>
       <r>  -10.2232    1.0000 </r>
       <r>   -8.7236    1.0000 </r>
       <r>   -8.2530    1.0000 </r>
       <r>   -7.7675    1.0000 </r>
       <r>   -7.5880    1.0000 </r>
       <r>   -7.5201    1.0000 </r>
       <r>   -7.3615    1.0000 </r>
       <r>   -7.3128    1.0000 </r>
       <r>   -7.2008    1.0000 </r>
       <r>   -7.0732    1.0000 </r>
       <r>   -7.0013    1.0000 </r>
       <r>   -6.8518    1.0000 </r>
       <r>   -6.8179    1.0000 </r>
       <r>   -6.7664    1.0000 </r>
       <r>   -6.6684    1.0000 </r>
       <r>   -6.6462    1.0000 </r>
       <r>   -6.6090    1.0000 </r>
       <r>   -6.5855    1.0000 </r>
       <r>   -6.5159    1.0000 </r>
       <r>   -6.4879    1.0000 </r>
       <r>   -6.4599    1.0000 </r>
       <r>   -6.3843    1.0000 </r>
       <r>   -6.3732    1.0000 </r>
       <r>   -6.3334    1.0000 </r>
       <r>   -6.3163    1.0000 </r>
       <r>   -6.2656    1.0000 </r>
       <r>   -6.2149    1.0000 </r>
       <r>   -6.1619    1.0000 </r>
       <r>   -6.1338    1.0000 </r>
       <r>   -5.9961    1.0000 </r>
       <r>   -5.9411    1.0000 </r>
       <r>   -5.9142    1.0000 </r>
       <r>   -5.7588    1.0000 </r>
       <r>   -5.7524    1.0000 </r>
       <r>   -5.7135    1.0000 </r>
       <r>   -5.6408    1.0000 </r>
       <r>   -5.6202    1.0000 </r>
       <r>   -5.6097    1.0000 </r>
       <r>   -5.5398    1.0000 </r>
       <r>   -5.5058    1.0000 </r>
       <r>   -5.4556    1.0000 </r>
       <r>   -5.4241    1.0000 </r>
       <r>   -5.4010    1.0000 </r>
       <r>   -5.3868    1.0000 </r>
       <r>   -5.3771    1.0000 </r>
       <r>   -5.3458    1.0000 </r>
       <r>   -5.3081    1.0000 </r>
       <r>   -5.3032    1.0000 </r>
       <r>   -5.2841    1.0000 </r>
       <r>   -5.2349    1.0000 </r>
       <r>   -5.2124    1.0000 </r>
       <r>   -5.2034    1.0000 </r>
       <r>   -5.1875    1.0000 </r>
       <r>   -5.1536    1.0000 </r>
       <r>   -5.1227    1.0000 </r>
       <r>   -5.0984    1.0000 </r>
       <r>   -5.0454    1.0000 </r>
       <r>   -5.0423    1.0000 </r>
       <r>   -5.0231    1.0000 </r>
       <r>   -4.9758    1.0000 </r>
       <r>   -4.9579    1.0000 </r>
       <r>   -4.9280    1.0000 </r>
       <r>   -4.9100    1.0000 </r>
       <r>   -4.9017    1.0000 </r>
       <r>   -4.8504    1.0000 </r>
       <r>   -4.8342    1.0000 </r>
       <r>   -4.7960    1.0000 </r>
       <r>   -4.7622    1.0000 </r>
       <r>   -4.5642    1.0000 </r>
       <r>   -4.2101    1.0000 </r>
       <r>   -4.1609    1.0000 </r>
       <r>   -3.5556    1.0000 </r>
       <r>   -3.0657   -0.0000 </r>
       <r>   -2.8928   -0.0000 </r>
       <r>   -2.5581   -0.0000 </r>
       <r>   -2.3532   -0.0000 </r>
       <r>   -1.9719   -0.0000 </r>
       <r>   -1.8984   -0.0000 </r>
       <r>   -1.8190   -0.0000 </r>
       <r>   -1.3813   -0.0000 </r>
       <r>   -1.0303   -0.0000 </r>
       <r>   -0.9425   -0.0000 </r>
       <r>   -0.7252    0.0000 </r>
       <r>   -0.3884    0.0000 </r>
       <r>   -0.2694    0.0000 </r>
       <r>   -0.0883    0.0000 </r>
       <r>    0.0468    0.0000 </r>
      </set>
     </set>
     <set comment="spin 2">
      <set comment="kpoint 1">
       <r>  -28.0168    1.0000 </r>
       <r>  -13.7333    1.0000 </r>
       <r>  -11.1726    1.0000 </r>
       <r>  -10.8268    1.0000 </r>
       <r>  -10.6377    1.0000 </r>
       <r>  -10.1811    1.0000 </r>
       <r>   -8.7032    1.0000 </r>
       <r>   -8.2063    1.0000 </r>
       <r>   -7.7235    1.0000 </r>
       <r>   -7.5680    1.0000 </r>
       <r>   -7.4892    1.0000 </r>
       <r>   -7.3224    1.0000 </r>
       <r>   -7.2804    1.0000 </r>
       <r>   -7.1731    1.0000 </r>
       <r>   -7.0400    1.0000 </r>
       <r>   -6.9726    1.0000 </r>
       <r>   -6.8267    1.0000 </r>
       <r>   -6.7931    1.0000 </r>
       <r>   -6.7314    1.0000 </r>
       <r>   -6.6468    1.0000 </r>
       <r>   -6.6280    1.0000 </r>
       <r>   -6.5875    1.0000 </r>
       <r>   -6.5589    1.0000 </r>
       <r>   -6.4965    1.0000 </r>
       <r>   -6.4598    1.0000 </r>
       <r>   -6.4340    1.0000 </r>
       <r>   -6.3624    1.0000 </r>
       <r>   -6.3492    1.0000 </r>
       <r>   -6.3121    1.0000 </r>
       <r>   -6.2886    1.0000 </r>
       <r>   -6.2425    1.0000 </r>
       <r>   -6.1894    1.0000 </r>
       <r>   -6.1296    1.0000 </r>
       <r>   -6.1155    1.0000 </r>
       <r>   -5.9734    1.0000 </r>
       <r>   -5.9157    1.0000 </r>
       <r>   -5.8864    1.0000 </r>
       <r>   -5.7385    1.0000 </r>
       <r>   -5.7227    1.0000 </r>
       <r>   -5.6939    1.0000 </r>
       <r>   -5.6176    1.0000 </r>
       <r>   -5.5993    1.0000 </r>
       <r>   -5.5848    1.0000 </r>
       <r>   -5.5161    1.0000 </r>
       <r>   -5.4826    1.0000 </r>
       <r>   -5.4171    1.0000 </r>
       <r>   -5.3987    1.0000 </r>
       <r>   -5.3731    1.0000 </r>
       <r>   -5.3650    1.0000 </r>
       <r>   -5.3495    1.0000 </r>
       <r>   -5.3219    1.0000 </r>
       <r>   -5.2880    1.0000 </r>
       <r>   -5.2797    1.0000 </r>
       <r>   -5.2585    1.0000 </r>
       <r>   -5.2071    1.0000 </r>
       <r>   -5.1908    1.0000 </r>
       <r>   -5.1817    1.0000 </r>
       <r>   -5.1737    1.0000 </r>
       <r>   -5.1267    1.0000 </r>
       <r>   -5.0982    1.0000 </r>
       <r>   -5.0750    1.0000 </r>
       <r>   -5.0248    1.0000 </r>
       <r>   -5.0220    1.0000 </r>
       <r>   -4.9930    1.0000 </r>
       <r>   -4.9501    1.0000 </r>
       <r>   -4.9331    1.0000 </r>
       <r>   -4.9027    1.0000 </r>
       <r>   -4.8795    1.0000 </r>
       <r>   -4.8606    1.0000 </r>
       <r>   -4.8196    1.0000 </r>
       <r>   -4.8005    1.0000 </r>
       <r>   -4.7726    1.0000 </r>
       <r>   -4.7334    1.0000 </r>
       <r>   -4.5211    1.0000 </r>
       <r>   -4.1458    1.0215 </r>
       <r>   -4.1248    0.9785 </r>
       <r>   -3.3476   -0.0000 </r>
       <r>   -3.0114   -0.0000 </r>
       <r>   -2.8378   -0.0000 </r>
       <r>   -2.4799   -0.0000 </r>
       <r>   -2.2430   -0.0000 </r>
       <r>   -1.9416   -0.0000 </r>
       <r>   -1.8221   -0.0000 </r>
       <r>   -1.7398   -0.0000 </r>
       <r>   -1.2654    0.0000 </r>
       <r>   -0.9484    0.0000 </r>
       <r>   -0.8332    0.0000 </r>
       <r>   -0.6449    0.0000 </r>
       <r>   -0.2825    0.0000 </r>
       <r>   -0.2151    0.0000 </r>
       <r>   -0.0278    0.0000 </r>
       <r>    0.0989    0.0000 </r>
      </set>
     </set>
    </set>
   </array>
  </eigenvalues>
  <separator name="orbital magnetization" >
   <v name="MAGDIPOLOUT">      0.00000000      0.00000000      0.00000000</v>
  </separator>
  <dos>
   <i name="efermi">     -4.04899061 </i>
   <total>
    <array>
     <dimension dim="1">gridpoints</dimension>
     <dimension dim="2">spin</dimension>
     <field>energy</field>
     <field>total</field>
     <field>integrated</field>
     <set>
      <set comment="spin 1">
       <r>   -29.4550     0.0000     0.0000 </r>
       <r>   -29.3518     0.0000     0.0000 </r>
       <r>   -29.2486     0.0000     0.0000 </r>
       <r>   -29.1454     0.0000     0.0000 </r>
       <r>   -29.0422     0.0000     0.0000 </r>
       <r>   -28.9390    -0.0000    -0.0000 </r>
       <r>   -28.8358    -0.0000    -0.0000 </r>
       <r>   -28.7326    -0.0000    -0.0000 </r>
       <r>   -28.6294    -0.0000    -0.0000 </r>
       <r>   -28.5262    -0.0000    -0.0000 </r>
       <r>   -28.4230    -0.0000    -0.0000 </r>
       <r>   -28.3198    -0.0079    -0.0008 </r>
       <r>   -28.2166    -0.3610    -0.0381 </r>
       <r>   -28.1134     1.4569     0.1123 </r>
       <r>   -28.0102    14.3021     1.5883 </r>
       <r>   -27.9070     4.5995     2.0630 </r>
       <r>   -27.8037    -0.5812     2.0030 </r>
       <r>   -27.7005    -0.0292     2.0000 </r>
       <r>   -27.5973    -0.0001     2.0000 </r>
       <r>   -27.4941    -0.0000     2.0000 </r>
       <r>   -27.3909    -0.0000     2.0000 </r>
       <r>   -27.2877     0.0000     2.0000 </r>
       <r>   -27.1845     0.0000     2.0000 </r>
       <r>   -27.0813     0.0000     2.0000 </r>
       <r>   -26.9781     0.0000     2.0000 </r>
       <r>   -26.8749     0.0000     2.0000 </r>
       <r>   -26.7717     0.0000     2.0000 </r>
       <r>   -26.6685     0.0000     2.0000 </r>
       <r>   -26.5653     0.0000     2.0000 </r>
       <r>   -26.4621     0.0000     2.0000 </r>
       <r>   -26.3589     0.0000     2.0000 </r>
       <r>   -26.2557     0.0000     2.0000 </r>
       <r>   -26.1525     0.0000     2.0000 </r>
       <r>   -26.0493     0.0000     2.0000 </r>
       <r>   -25.9461     0.0000     2.0000 </r>
       <r>   -25.8429     0.0000     2.0000 </r>
       <r>   -25.7397     0.0000     2.0000 </r>
       <r>   -25.6365     0.0000     2.0000 </r>
       <r>   -25.5333     0.0000     2.0000 </r>
       <r>   -25.4301     0.0000     2.0000 </r>
       <r>   -25.3268     0.0000     2.0000 </r>
       <r>   -25.2236     0.0000     2.0000 </r>
       <r>   -25.1204     0.0000     2.0000 </r>
       <r>   -25.0172     0.0000     2.0000 </r>
       <r>   -24.9140     0.0000     2.0000 </r>
       <r>   -24.8108     0.0000     2.0000 </r>
       <r>   -24.7076     0.0000     2.0000 </r>
       <r>   -24.6044     0.0000     2.0000 </r>
       <r>   -24.5012     0.0000     2.0000 </r>
       <r>   -24.3980     0.0000     2.0000 </r>
       <r>   -24.2948     0.0000     2.0000 </r>
       <r>   -24.1916     0.0000     2.0000 </r>
       <r>   -24.0884     0.0000     2.0000 </r>
       <r>   -23.9852     0.0000     2.0000 </r>
       <r>   -23.8820     0.0000     2.0000 </r>
       <r>   -23.7788     0.0000     2.0000 </r>
       <r>   -23.6756     0.0000     2.0000 </r>
       <r>   -23.5724     0.0000     2.0000 </r>
       <r>   -23.4692     0.0000     2.0000 </r>
       <r>   -23.3660     0.0000     2.0000 </r>
       <r>   -23.2628     0.0000     2.0000 </r>
       <r>   -23.1596     0.0000     2.0000 </r>
       <r>   -23.0564     0.0000     2.0000 </r>
       <r>   -22.9532     0.0000     2.0000 </r>
       <r>   -22.8499     0.0000     2.0000 </r>
       <r>   -22.7467     0.0000     2.0000 </r>
       <r>   -22.6435     0.0000     2.0000 </r>
       <r>   -22.5403     0.0000     2.0000 </r>
       <r>   -22.4371     0.0000     2.0000 </r>
       <r>   -22.3339     0.0000     2.0000 </r>
       <r>   -22.2307     0.0000     2.0000 </r>
       <r>   -22.1275     0.0000     2.0000 </r>
       <r>   -22.0243     0.0000     2.0000 </r>
       <r>   -21.9211     0.0000     2.0000 </r>
       <r>   -21.8179     0.0000     2.0000 </r>
       <r>   -21.7147     0.0000     2.0000 </r>
       <r>   -21.6115     0.0000     2.0000 </r>
       <r>   -21.5083     0.0000     2.0000 </r>
       <r>   -21.4051     0.0000     2.0000 </r>
       <r>   -21.3019     0.0000     2.0000 </r>
       <r>   -21.1987     0.0000     2.0000 </r>
       <r>   -21.0955     0.0000     2.0000 </r>
       <r>   -20.9923     0.0000     2.0000 </r>
       <r>   -20.8891     0.0000     2.0000 </r>
       <r>   -20.7859     0.0000     2.0000 </r>
       <r>   -20.6827     0.0000     2.0000 </r>
       <r>   -20.5795     0.0000     2.0000 </r>
       <r>   -20.4763     0.0000     2.0000 </r>
       <r>   -20.3730     0.0000     2.0000 </r>
       <r>   -20.2698     0.0000     2.0000 </r>
       <r>   -20.1666     0.0000     2.0000 </r>
       <r>   -20.0634     0.0000     2.0000 </r>
       <r>   -19.9602     0.0000     2.0000 </r>
       <r>   -19.8570     0.0000     2.0000 </r>
       <r>   -19.7538     0.0000     2.0000 </r>
       <r>   -19.6506     0.0000     2.0000 </r>
       <r>   -19.5474     0.0000     2.0000 </r>
       <r>   -19.4442     0.0000     2.0000 </r>
       <r>   -19.3410     0.0000     2.0000 </r>
       <r>   -19.2378     0.0000     2.0000 </r>
       <r>   -19.1346     0.0000     2.0000 </r>
       <r>   -19.0314     0.0000     2.0000 </r>
       <r>   -18.9282     0.0000     2.0000 </r>
       <r>   -18.8250     0.0000     2.0000 </r>
       <r>   -18.7218     0.0000     2.0000 </r>
       <r>   -18.6186     0.0000     2.0000 </r>
       <r>   -18.5154     0.0000     2.0000 </r>
       <r>   -18.4122     0.0000     2.0000 </r>
       <r>   -18.3090     0.0000     2.0000 </r>
       <r>   -18.2058     0.0000     2.0000 </r>
       <r>   -18.1026     0.0000     2.0000 </r>
       <r>   -17.9994     0.0000     2.0000 </r>
       <r>   -17.8961     0.0000     2.0000 </r>
       <r>   -17.7929     0.0000     2.0000 </r>
       <r>   -17.6897     0.0000     2.0000 </r>
       <r>   -17.5865     0.0000     2.0000 </r>
       <r>   -17.4833     0.0000     2.0000 </r>
       <r>   -17.3801     0.0000     2.0000 </r>
       <r>   -17.2769     0.0000     2.0000 </r>
       <r>   -17.1737     0.0000     2.0000 </r>
       <r>   -17.0705     0.0000     2.0000 </r>
       <r>   -16.9673     0.0000     2.0000 </r>
       <r>   -16.8641     0.0000     2.0000 </r>
       <r>   -16.7609     0.0000     2.0000 </r>
       <r>   -16.6577     0.0000     2.0000 </r>
       <r>   -16.5545     0.0000     2.0000 </r>
       <r>   -16.4513     0.0000     2.0000 </r>
       <r>   -16.3481     0.0000     2.0000 </r>
       <r>   -16.2449     0.0000     2.0000 </r>
       <r>   -16.1417     0.0000     2.0000 </r>
       <r>   -16.0385     0.0000     2.0000 </r>
       <r>   -15.9353     0.0000     2.0000 </r>
       <r>   -15.8321     0.0000     2.0000 </r>
       <r>   -15.7289     0.0000     2.0000 </r>
       <r>   -15.6257     0.0000     2.0000 </r>
       <r>   -15.5225     0.0000     2.0000 </r>
       <r>   -15.4192     0.0000     2.0000 </r>
       <r>   -15.3160     0.0000     2.0000 </r>
       <r>   -15.2128     0.0000     2.0000 </r>
       <r>   -15.1096     0.0000     2.0000 </r>
       <r>   -15.0064     0.0000     2.0000 </r>
       <r>   -14.9032     0.0000     2.0000 </r>
       <r>   -14.8000     0.0000     2.0000 </r>
       <r>   -14.6968     0.0000     2.0000 </r>
       <r>   -14.5936    -0.0000     2.0000 </r>
       <r>   -14.4904    -0.0000     2.0000 </r>
       <r>   -14.3872    -0.0000     2.0000 </r>
       <r>   -14.2840    -0.0000     2.0000 </r>
       <r>   -14.1808    -0.0000     2.0000 </r>
       <r>   -14.0776    -0.0032     1.9997 </r>
       <r>   -13.9744    -0.2329     1.9756 </r>
       <r>   -13.8712     0.2908     2.0056 </r>
       <r>   -13.7680    12.8844     3.3354 </r>
       <r>   -13.6648     7.1268     4.0709 </r>
       <r>   -13.5616    -0.6272     4.0062 </r>
       <r>   -13.4584    -0.0594     4.0000 </r>
       <r>   -13.3552    -0.0003     4.0000 </r>
       <r>   -13.2520    -0.0000     4.0000 </r>
       <r>   -13.1488    -0.0000     4.0000 </r>
       <r>   -13.0456     0.0000     4.0000 </r>
       <r>   -12.9424     0.0000     4.0000 </r>
       <r>   -12.8391     0.0000     4.0000 </r>
       <r>   -12.7359     0.0000     4.0000 </r>
       <r>   -12.6327     0.0000     4.0000 </r>
       <r>   -12.5295     0.0000     4.0000 </r>
       <r>   -12.4263     0.0000     4.0000 </r>
       <r>   -12.3231     0.0000     4.0000 </r>
       <r>   -12.2199     0.0000     4.0000 </r>
       <r>   -12.1167     0.0000     4.0000 </r>
       <r>   -12.0135    -0.0000     4.0000 </r>
       <r>   -11.9103    -0.0000     4.0000 </r>
       <r>   -11.8071    -0.0000     4.0000 </r>
       <r>   -11.7039    -0.0000     4.0000 </r>
       <r>   -11.6007    -0.0000     4.0000 </r>
       <r>   -11.4975    -0.0042     3.9996 </r>
       <r>   -11.3943    -0.2653     3.9722 </r>
       <r>   -11.2911     0.5554     4.0295 </r>
       <r>   -11.1879    13.3683     5.4092 </r>
       <r>   -11.0847     6.3559     6.0651 </r>
       <r>   -10.9815    -1.2737     5.9337 </r>
       <r>   -10.8783     5.6588     6.5177 </r>
       <r>   -10.7751    16.7268     8.2440 </r>
       <r>   -10.6719    15.2898     9.8219 </r>
       <r>   -10.5687     2.1924    10.0482 </r>
       <r>   -10.4655    -0.4852     9.9981 </r>
       <r>   -10.3622    -0.6042     9.9358 </r>
       <r>   -10.2590     4.8338    10.4346 </r>
       <r>   -10.1558    14.2063    11.9008 </r>
       <r>   -10.0526     1.3159    12.0366 </r>
       <r>    -9.9494    -0.3473    12.0007 </r>
       <r>    -9.8462    -0.0073    12.0000 </r>
       <r>    -9.7430    -0.0000    12.0000 </r>
       <r>    -9.6398    -0.0000    12.0000 </r>
       <r>    -9.5366    -0.0000    12.0000 </r>
       <r>    -9.4334    -0.0000    12.0000 </r>
       <r>    -9.3302    -0.0000    12.0000 </r>
       <r>    -9.2270    -0.0000    12.0000 </r>
       <r>    -9.1238    -0.0000    12.0000 </r>
       <r>    -9.0206    -0.0021    11.9998 </r>
       <r>    -8.9174    -0.1864    11.9805 </r>
       <r>    -8.8142    -0.0506    11.9753 </r>
       <r>    -8.7110    11.9854    13.2123 </r>
       <r>    -8.6078     8.3056    14.0694 </r>
       <r>    -8.5046    -0.6139    14.0061 </r>
       <r>    -8.4014    -0.6085    13.9433 </r>
       <r>    -8.2982     3.6076    14.3156 </r>
       <r>    -8.1950    14.5998    15.8223 </r>
       <r>    -8.0918     2.1565    16.0449 </r>
       <r>    -7.9886    -0.4978    15.9935 </r>
       <r>    -7.8853    -0.6198    15.9296 </r>
       <r>    -7.7821     7.8014    16.7347 </r>
       <r>    -7.6789    11.7213    17.9444 </r>
       <r>    -7.5757    14.2574    19.4158 </r>
       <r>    -7.4725    21.8276    21.6685 </r>
       <r>    -7.3693    13.7210    23.0846 </r>
       <r>    -7.2661    26.6845    25.8385 </r>
       <r>    -7.1629    17.0584    27.5990 </r>
       <r>    -7.0597    17.9256    29.4490 </r>
       <r>    -6.9565    20.9149    31.6075 </r>
       <r>    -6.8533    17.6260    33.4266 </r>
       <r>    -6.7501    35.3499    37.0749 </r>
       <r>    -6.6469    36.8207    40.8749 </r>
       <r>    -6.5437    52.6802    46.3117 </r>
       <r>    -6.4405    47.6356    51.2279 </r>
       <r>    -6.3373    55.6420    56.9704 </r>
       <r>    -6.2341    52.2711    62.3650 </r>
       <r>    -6.1309    40.6562    66.5609 </r>
       <r>    -6.0277    19.4760    68.5709 </r>
       <r>    -5.9245    32.8731    71.9635 </r>
       <r>    -5.8213    22.1039    74.2447 </r>
       <r>    -5.7181    36.4588    78.0074 </r>
       <r>    -5.6149    53.1563    83.4934 </r>
       <r>    -5.5117    48.1513    88.4628 </r>
       <r>    -5.4084    63.4256    95.0086 </r>
       <r>    -5.3052    89.2855   104.2232 </r>
       <r>    -5.2020    83.4433   112.8349 </r>
       <r>    -5.0988    76.0547   120.6841 </r>
       <r>    -4.9956    72.0233   128.1172 </r>
       <r>    -4.8924    81.3111   136.5088 </r>
       <r>    -4.7892    67.4947   143.4746 </r>
       <r>    -4.6860    25.1773   146.0730 </r>
       <r>    -4.5828     6.4013   146.7336 </r>
       <r>    -4.4796    12.2831   148.0013 </r>
       <r>    -4.3764    -0.2690   147.9735 </r>
       <r>    -4.2732     0.8972   148.0661 </r>
       <r>    -4.1700    23.2736   150.4680 </r>
       <r>    -4.0668    15.7805   152.0966 </r>
       <r>    -3.9636    -0.7412   152.0201 </r>
       <r>    -3.8604    -0.1948   152.0000 </r>
       <r>    -3.7572    -0.1475   151.9848 </r>
       <r>    -3.6540    -0.3061   151.9532 </r>
       <r>    -3.5508    10.9297   153.0812 </r>
       <r>    -3.4476     9.5142   154.0631 </r>
       <r>    -3.3444    -0.5113   154.0104 </r>
       <r>    -3.2412    -0.4143   153.9676 </r>
       <r>    -3.1380     0.9157   154.0621 </r>
       <r>    -3.0348    13.3017   155.4349 </r>
       <r>    -2.9315     9.9651   156.4633 </r>
       <r>    -2.8283    13.7402   157.8814 </r>
       <r>    -2.7251     1.1435   157.9994 </r>
       <r>    -2.6219     1.2397   158.1273 </r>
       <r>    -2.5187    13.9993   159.5721 </r>
       <r>    -2.4155     6.0926   160.2009 </r>
       <r>    -2.3123    13.8887   161.6343 </r>
       <r>    -2.2091     4.0891   162.0563 </r>
       <r>    -2.1059    -1.2978   161.9223 </r>
       <r>    -2.0027     4.8322   162.4211 </r>
       <r>    -1.8995    24.3569   164.9348 </r>
       <r>    -1.7963    24.4653   167.4597 </r>
       <r>    -1.6931     6.0538   168.0845 </r>
       <r>    -1.5899    -0.8793   167.9937 </r>
       <r>    -1.4867    -0.5176   167.9403 </r>
       <r>    -1.3835     9.9081   168.9629 </r>
       <r>    -1.2803    10.5333   170.0500 </r>
       <r>    -1.1771    -0.9556   169.9513 </r>
       <r>    -1.0739     3.0445   170.2655 </r>
       <r>    -0.9707    20.4628   172.3774 </r>
       <r>    -0.8675    15.0851   173.9342 </r>
       <r>    -0.7643     4.7351   174.4229 </r>
       <r>    -0.6611    14.0726   175.8753 </r>
       <r>    -0.5579     1.2229   176.0015 </r>
       <r>    -0.4546     0.7999   176.0840 </r>
       <r>    -0.3514    14.5911   177.5899 </r>
       <r>    -0.2482    17.2169   179.3667 </r>
       <r>    -0.1450     8.4946   180.2434 </r>
       <r>    -0.0418    13.9973   181.6880 </r>
       <r>     0.0614    15.6143   183.2995 </r>
       <r>     0.1646     7.4876   184.0722 </r>
       <r>     0.2678    -0.6256   184.0077 </r>
       <r>     0.3710    -0.0739   184.0000 </r>
       <r>     0.4742    -0.0004   184.0000 </r>
       <r>     0.5774    -0.0000   184.0000 </r>
       <r>     0.6806    -0.0000   184.0000 </r>
       <r>     0.7838     0.0000   184.0000 </r>
       <r>     0.8870     0.0000   184.0000 </r>
       <r>     0.9902     0.0000   184.0000 </r>
       <r>     1.0934     0.0000   184.0000 </r>
       <r>     1.1966     0.0000   184.0000 </r>
       <r>     1.2998     0.0000   184.0000 </r>
       <r>     1.4030     0.0000   184.0000 </r>
       <r>     1.5062     0.0000   184.0000 </r>
      </set>
      <set comment="spin 2">
       <r>   -29.4550     0.0000     0.0000 </r>
       <r>   -29.3518     0.0000     0.0000 </r>
       <r>   -29.2486     0.0000     0.0000 </r>
       <r>   -29.1454     0.0000     0.0000 </r>
       <r>   -29.0422     0.0000     0.0000 </r>
       <r>   -28.9390     0.0000     0.0000 </r>
       <r>   -28.8358    -0.0000    -0.0000 </r>
       <r>   -28.7326    -0.0000    -0.0000 </r>
       <r>   -28.6294    -0.0000    -0.0000 </r>
       <r>   -28.5262    -0.0000    -0.0000 </r>
       <r>   -28.4230    -0.0000    -0.0000 </r>
       <r>   -28.3198    -0.0015    -0.0002 </r>
       <r>   -28.2166    -0.1544    -0.0161 </r>
       <r>   -28.1134    -0.2554    -0.0424 </r>
       <r>   -28.0102    11.1820     1.1116 </r>
       <r>   -27.9070     9.2390     2.0651 </r>
       <r>   -27.8037    -0.5312     2.0103 </r>
       <r>   -27.7005    -0.0988     2.0001 </r>
       <r>   -27.5973    -0.0007     2.0000 </r>
       <r>   -27.4941    -0.0000     2.0000 </r>
       <r>   -27.3909    -0.0000     2.0000 </r>
       <r>   -27.2877     0.0000     2.0000 </r>
       <r>   -27.1845     0.0000     2.0000 </r>
       <r>   -27.0813     0.0000     2.0000 </r>
       <r>   -26.9781     0.0000     2.0000 </r>
       <r>   -26.8749     0.0000     2.0000 </r>
       <r>   -26.7717     0.0000     2.0000 </r>
       <r>   -26.6685     0.0000     2.0000 </r>
       <r>   -26.5653     0.0000     2.0000 </r>
       <r>   -26.4621     0.0000     2.0000 </r>
       <r>   -26.3589     0.0000     2.0000 </r>
       <r>   -26.2557     0.0000     2.0000 </r>
       <r>   -26.1525     0.0000     2.0000 </r>
       <r>   -26.0493     0.0000     2.0000 </r>
       <r>   -25.9461     0.0000     2.0000 </r>
       <r>   -25.8429     0.0000     2.0000 </r>
       <r>   -25.7397     0.0000     2.0000 </r>
       <r>   -25.6365     0.0000     2.0000 </r>
       <r>   -25.5333     0.0000     2.0000 </r>
       <r>   -25.4301     0.0000     2.0000 </r>
       <r>   -25.3268     0.0000     2.0000 </r>
       <r>   -25.2236     0.0000     2.0000 </r>
       <r>   -25.1204     0.0000     2.0000 </r>
       <r>   -25.0172     0.0000     2.0000 </r>
       <r>   -24.9140     0.0000     2.0000 </r>
       <r>   -24.8108     0.0000     2.0000 </r>
       <r>   -24.7076     0.0000     2.0000 </r>
       <r>   -24.6044     0.0000     2.0000 </r>
       <r>   -24.5012     0.0000     2.0000 </r>
       <r>   -24.3980     0.0000     2.0000 </r>
       <r>   -24.2948     0.0000     2.0000 </r>
       <r>   -24.1916     0.0000     2.0000 </r>
       <r>   -24.0884     0.0000     2.0000 </r>
       <r>   -23.9852     0.0000     2.0000 </r>
       <r>   -23.8820     0.0000     2.0000 </r>
       <r>   -23.7788     0.0000     2.0000 </r>
       <r>   -23.6756     0.0000     2.0000 </r>
       <r>   -23.5724     0.0000     2.0000 </r>
       <r>   -23.4692     0.0000     2.0000 </r>
       <r>   -23.3660     0.0000     2.0000 </r>
       <r>   -23.2628     0.0000     2.0000 </r>
       <r>   -23.1596     0.0000     2.0000 </r>
       <r>   -23.0564     0.0000     2.0000 </r>
       <r>   -22.9532     0.0000     2.0000 </r>
       <r>   -22.8499     0.0000     2.0000 </r>
       <r>   -22.7467     0.0000     2.0000 </r>
       <r>   -22.6435     0.0000     2.0000 </r>
       <r>   -22.5403     0.0000     2.0000 </r>
       <r>   -22.4371     0.0000     2.0000 </r>
       <r>   -22.3339     0.0000     2.0000 </r>
       <r>   -22.2307     0.0000     2.0000 </r>
       <r>   -22.1275     0.0000     2.0000 </r>
       <r>   -22.0243     0.0000     2.0000 </r>
       <r>   -21.9211     0.0000     2.0000 </r>
       <r>   -21.8179     0.0000     2.0000 </r>
       <r>   -21.7147     0.0000     2.0000 </r>
       <r>   -21.6115     0.0000     2.0000 </r>
       <r>   -21.5083     0.0000     2.0000 </r>
       <r>   -21.4051     0.0000     2.0000 </r>
       <r>   -21.3019     0.0000     2.0000 </r>
       <r>   -21.1987     0.0000     2.0000 </r>
       <r>   -21.0955     0.0000     2.0000 </r>
       <r>   -20.9923     0.0000     2.0000 </r>
       <r>   -20.8891     0.0000     2.0000 </r>
       <r>   -20.7859     0.0000     2.0000 </r>
       <r>   -20.6827     0.0000     2.0000 </r>
       <r>   -20.5795     0.0000     2.0000 </r>
       <r>   -20.4763     0.0000     2.0000 </r>
       <r>   -20.3730     0.0000     2.0000 </r>
       <r>   -20.2698     0.0000     2.0000 </r>
       <r>   -20.1666     0.0000     2.0000 </r>
       <r>   -20.0634     0.0000     2.0000 </r>
       <r>   -19.9602     0.0000     2.0000 </r>
       <r>   -19.8570     0.0000     2.0000 </r>
       <r>   -19.7538     0.0000     2.0000 </r>
       <r>   -19.6506     0.0000     2.0000 </r>
       <r>   -19.5474     0.0000     2.0000 </r>
       <r>   -19.4442     0.0000     2.0000 </r>
       <r>   -19.3410     0.0000     2.0000 </r>
       <r>   -19.2378     0.0000     2.0000 </r>
       <r>   -19.1346     0.0000     2.0000 </r>
       <r>   -19.0314     0.0000     2.0000 </r>
       <r>   -18.9282     0.0000     2.0000 </r>
       <r>   -18.8250     0.0000     2.0000 </r>
       <r>   -18.7218     0.0000     2.0000 </r>
       <r>   -18.6186     0.0000     2.0000 </r>
       <r>   -18.5154     0.0000     2.0000 </r>
       <r>   -18.4122     0.0000     2.0000 </r>
       <r>   -18.3090     0.0000     2.0000 </r>
       <r>   -18.2058     0.0000     2.0000 </r>
       <r>   -18.1026     0.0000     2.0000 </r>
       <r>   -17.9994     0.0000     2.0000 </r>
       <r>   -17.8961     0.0000     2.0000 </r>
       <r>   -17.7929     0.0000     2.0000 </r>
       <r>   -17.6897     0.0000     2.0000 </r>
       <r>   -17.5865     0.0000     2.0000 </r>
       <r>   -17.4833     0.0000     2.0000 </r>
       <r>   -17.3801     0.0000     2.0000 </r>
       <r>   -17.2769     0.0000     2.0000 </r>
       <r>   -17.1737     0.0000     2.0000 </r>
       <r>   -17.0705     0.0000     2.0000 </r>
       <r>   -16.9673     0.0000     2.0000 </r>
       <r>   -16.8641     0.0000     2.0000 </r>
       <r>   -16.7609     0.0000     2.0000 </r>
       <r>   -16.6577     0.0000     2.0000 </r>
       <r>   -16.5545     0.0000     2.0000 </r>
       <r>   -16.4513     0.0000     2.0000 </r>
       <r>   -16.3481     0.0000     2.0000 </r>
       <r>   -16.2449     0.0000     2.0000 </r>
       <r>   -16.1417     0.0000     2.0000 </r>
       <r>   -16.0385     0.0000     2.0000 </r>
       <r>   -15.9353     0.0000     2.0000 </r>
       <r>   -15.8321     0.0000     2.0000 </r>
       <r>   -15.7289     0.0000     2.0000 </r>
       <r>   -15.6257     0.0000     2.0000 </r>
       <r>   -15.5225     0.0000     2.0000 </r>
       <r>   -15.4192     0.0000     2.0000 </r>
       <r>   -15.3160     0.0000     2.0000 </r>
       <r>   -15.2128     0.0000     2.0000 </r>
       <r>   -15.1096     0.0000     2.0000 </r>
       <r>   -15.0064     0.0000     2.0000 </r>
       <r>   -14.9032     0.0000     2.0000 </r>
       <r>   -14.8000     0.0000     2.0000 </r>
       <r>   -14.6968     0.0000     2.0000 </r>
       <r>   -14.5936    -0.0000     2.0000 </r>
       <r>   -14.4904    -0.0000     2.0000 </r>
       <r>   -14.3872    -0.0000     2.0000 </r>
       <r>   -14.2840    -0.0000     2.0000 </r>
       <r>   -14.1808    -0.0000     2.0000 </r>
       <r>   -14.0776    -0.0001     2.0000 </r>
       <r>   -13.9744    -0.0330     1.9966 </r>
       <r>   -13.8712    -0.5971     1.9350 </r>
       <r>   -13.7680     4.9954     2.4505 </r>
       <r>   -13.6648    14.1353     3.9093 </r>
       <r>   -13.5616     1.2235     4.0356 </r>
       <r>   -13.4584    -0.3380     4.0007 </r>
       <r>   -13.3552    -0.0068     4.0000 </r>
       <r>   -13.2520    -0.0000     4.0000 </r>
       <r>   -13.1488    -0.0000     4.0000 </r>
       <r>   -13.0456    -0.0000     4.0000 </r>
       <r>   -12.9424     0.0000     4.0000 </r>
       <r>   -12.8391     0.0000     4.0000 </r>
       <r>   -12.7359     0.0000     4.0000 </r>
       <r>   -12.6327     0.0000     4.0000 </r>
       <r>   -12.5295     0.0000     4.0000 </r>
       <r>   -12.4263     0.0000     4.0000 </r>
       <r>   -12.3231     0.0000     4.0000 </r>
       <r>   -12.2199     0.0000     4.0000 </r>
       <r>   -12.1167     0.0000     4.0000 </r>
       <r>   -12.0135    -0.0000     4.0000 </r>
       <r>   -11.9103    -0.0000     4.0000 </r>
       <r>   -11.8071    -0.0000     4.0000 </r>
       <r>   -11.7039    -0.0000     4.0000 </r>
       <r>   -11.6007    -0.0000     4.0000 </r>
       <r>   -11.4975    -0.0004     4.0000 </r>
       <r>   -11.3943    -0.0720     3.9925 </r>
       <r>   -11.2911    -0.6097     3.9296 </r>
       <r>   -11.1879     7.9029     4.7452 </r>
       <r>   -11.0847    12.2917     6.0138 </r>
       <r>   -10.9815    -0.4247     5.9699 </r>
       <r>   -10.8783     2.6265     6.2410 </r>
       <r>   -10.7751    14.0783     7.6939 </r>
       <r>   -10.6719     7.8891     8.5081 </r>
       <r>   -10.5687    13.6269     9.9145 </r>
       <r>   -10.4655     1.1651    10.0347 </r>
       <r>   -10.3622    -0.6014     9.9727 </r>
       <r>   -10.2590     0.5660    10.0311 </r>
       <r>   -10.1558    13.3955    11.4136 </r>
       <r>   -10.0526     6.3595    12.0699 </r>
       <r>    -9.9494    -0.6283    12.0050 </r>
       <r>    -9.8462    -0.0486    12.0000 </r>
       <r>    -9.7430    -0.0002    12.0000 </r>
       <r>    -9.6398    -0.0000    12.0000 </r>
       <r>    -9.5366    -0.0000    12.0000 </r>
       <r>    -9.4334    -0.0000    12.0000 </r>
       <r>    -9.3302    -0.0000    12.0000 </r>
       <r>    -9.2270    -0.0000    12.0000 </r>
       <r>    -9.1238    -0.0000    12.0000 </r>
       <r>    -9.0206    -0.0007    11.9999 </r>
       <r>    -8.9174    -0.0946    11.9902 </r>
       <r>    -8.8142    -0.5462    11.9338 </r>
       <r>    -8.7110     9.0546    12.8683 </r>
       <r>    -8.6078    11.3471    14.0393 </r>
       <r>    -8.5046    -0.2210    14.0165 </r>
       <r>    -8.4014    -0.3397    13.9815 </r>
       <r>    -8.2982    -0.1005    13.9711 </r>
       <r>    -8.1950    11.8204    15.1910 </r>
       <r>    -8.0918     8.5051    16.0688 </r>
       <r>    -7.9886    -0.5939    16.0075 </r>
       <r>    -7.8853    -0.5033    15.9555 </r>
       <r>    -7.7821     2.0034    16.1623 </r>
       <r>    -7.6789    13.8304    17.5897 </r>
       <r>    -7.5757    12.8415    18.9150 </r>
       <r>    -7.4725    22.5585    21.2431 </r>
       <r>    -7.3693    10.6777    22.3451 </r>
       <r>    -7.2661    25.8413    25.0120 </r>
       <r>    -7.1629    21.1510    27.1949 </r>
       <r>    -7.0597    14.8952    28.7321 </r>
       <r>    -6.9565    23.4753    31.1549 </r>
       <r>    -6.8533    15.2514    32.7289 </r>
       <r>    -6.7501    32.8871    36.1230 </r>
       <r>    -6.6469    35.9601    39.8342 </r>
       <r>    -6.5437    51.7969    45.1799 </r>
       <r>    -6.4405    47.0719    50.0379 </r>
       <r>    -6.3373    53.2117    55.5295 </r>
       <r>    -6.2341    55.4603    61.2533 </r>
       <r>    -6.1309    42.5390    65.6435 </r>
       <r>    -6.0277    24.8608    68.2092 </r>
       <r>    -5.9245    26.8012    70.9752 </r>
       <r>    -5.8213    27.7292    73.8370 </r>
       <r>    -5.7181    29.3743    76.8685 </r>
       <r>    -5.6149    52.2767    82.2637 </r>
       <r>    -5.5117    49.3733    87.3592 </r>
       <r>    -5.4084    52.3598    92.7630 </r>
       <r>    -5.3052    90.6955   102.1231 </r>
       <r>    -5.2020    85.6353   110.9611 </r>
       <r>    -5.0988    78.8582   119.0996 </r>
       <r>    -4.9956    69.4196   126.2640 </r>
       <r>    -4.8924    75.3825   134.0437 </r>
       <r>    -4.7892    74.6625   141.7492 </r>
       <r>    -4.6860    40.0350   145.8810 </r>
       <r>    -4.5828     3.4316   146.2352 </r>
       <r>    -4.4796    13.6293   147.6418 </r>
       <r>    -4.3764     3.9796   148.0525 </r>
       <r>    -4.2732    -1.7136   147.8756 </r>
       <r>    -4.1700    10.1010   148.9181 </r>
       <r>    -4.0668    27.8912   151.7966 </r>
       <r>    -3.9636     2.6708   152.0722 </r>
       <r>    -3.8604    -0.6842   152.0016 </r>
       <r>    -3.7572    -0.0155   152.0000 </r>
       <r>    -3.6540    -0.0013   151.9999 </r>
       <r>    -3.5508    -0.1386   151.9856 </r>
       <r>    -3.4476    -0.3456   151.9499 </r>
       <r>    -3.3444    10.7122   153.0554 </r>
       <r>    -3.2412     9.6928   154.0558 </r>
       <r>    -3.1380    -1.1128   153.9409 </r>
       <r>    -3.0348     6.3741   154.5988 </r>
       <r>    -2.9315    13.0412   155.9447 </r>
       <r>    -2.8283    12.0320   157.1864 </r>
       <r>    -2.7251     8.5140   158.0651 </r>
       <r>    -2.6219    -1.1417   157.9473 </r>
       <r>    -2.5187     4.3225   158.3934 </r>
       <r>    -2.4155    14.0376   159.8421 </r>
       <r>    -2.3123     2.7351   160.1244 </r>
       <r>    -2.2091    13.7035   161.5386 </r>
       <r>    -2.1059     4.6927   162.0229 </r>
       <r>    -2.0027     0.9788   162.1240 </r>
       <r>    -1.8995    14.6370   163.6346 </r>
       <r>    -1.7963    19.7515   165.6730 </r>
       <r>    -1.6931    20.3703   167.7753 </r>
       <r>    -1.5899     2.7614   168.0603 </r>
       <r>    -1.4867    -0.6378   167.9945 </r>
       <r>    -1.3835    -0.6272   167.9297 </r>
       <r>    -1.2803     7.9630   168.7515 </r>
       <r>    -1.1771    12.2051   170.0112 </r>
       <r>    -1.0739    -0.6246   169.9467 </r>
       <r>    -0.9707     6.0191   170.5679 </r>
       <r>    -0.8675    18.0720   172.4330 </r>
       <r>    -0.7643    13.8962   173.8671 </r>
       <r>    -0.6611     8.7148   174.7665 </r>
       <r>    -0.5579    12.0678   176.0120 </r>
       <r>    -0.4546    -0.2834   175.9827 </r>
       <r>    -0.3514     0.3780   176.0217 </r>
       <r>    -0.2482    19.2457   178.0080 </r>
       <r>    -0.1450    18.4560   179.9127 </r>
       <r>    -0.0418     8.0156   180.7400 </r>
       <r>     0.0614    16.3975   182.4323 </r>
       <r>     0.1646    14.2993   183.9080 </r>
       <r>     0.2678     1.2626   184.0383 </r>
       <r>     0.3710    -0.3633   184.0008 </r>
       <r>     0.4742    -0.0079   184.0000 </r>
       <r>     0.5774    -0.0000   184.0000 </r>
       <r>     0.6806    -0.0000   184.0000 </r>
       <r>     0.7838    -0.0000   184.0000 </r>
       <r>     0.8870     0.0000   184.0000 </r>
       <r>     0.9902     0.0000   184.0000 </r>
       <r>     1.0934     0.0000   184.0000 </r>
       <r>     1.1966     0.0000   184.0000 </r>
       <r>     1.2998     0.0000   184.0000 </r>
       <r>     1.4030     0.0000   184.0000 </r>
       <r>     1.5062     0.0000   184.0000 </r>
      </set>
     </set>
    </array>
   </total>
  </dos>
 </calculation>
 <structure name="finalpos" >
  <crystal>
   <varray name="basis" >
    <v>      15.00000000       0.00000000       0.00000000 </v>
    <v>       0.00000000      15.00000000       0.00000000 </v>
    <v>       0.00000000       0.00000000      15.00000000 </v>
   </varray>
   <i name="volume">   3375.00000000 </i>
   <varray name="rec_basis" >
    <v>       0.06666667       0.00000000       0.00000000 </v>
    <v>       0.00000000       0.06666667       0.00000000 </v>
    <v>       0.00000000       0.00000000       0.06666667 </v>
   </varray>
  </crystal>
  <varray name="positions" >
   <v>       0.29275267       0.41865467       0.55391400 </v>
   <v>       0.37590000       0.54656133       0.49163267 </v>
   <v>       0.39616600       0.29312333       0.56390533 </v>
   <v>       0.53126133       0.50616133       0.47836000 </v>
   <v>       0.54586467       0.34932733       0.53165933 </v>
   <v>       0.44773333       0.43432067       0.61204533 </v>
   <v>       0.41895800       0.39909000       0.44287267 </v>
   <v>       0.22908933       0.56908933       0.54770800 </v>
   <v>       0.33445733       0.54460133       0.65530200 </v>
   <v>       0.35166667       0.68233333       0.56663600 </v>
   <v>       0.48323000       0.66516067       0.47913200 </v>
   <v>       0.62404600       0.48402600       0.61120267 </v>
   <v>       0.48708133       0.59281400       0.61923000 </v>
   <v>       0.73664667       0.49132400       0.65273400 </v>
   <v>       0.81430667       0.50099467       0.65016867 </v>
  </varray>
 </structure>
</modeling>
