<?xml version="1.0" encoding="ISO-8859-1"?>
<modeling>
 <generator>
  <i name="program" type="string">vasp </i>
  <i name="version" type="string">5.4.4.18Apr17-6-g9f103f2a35  </i>
  <i name="subversion" type="string">(build May 08 2019 13:49:07) complex            parallel </i>
  <i name="platform" type="string">LinuxIFC </i>
  <i name="date" type="string">2019 11 13 </i>
  <i name="time" type="string">13:39:31 </i>
 </generator>
 <incar>
  <i type="string" name="SYSTEM"> CuCO</i>
  <i type="int" name="ISTART">     0</i>
  <i type="string" name="PREC">accurate</i>
  <i type="string" name="ALGO"> Fast</i>
  <i type="int" name="ISPIN">     2</i>
  <i type="int" name="INIWAV">     1</i>
  <i type="int" name="NELM">   300</i>
  <i type="int" name="NELMIN">     3</i>
  <i type="int" name="IBRION">    -1</i>
  <i name="EDIFF">      0.00000010</i>
  <i name="EDIFFG">     -0.00100000</i>
  <i type="int" name="NSW">     0</i>
  <i type="int" name="ISYM">     0</i>
  <i name="ENCUT">    600.00000000</i>
  <i name="NUPDOWN">      1.00000000</i>
  <i type="logical" name="LREAL"> F  </i>
  <i type="int" name="ISMEAR">     1</i>
  <i name="SIGMA">      0.10000000</i>
  <i name="KSPACING">      0.50000000</i>
  <i type="logical" name="KGAMMA"> F  </i>
  <i type="logical" name="LWAVE"> F  </i>
  <i type="logical" name="LCHARG"> F  </i>
  <v type="int" name="KPOINT_BSE">    -1     0     0     0</v>
  <i type="int" name="NELM">   300</i>
  <i type="string" name="GGA"> PE</i>
 </incar>
 <structure name="primitive_cell" >
  <crystal>
   <varray name="basis" >
    <v>      15.00000000       0.00000000       0.00000000 </v>
    <v>       0.00000000      15.00000000       0.00000000 </v>
    <v>       0.00000000       0.00000000      15.00000000 </v>
   </varray>
   <i name="volume">   3375.00000000 </i>
   <varray name="rec_basis" >
    <v>       0.06666667       0.00000000       0.00000000 </v>
    <v>       0.00000000       0.06666667       0.00000000 </v>
    <v>       0.00000000       0.00000000       0.06666667 </v>
   </varray>
  </crystal>
  <varray name="positions" >
   <v>       0.29177400       0.41735067      -0.45006733 </v>
   <v>       0.39879067       0.29377200      -0.43380733 </v>
   <v>       0.42243800       0.39977733       0.44967267 </v>
   <v>       0.37878200      -0.45613400       0.48746600 </v>
   <v>       0.22673933      -0.42993267      -0.45031200 </v>
   <v>       0.33271667      -0.45605467      -0.34444533 </v>
   <v>       0.45063933       0.43829267      -0.38827267 </v>
   <v>       0.48064333      -0.41167267      -0.38501333 </v>
   <v>      -0.46915200      -0.49209467       0.47877733 </v>
   <v>      -0.45134533       0.34752133      -0.46523067 </v>
   <v>       0.35568333      -0.31512000      -0.43054067 </v>
   <v>       0.48781467      -0.33000000       0.47508467 </v>
   <v>      -0.38523733       0.48206200      -0.38562733 </v>
   <v>      -0.26858000       0.49073333      -0.35467267 </v>
   <v>      -0.19003333       0.49150667      -0.36049333 </v>
  </varray>
 </structure>
 <varray name="primitive_index" >
  <v type="int" >        1 </v>
  <v type="int" >        3 </v>
  <v type="int" >        7 </v>
  <v type="int" >        2 </v>
  <v type="int" >        8 </v>
  <v type="int" >        9 </v>
  <v type="int" >        6 </v>
  <v type="int" >       13 </v>
  <v type="int" >        4 </v>
  <v type="int" >        5 </v>
  <v type="int" >       10 </v>
  <v type="int" >       11 </v>
  <v type="int" >       12 </v>
  <v type="int" >       14 </v>
  <v type="int" >       15 </v>
 </varray>
 <kpoints>
  <generation param="Monkhorst-Pack">
   <v type="int" name="divisions">       1        1        1 </v>
   <v name="usershift">      0.00000000       0.00000000       0.00000000 </v>
   <v name="genvec1">      1.00000000       0.00000000       0.00000000 </v>
   <v name="genvec2">      0.00000000       1.00000000       0.00000000 </v>
   <v name="genvec3">      0.00000000       0.00000000       1.00000000 </v>
   <v name="shift">      0.00000000       0.00000000       0.00000000 </v>
  </generation>
  <varray name="kpointlist" >
   <v>       0.00000000       0.00000000       0.00000000 </v>
  </varray>
  <varray name="weights" >
   <v>       1.00000000 </v>
  </varray>
 </kpoints>
 <parameters>
  <separator name="general" >
   <i type="string" name="SYSTEM">CuCO</i>
   <i type="logical" name="LCOMPAT"> F  </i>
  </separator>
  <separator name="electronic" >
   <i type="string" name="PREC">accura</i>
   <i name="ENMAX">    600.00000000</i>
   <i name="ENAUG">    644.87300000</i>
   <i name="EDIFF">      0.00000010</i>
   <i type="int" name="IALGO">    68</i>
   <i type="int" name="IWAVPR">    10</i>
   <i type="int" name="NBANDS">    92</i>
   <i name="NELECT">    153.00000000</i>
   <i type="int" name="TURBO">     0</i>
   <i type="int" name="IRESTART">     0</i>
   <i type="int" name="NREBOOT">     0</i>
   <i type="int" name="NMIN">     0</i>
   <i name="EREF">      0.00000000</i>
   <separator name="electronic smearing" >
    <i type="int" name="ISMEAR">     1</i>
    <i name="SIGMA">      0.10000000</i>
    <i name="KSPACING">      0.50000000</i>
    <i type="logical" name="KGAMMA"> F  </i>
   </separator>
   <separator name="electronic projectors" >
    <i type="logical" name="LREAL"> F  </i>
    <v name="ROPT">      0.00000000      0.00000000      0.00000000</v>
    <i type="int" name="LMAXPAW">  -100</i>
    <i type="int" name="LMAXMIX">     2</i>
    <i type="logical" name="NLSPLINE"> F  </i>
   </separator>
   <separator name="electronic startup" >
    <i type="int" name="ISTART">     0</i>
    <i type="int" name="ICHARG">     2</i>
    <i type="int" name="INIWAV">     1</i>
   </separator>
   <separator name="electronic spin" >
    <i type="int" name="ISPIN">     2</i>
    <i type="logical" name="LNONCOLLINEAR"> F  </i>
    <v name="MAGMOM">      0.06666667      0.06666667      0.06666667      0.06666667      0.06666667      0.06666667      0.06666667      0.06666667      0.06666667      0.06666667      0.06666667      0.06666667      0.06666667      0.06666667      0.06666667</v>
    <i name="NUPDOWN">      1.00000000</i>
    <i type="logical" name="LSORBIT"> F  </i>
    <v name="SAXIS">      0.00000000      0.00000000      1.00000000</v>
    <i type="logical" name="LSPIRAL"> F  </i>
    <v name="QSPIRAL">      0.00000000      0.00000000      0.00000000</v>
    <i type="logical" name="LZEROZ"> F  </i>
   </separator>
   <separator name="electronic exchange-correlation" >
    <i type="logical" name="LASPH"> F  </i>
    <i type="logical" name="LMETAGGA"> F  </i>
   </separator>
   <separator name="electronic convergence" >
    <i type="int" name="NELM">   300</i>
    <i type="int" name="NELMDL">    -5</i>
    <i type="int" name="NELMIN">     3</i>
    <i name="ENINI">    600.00000000</i>
    <separator name="electronic convergence detail" >
     <i type="logical" name="LDIAG"> T  </i>
     <i type="logical" name="LSUBROT"> F  </i>
     <i name="WEIMIN">      0.00000000</i>
     <i name="EBREAK">      0.00000000</i>
     <i name="DEPER">      0.30000000</i>
     <i type="int" name="NRMM">     4</i>
     <i name="TIME">      0.40000000</i>
    </separator>
   </separator>
   <separator name="electronic mixer" >
    <i name="AMIX">      0.40000000</i>
    <i name="BMIX">      1.00000000</i>
    <i name="AMIN">      0.10000000</i>
    <i name="AMIX_MAG">      1.60000000</i>
    <i name="BMIX_MAG">      1.00000000</i>
    <separator name="electronic mixer details" >
     <i type="int" name="IMIX">     4</i>
     <i type="logical" name="MIXFIRST"> F  </i>
     <i type="int" name="MAXMIX">   -45</i>
     <i name="WC">    100.00000000</i>
     <i type="int" name="INIMIX">     1</i>
     <i type="int" name="MIXPRE">     1</i>
     <i type="int" name="MREMOVE">     5</i>
    </separator>
   </separator>
   <separator name="electronic dipolcorrection" >
    <i type="logical" name="LDIPOL"> F  </i>
    <i type="logical" name="LMONO"> F  </i>
    <i type="int" name="IDIPOL">     0</i>
    <i name="EPSILON">      1.00000000</i>
    <v name="DIPOL">   -100.00000000   -100.00000000   -100.00000000</v>
    <i name="EFIELD">      0.00000000</i>
   </separator>
  </separator>
  <separator name="grids" >
   <i type="int" name="NGX">   120</i>
   <i type="int" name="NGY">   120</i>
   <i type="int" name="NGZ">   120</i>
   <i type="int" name="NGXF">   240</i>
   <i type="int" name="NGYF">   240</i>
   <i type="int" name="NGZF">   240</i>
   <i type="logical" name="ADDGRID"> F  </i>
  </separator>
  <separator name="ionic" >
   <i type="int" name="NSW">     0</i>
   <i type="int" name="IBRION">    -1</i>
   <i type="int" name="MDALGO">     0</i>
   <i type="int" name="ISIF">     2</i>
   <i name="PSTRESS">      0.00000000</i>
   <i name="EDIFFG">     -0.00100000</i>
   <i type="int" name="NFREE">     0</i>
   <i name="POTIM">      0.50000000</i>
   <i name="SMASS">     -3.00000000</i>
   <i name="SCALEE">      1.00000000</i>
  </separator>
  <separator name="ionic md" >
   <i name="TEBEG">      0.00010000</i>
   <i name="TEEND">      0.00010000</i>
   <i type="int" name="NBLOCK">     1</i>
   <i type="int" name="KBLOCK">     1</i>
   <i type="int" name="NPACO">   256</i>
   <i name="APACO">     16.00000000</i>
  </separator>
  <separator name="symmetry" >
   <i type="int" name="ISYM">     0</i>
   <i name="SYMPREC">      0.00001000</i>
  </separator>
  <separator name="dos" >
   <i type="int" name="LORBIT">     0</i>
   <v name="RWIGS">     -1.00000000     -1.00000000     -1.00000000</v>
   <i type="int" name="NEDOS">   301</i>
   <i name="EMIN">     10.00000000</i>
   <i name="EMAX">    -10.00000000</i>
   <i name="EFERMI">      0.00000000</i>
  </separator>
  <separator name="writing" >
   <i type="int" name="NWRITE">     2</i>
   <i type="logical" name="LWAVE"> F  </i>
   <i type="logical" name="LDOWNSAMPLE"> F  </i>
   <i type="logical" name="LCHARG"> F  </i>
   <i type="logical" name="LPARD"> F  </i>
   <i type="logical" name="LVTOT"> F  </i>
   <i type="logical" name="LVHAR"> F  </i>
   <i type="logical" name="LELF"> F  </i>
   <i type="logical" name="LOPTICS"> F  </i>
   <v name="STM">      0.00000000      0.00000000      0.00000000      0.00000000      0.00000000      0.00000000      0.00000000</v>
  </separator>
  <separator name="performance" >
   <i type="int" name="NPAR">     4</i>
   <i type="int" name="NSIM">     4</i>
   <i type="int" name="NBLK">    -1</i>
   <i type="logical" name="LPLANE"> T  </i>
   <i type="logical" name="LSCALAPACK"> T  </i>
   <i type="logical" name="LSCAAWARE"> F  </i>
   <i type="logical" name="LSCALU"> F  </i>
   <i type="logical" name="LASYNC"> F  </i>
   <i type="logical" name="LORBITALREAL"> F  </i>
  </separator>
  <separator name="miscellaneous" >
   <i type="int" name="IDIOT">     3</i>
   <i type="int" name="ISPECIAL">     0</i>
   <i type="logical" name="LMUSIC"> F  </i>
   <v name="POMASS">     63.54600000     12.01100000     16.00000000</v>
   <v name="DARWINR">      0.00000000      0.00000000      0.00000000</v>
   <v name="DARWINV">      1.00000000      1.00000000      1.00000000</v>
   <i type="logical" name="LCORR"> T  </i>
  </separator>
  <i type="logical" name="GGA_COMPAT"> T  </i>
  <i type="logical" name="LBERRY"> F  </i>
  <i type="int" name="ICORELEVEL">     0</i>
  <i type="logical" name="LDAU"> F  </i>
  <i type="int" name="I_CONSTRAINED_M">     0</i>
  <separator name="electronic exchange-correlation" >
   <i type="string" name="GGA">PE</i>
   <i type="int" name="VOSKOWN">     0</i>
   <i type="logical" name="LHFCALC"> F  </i>
   <i type="string" name="PRECFOCK"></i>
   <i type="logical" name="LSYMGRAD"> F  </i>
   <i type="logical" name="LHFONE"> F  </i>
   <i type="logical" name="LRHFCALC"> F  </i>
   <i type="logical" name="LTHOMAS"> F  </i>
   <i type="logical" name="LMODELHF"> F  </i>
   <i name="ENCUT4O">     -1.00000000</i>
   <i type="int" name="EXXOEP">     0</i>
   <i type="int" name="FOURORBIT">     0</i>
   <i name="AEXX">      0.00000000</i>
   <i name="HFALPHA">      0.00000000</i>
   <i name="MCALPHA">      0.00000000</i>
   <i name="ALDAX">      1.00000000</i>
   <i name="AGGAX">      1.00000000</i>
   <i name="ALDAC">      1.00000000</i>
   <i name="AGGAC">      1.00000000</i>
   <i type="int" name="NKREDX">     1</i>
   <i type="int" name="NKREDY">     1</i>
   <i type="int" name="NKREDZ">     1</i>
   <i type="logical" name="SHIFTRED"> F  </i>
   <i type="logical" name="ODDONLY"> F  </i>
   <i type="logical" name="EVENONLY"> F  </i>
   <i type="int" name="LMAXFOCK">     0</i>
   <i type="int" name="NMAXFOCKAE">     0</i>
   <i type="logical" name="LFOCKAEDFT"> F  </i>
   <i name="HFSCREEN">      0.00000000</i>
   <i name="HFSCREENC">      0.00000000</i>
   <i type="int" name="NBANDSGWLOW">     0</i>
  </separator>
  <separator name="vdW DFT" >
   <i type="logical" name="LUSE_VDW"> F  </i>
   <i name="Zab_VDW">     -0.84910000</i>
   <i name="PARAM1">      0.12340000</i>
   <i name="PARAM2">      1.00000000</i>
   <i name="PARAM3">      0.00000000</i>
  </separator>
  <separator name="model GW" >
   <i type="int" name="MODEL_GW">     0</i>
   <i name="MODEL_EPS0">    135.00000000</i>
   <i name="MODEL_ALPHA">      1.00000000</i>
  </separator>
  <separator name="linear response parameters" >
   <i type="logical" name="LEPSILON"> F  </i>
   <i type="logical" name="LRPA"> F  </i>
   <i type="logical" name="LNABLA"> F  </i>
   <i type="logical" name="LVEL"> F  </i>
   <i type="int" name="KINTER">     0</i>
   <i name="CSHIFT">      0.10000000</i>
   <i name="OMEGAMAX">     -1.00000000</i>
   <i name="DEG_THRESHOLD">      0.00200000</i>
   <i name="RTIME">     -0.10000000</i>
   <i name="WPLASMAI">      0.00000000</i>
   <v name="DFIELD">      0.00000000      0.00000000      0.00000000</v>
   <v name="WPLASMA">      0.00000000      0.00000000      0.00000000      0.00000000      0.00000000      0.00000000      0.00000000      0.00000000      0.00000000</v>
  </separator>
  <separator name="orbital magnetization" >
   <i type="logical" name="NUCIND"> F  </i>
   <v name="MAGPOS">      0.00000000      0.00000000      0.00000000</v>
   <i type="logical" name="LNICSALL"> T  </i>
   <i type="logical" name="ORBITALMAG"> F  </i>
   <i type="logical" name="LMAGBLOCH"> F  </i>
   <i type="logical" name="LCHIMAG"> F  </i>
   <i type="logical" name="LGAUGE"> T  </i>
   <i type="int" name="MAGATOM">     0</i>
   <v name="MAGDIPOL">      0.00000000      0.00000000      0.00000000</v>
   <v name="AVECCONST">      0.00000000      0.00000000      0.00000000</v>
  </separator>
  <separator name="response functions" >
   <i type="logical" name="LADDER"> F  </i>
   <i type="logical" name="LRPAFORCE"> F  </i>
   <i type="logical" name="LFXC"> F  </i>
   <i type="logical" name="LHARTREE"> T  </i>
   <i type="int" name="IBSE">     0</i>
   <v type="int" name="KPOINT">    -1     0     0     0</v>
   <i type="logical" name="LTCTE"> F  </i>
   <i type="logical" name="LTETE"> F  </i>
   <i type="logical" name="LTRIPLET"> F  </i>
   <i type="logical" name="LFXCEPS"> F  </i>
   <i type="logical" name="LFXHEG"> F  </i>
   <i type="int" name="NATURALO">     2</i>
   <i type="logical" name="L2ORDER"> F  </i>
   <i type="logical" name="LMP2LT"> F  </i>
   <i type="logical" name="LUSEW"> F  </i>
   <i name="ENCUTGW">     -2.00000000</i>
   <i name="ENCUTGWSOFT">     -2.00000000</i>
   <i name="ENCUTLF">     -1.00000000</i>
   <i type="int" name="LMAXMP2">    -1</i>
   <i name="SCISSOR">      0.00000000</i>
   <i type="int" name="NOMEGA">     0</i>
   <i type="int" name="NOMEGAR">     0</i>
   <i type="int" name="NBANDSGW">    -1</i>
   <i type="int" name="NBANDSO">    -1</i>
   <i type="int" name="NBANDSV">    -1</i>
   <i type="int" name="NELM">   300</i>
   <i type="int" name="NELMHF">     1</i>
   <i type="int" name="DIM">     3</i>
   <i type="int" name="ANTIRES">     0</i>
   <i name="OMEGAMAX">    -30.00000000</i>
   <i name="OMEGAMIN">    -30.00000000</i>
   <i name="OMEGATL">   -200.00000000</i>
   <i type="int" name="OMEGAGRID">   140</i>
   <i name="CSHIFT">     -0.10000000</i>
   <i type="logical" name="SELFENERGY"> F  </i>
   <i type="logical" name="LSPECTRAL"> F  </i>
   <i type="logical" name="LSPECTRALGW"> F  </i>
   <i type="logical" name="LSINGLES"> F  </i>
   <i type="logical" name="LFERMIGW"> F  </i>
   <i type="logical" name="ODDONLYGW"> F  </i>
   <i type="logical" name="EVENONLYGW"> F  </i>
   <i type="int" name="NKREDLFX">     1</i>
   <i type="int" name="NKREDLFY">     1</i>
   <i type="int" name="NKREDLFZ">     1</i>
   <i type="int" name="MAXMEM">  2800</i>
   <i type="int" name="TELESCOPE">     0</i>
   <i type="int" name="TAUPAR">     1</i>
   <i type="int" name="OMEGAPAR">    -1</i>
   <i name="LAMBDA">      1.00000000</i>
  </separator>
  <separator name="External order field" >
   <i name="OFIELD_KAPPA">      0.00000000</i>
   <v name="OFIELD_K">      0.00000000      0.00000000      0.00000000</v>
   <i name="OFIELD_Q6_NEAR">      0.00000000</i>
   <i name="OFIELD_Q6_FAR">      0.00000000</i>
   <i name="OFIELD_A">      0.00000000</i>
  </separator>
 </parameters>
 <atominfo>
  <atoms>      15 </atoms>
  <types>       3 </types>
  <array name="atoms" >
   <dimension dim="1">ion</dimension>
   <field type="string">element</field>
   <field type="int">atomtype</field>
   <set>
    <rc><c>Cu</c><c>   1</c></rc>
    <rc><c>Cu</c><c>   1</c></rc>
    <rc><c>Cu</c><c>   1</c></rc>
    <rc><c>Cu</c><c>   1</c></rc>
    <rc><c>Cu</c><c>   1</c></rc>
    <rc><c>Cu</c><c>   1</c></rc>
    <rc><c>Cu</c><c>   1</c></rc>
    <rc><c>Cu</c><c>   1</c></rc>
    <rc><c>Cu</c><c>   1</c></rc>
    <rc><c>Cu</c><c>   1</c></rc>
    <rc><c>Cu</c><c>   1</c></rc>
    <rc><c>Cu</c><c>   1</c></rc>
    <rc><c>Cu</c><c>   1</c></rc>
    <rc><c>C </c><c>   2</c></rc>
    <rc><c>O </c><c>   3</c></rc>
   </set>
  </array>
  <array name="atomtypes" >
   <dimension dim="1">type</dimension>
   <field type="int">atomspertype</field>
   <field type="string">element</field>
   <field>mass</field>
   <field>valence</field>
   <field type="string">pseudopotential</field>
   <set>
    <rc><c>  13</c><c>Cu</c><c>     63.54600000</c><c>     11.00000000</c><c>  PAW_PBE Cu 22Jun2005                  </c></rc>
    <rc><c>   1</c><c>C </c><c>     12.01100000</c><c>      4.00000000</c><c>  PAW_PBE C 08Apr2002                   </c></rc>
    <rc><c>   1</c><c>O </c><c>     16.00000000</c><c>      6.00000000</c><c>  PAW_PBE O 08Apr2002                   </c></rc>
   </set>
  </array>
 </atominfo>
 <structure name="initialpos" >
  <crystal>
   <varray name="basis" >
    <v>      15.00000000       0.00000000       0.00000000 </v>
    <v>       0.00000000      15.00000000       0.00000000 </v>
    <v>       0.00000000       0.00000000      15.00000000 </v>
   </varray>
   <i name="volume">   3375.00000000 </i>
   <varray name="rec_basis" >
    <v>       0.06666667       0.00000000       0.00000000 </v>
    <v>       0.00000000       0.06666667       0.00000000 </v>
    <v>       0.00000000       0.00000000       0.06666667 </v>
   </varray>
  </crystal>
  <varray name="positions" >
   <v>       0.29177400       0.41735067       0.54993267 </v>
   <v>       0.37878200       0.54386600       0.48746600 </v>
   <v>       0.39879067       0.29377200       0.56619267 </v>
   <v>       0.53084800       0.50790533       0.47877733 </v>
   <v>       0.54865467       0.34752133       0.53476933 </v>
   <v>       0.45063933       0.43829267       0.61172733 </v>
   <v>       0.42243800       0.39977733       0.44967267 </v>
   <v>       0.22673933       0.57006733       0.54968800 </v>
   <v>       0.33271667       0.54394533       0.65555467 </v>
   <v>       0.35568333       0.68488000       0.56945933 </v>
   <v>       0.48781467       0.67000000       0.47508467 </v>
   <v>       0.61476267       0.48206200       0.61437267 </v>
   <v>       0.48064333       0.58832733       0.61498667 </v>
   <v>       0.73142000       0.49073333       0.64532733 </v>
   <v>       0.80996667       0.49150667       0.63950667 </v>
  </varray>
 </structure>
 <calculation>
  <scstep>
   <time name="dav">    7.60    7.60</time>
   <time name="total">    8.79    8.80</time>
   <energy>
    <i name="alphaZ">     41.16232785 </i>
    <i name="ewald">  16750.97631803 </i>
    <i name="hartreedc"> -33768.68650241 </i>
    <i name="XCdc">    623.84150332 </i>
    <i name="pawpsdc">  16421.75059358 </i>
    <i name="pawaedc"> -17800.06104309 </i>
    <i name="eentropy">     -0.00316288 </i>
    <i name="bandstr">    188.65870658 </i>
    <i name="atom">  18662.21924712 </i>
    <i name="e_fr_energy">   1119.85798810 </i>
    <i name="e_wo_entrp">   1119.86115098 </i>
    <i name="e_0_energy">   1119.85904239 </i>
   </energy>
  </scstep>
  <scstep>
   <time name="dav">    7.43    7.44</time>
   <time name="total">    7.43    7.44</time>
   <energy>
    <i name="e_fr_energy">     85.26204171 </i>
    <i name="e_wo_entrp">     85.25615963 </i>
    <i name="e_0_energy">     85.26008102 </i>
   </energy>
  </scstep>
  <scstep>
   <time name="dav">   11.39   11.40</time>
   <time name="total">   11.39   11.40</time>
   <energy>
    <i name="e_fr_energy">    -33.84306747 </i>
    <i name="e_wo_entrp">    -33.85735394 </i>
    <i name="e_0_energy">    -33.84782963 </i>
   </energy>
  </scstep>
  <scstep>
   <time name="dav">   10.09   10.10</time>
   <time name="total">   10.09   10.10</time>
   <energy>
    <i name="e_fr_energy">    -55.80521979 </i>
    <i name="e_wo_entrp">    -55.81489038 </i>
    <i name="e_0_energy">    -55.80844332 </i>
   </energy>
  </scstep>
  <scstep>
   <time name="dav">   12.49   12.50</time>
   <time name="total">   13.17   13.18</time>
   <energy>
    <i name="e_fr_energy">    -57.58217557 </i>
    <i name="e_wo_entrp">    -57.59133159 </i>
    <i name="e_0_energy">    -57.58522758 </i>
   </energy>
  </scstep>
  <scstep>
   <time name="diag">    1.08    1.08</time>
   <time name="diis">    6.95    6.95</time>
   <time name="orth">    0.06    0.06</time>
   <time name="total">    9.93    9.94</time>
   <energy>
    <i name="e_fr_energy">    -56.85779829 </i>
    <i name="e_wo_entrp">    -56.86653415 </i>
    <i name="e_0_energy">    -56.86071024 </i>
   </energy>
  </scstep>
  <scstep>
   <time name="diag">    1.08    1.08</time>
   <time name="diis">    6.38    6.38</time>
   <time name="orth">    0.06    0.06</time>
   <time name="total">    9.37    9.37</time>
   <energy>
    <i name="e_fr_energy">    -49.27739456 </i>
    <i name="e_wo_entrp">    -49.28617867 </i>
    <i name="e_0_energy">    -49.28032260 </i>
   </energy>
  </scstep>
  <scstep>
   <time name="diag">    1.08    1.09</time>
   <time name="diis">    6.75    6.76</time>
   <time name="orth">    0.06    0.06</time>
   <time name="total">    9.74    9.75</time>
   <energy>
    <i name="e_fr_energy">    -49.00190865 </i>
    <i name="e_wo_entrp">    -49.01124151 </i>
    <i name="e_0_energy">    -49.00501961 </i>
   </energy>
  </scstep>
  <scstep>
   <time name="diag">    1.09    1.09</time>
   <time name="diis">    7.16    7.16</time>
   <time name="orth">    0.06    0.06</time>
   <time name="total">   10.15   10.16</time>
   <energy>
    <i name="e_fr_energy">    -48.97132058 </i>
    <i name="e_wo_entrp">    -48.98067086 </i>
    <i name="e_0_energy">    -48.97443734 </i>
   </energy>
  </scstep>
  <scstep>
   <time name="diag">    1.09    1.09</time>
   <time name="diis">    6.90    6.90</time>
   <time name="orth">    0.06    0.06</time>
   <time name="total">    9.89    9.90</time>
   <energy>
    <i name="e_fr_energy">    -48.91040884 </i>
    <i name="e_wo_entrp">    -48.91971393 </i>
    <i name="e_0_energy">    -48.91351054 </i>
   </energy>
  </scstep>
  <scstep>
   <time name="diag">    1.09    1.09</time>
   <time name="diis">    7.05    7.05</time>
   <time name="orth">    0.06    0.06</time>
   <time name="total">   10.04   10.05</time>
   <energy>
    <i name="e_fr_energy">    -48.90313264 </i>
    <i name="e_wo_entrp">    -48.91246399 </i>
    <i name="e_0_energy">    -48.90624309 </i>
   </energy>
  </scstep>
  <scstep>
   <time name="diag">    1.09    1.09</time>
   <time name="diis">    6.85    6.85</time>
   <time name="orth">    0.06    0.06</time>
   <time name="total">    9.85    9.85</time>
   <energy>
    <i name="e_fr_energy">    -48.90030431 </i>
    <i name="e_wo_entrp">    -48.90961219 </i>
    <i name="e_0_energy">    -48.90340693 </i>
   </energy>
  </scstep>
  <scstep>
   <time name="diag">    1.09    1.09</time>
   <time name="diis">    6.82    6.82</time>
   <time name="orth">    0.06    0.06</time>
   <time name="total">    9.82    9.82</time>
   <energy>
    <i name="e_fr_energy">    -48.89928939 </i>
    <i name="e_wo_entrp">    -48.90861044 </i>
    <i name="e_0_energy">    -48.90239641 </i>
   </energy>
  </scstep>
  <scstep>
   <time name="diag">    1.08    1.08</time>
   <time name="diis">    7.12    7.12</time>
   <time name="orth">    0.06    0.06</time>
   <time name="total">   10.12   10.12</time>
   <energy>
    <i name="e_fr_energy">    -48.90028015 </i>
    <i name="e_wo_entrp">    -48.90959122 </i>
    <i name="e_0_energy">    -48.90338384 </i>
   </energy>
  </scstep>
  <scstep>
   <time name="diag">    1.08    1.08</time>
   <time name="diis">    6.49    6.49</time>
   <time name="orth">    0.06    0.06</time>
   <time name="total">    9.49    9.50</time>
   <energy>
    <i name="e_fr_energy">    -48.90138198 </i>
    <i name="e_wo_entrp">    -48.91069452 </i>
    <i name="e_0_energy">    -48.90448616 </i>
   </energy>
  </scstep>
  <scstep>
   <time name="diag">    1.08    1.09</time>
   <time name="diis">    6.66    6.69</time>
   <time name="orth">    0.06    0.06</time>
   <time name="total">    9.66    9.69</time>
   <energy>
    <i name="e_fr_energy">    -48.90255878 </i>
    <i name="e_wo_entrp">    -48.91187622 </i>
    <i name="e_0_energy">    -48.90566459 </i>
   </energy>
  </scstep>
  <scstep>
   <time name="diag">    1.09    1.09</time>
   <time name="diis">    6.55    6.56</time>
   <time name="orth">    0.06    0.06</time>
   <time name="total">    9.56    9.56</time>
   <energy>
    <i name="e_fr_energy">    -48.90422514 </i>
    <i name="e_wo_entrp">    -48.91354341 </i>
    <i name="e_0_energy">    -48.90733123 </i>
   </energy>
  </scstep>
  <scstep>
   <time name="diag">    1.09    1.09</time>
   <time name="diis">    6.69    6.69</time>
   <time name="orth">    0.06    0.06</time>
   <time name="total">    9.69    9.69</time>
   <energy>
    <i name="e_fr_energy">    -48.90522663 </i>
    <i name="e_wo_entrp">    -48.91454443 </i>
    <i name="e_0_energy">    -48.90833257 </i>
   </energy>
  </scstep>
  <scstep>
   <time name="diag">    1.09    1.09</time>
   <time name="diis">    7.11    7.11</time>
   <time name="orth">    0.06    0.06</time>
   <time name="total">   10.12   10.12</time>
   <energy>
    <i name="e_fr_energy">    -48.90583852 </i>
    <i name="e_wo_entrp">    -48.91515445 </i>
    <i name="e_0_energy">    -48.90894383 </i>
   </energy>
  </scstep>
  <scstep>
   <time name="diag">    1.09    1.09</time>
   <time name="diis">    6.87    6.88</time>
   <time name="orth">    0.06    0.06</time>
   <time name="total">    9.88    9.89</time>
   <energy>
    <i name="e_fr_energy">    -48.90649210 </i>
    <i name="e_wo_entrp">    -48.91580899 </i>
    <i name="e_0_energy">    -48.90959773 </i>
   </energy>
  </scstep>
  <scstep>
   <time name="diag">    1.09    1.09</time>
   <time name="diis">    6.65    6.65</time>
   <time name="orth">    0.06    0.06</time>
   <time name="total">    9.66    9.66</time>
   <energy>
    <i name="e_fr_energy">    -48.90690213 </i>
    <i name="e_wo_entrp">    -48.91621922 </i>
    <i name="e_0_energy">    -48.91000783 </i>
   </energy>
  </scstep>
  <scstep>
   <time name="diag">    1.09    1.09</time>
   <time name="diis">    6.69    6.69</time>
   <time name="orth">    0.06    0.06</time>
   <time name="total">    9.70    9.70</time>
   <energy>
    <i name="e_fr_energy">    -48.90721589 </i>
    <i name="e_wo_entrp">    -48.91653294 </i>
    <i name="e_0_energy">    -48.91032157 </i>
   </energy>
  </scstep>
  <scstep>
   <time name="diag">    1.09    1.09</time>
   <time name="diis">    6.78    6.78</time>
   <time name="orth">    0.06    0.06</time>
   <time name="total">    9.79    9.80</time>
   <energy>
    <i name="e_fr_energy">    -48.90736108 </i>
    <i name="e_wo_entrp">    -48.91667801 </i>
    <i name="e_0_energy">    -48.91046672 </i>
   </energy>
  </scstep>
  <scstep>
   <time name="diag">    1.09    1.09</time>
   <time name="diis">    6.57    6.57</time>
   <time name="orth">    0.06    0.06</time>
   <time name="total">    9.59    9.60</time>
   <energy>
    <i name="e_fr_energy">    -48.90743923 </i>
    <i name="e_wo_entrp">    -48.91675617 </i>
    <i name="e_0_energy">    -48.91054488 </i>
   </energy>
  </scstep>
  <scstep>
   <time name="diag">    1.09    1.09</time>
   <time name="diis">    6.55    6.55</time>
   <time name="orth">    0.06    0.06</time>
   <time name="total">    9.57    9.58</time>
   <energy>
    <i name="e_fr_energy">    -48.90750936 </i>
    <i name="e_wo_entrp">    -48.91682641 </i>
    <i name="e_0_energy">    -48.91061504 </i>
   </energy>
  </scstep>
  <scstep>
   <time name="diag">    1.09    1.09</time>
   <time name="diis">    6.79    6.79</time>
   <time name="orth">    0.06    0.06</time>
   <time name="total">    9.81    9.81</time>
   <energy>
    <i name="e_fr_energy">    -48.90754650 </i>
    <i name="e_wo_entrp">    -48.91686348 </i>
    <i name="e_0_energy">    -48.91065216 </i>
   </energy>
  </scstep>
  <scstep>
   <time name="diag">    1.09    1.09</time>
   <time name="diis">    5.18    5.18</time>
   <time name="orth">    0.06    0.06</time>
   <time name="total">    8.20    8.21</time>
   <energy>
    <i name="e_fr_energy">    -48.90755902 </i>
    <i name="e_wo_entrp">    -48.91687598 </i>
    <i name="e_0_energy">    -48.91066467 </i>
   </energy>
  </scstep>
  <scstep>
   <time name="diag">    1.09    1.09</time>
   <time name="diis">    4.42    4.43</time>
   <time name="orth">    0.06    0.06</time>
   <time name="total">    7.45    7.45</time>
   <energy>
    <i name="e_fr_energy">    -48.90756538 </i>
    <i name="e_wo_entrp">    -48.91688236 </i>
    <i name="e_0_energy">    -48.91067104 </i>
   </energy>
  </scstep>
  <scstep>
   <time name="diag">    1.09    1.09</time>
   <time name="diis">    4.32    4.32</time>
   <time name="orth">    0.06    0.06</time>
   <time name="total">    7.35    7.36</time>
   <energy>
    <i name="e_fr_energy">    -48.90756956 </i>
    <i name="e_wo_entrp">    -48.91688655 </i>
    <i name="e_0_energy">    -48.91067522 </i>
   </energy>
  </scstep>
  <scstep>
   <time name="diag">    1.09    1.09</time>
   <time name="diis">    4.51    4.51</time>
   <time name="orth">    0.06    0.06</time>
   <time name="total">    7.55    7.56</time>
   <energy>
    <i name="e_fr_energy">    -48.90757129 </i>
    <i name="e_wo_entrp">    -48.91688830 </i>
    <i name="e_0_energy">    -48.91067696 </i>
   </energy>
  </scstep>
  <scstep>
   <time name="diag">    1.09    1.09</time>
   <time name="diis">    4.64    4.64</time>
   <time name="orth">    0.06    0.06</time>
   <time name="total">    7.69    7.70</time>
   <energy>
    <i name="e_fr_energy">    -48.90757219 </i>
    <i name="e_wo_entrp">    -48.91688921 </i>
    <i name="e_0_energy">    -48.91067786 </i>
   </energy>
  </scstep>
  <scstep>
   <time name="diag">    1.09    1.09</time>
   <time name="diis">    4.38    4.39</time>
   <time name="orth">    0.06    0.06</time>
   <time name="total">    7.44    7.44</time>
   <energy>
    <i name="e_fr_energy">    -48.90757293 </i>
    <i name="e_wo_entrp">    -48.91688994 </i>
    <i name="e_0_energy">    -48.91067860 </i>
   </energy>
  </scstep>
  <scstep>
   <time name="diag">    1.14    1.14</time>
   <time name="diis">    4.13    4.13</time>
   <time name="orth">    0.06    0.06</time>
   <time name="total">    7.24    7.25</time>
   <energy>
    <i name="e_fr_energy">    -48.90757335 </i>
    <i name="e_wo_entrp">    -48.91689036 </i>
    <i name="e_0_energy">    -48.91067902 </i>
   </energy>
  </scstep>
  <scstep>
   <time name="diag">    1.09    1.09</time>
   <time name="diis">    4.15    4.15</time>
   <time name="orth">    0.06    0.06</time>
   <time name="total">    7.22    7.23</time>
   <energy>
    <i name="e_fr_energy">    -48.90757376 </i>
    <i name="e_wo_entrp">    -48.91689077 </i>
    <i name="e_0_energy">    -48.91067943 </i>
   </energy>
  </scstep>
  <scstep>
   <time name="diag">    1.09    1.09</time>
   <time name="diis">    4.13    4.13</time>
   <time name="orth">    0.06    0.06</time>
   <time name="total">    7.21    7.21</time>
   <energy>
    <i name="e_fr_energy">    -48.90757405 </i>
    <i name="e_wo_entrp">    -48.91689105 </i>
    <i name="e_0_energy">    -48.91067972 </i>
   </energy>
  </scstep>
  <scstep>
   <time name="diag">    1.09    1.09</time>
   <time name="diis">    3.44    3.44</time>
   <time name="orth">    0.06    0.06</time>
   <time name="total">    6.52    6.53</time>
   <energy>
    <i name="e_fr_energy">    -48.90757421 </i>
    <i name="e_wo_entrp">    -48.91689122 </i>
    <i name="e_0_energy">    -48.91067988 </i>
   </energy>
  </scstep>
  <scstep>
   <time name="diag">    1.09    1.09</time>
   <time name="diis">    3.59    3.59</time>
   <time name="orth">    0.06    0.06</time>
   <time name="total">    5.92    5.93</time>
   <energy>
    <i name="alphaZ">     41.16232785 </i>
    <i name="ewald">  16750.97631803 </i>
    <i name="hartreedc"> -33722.76525421 </i>
    <i name="XCdc">    615.68655455 </i>
    <i name="pawpsdc">  17678.36209166 </i>
    <i name="pawaedc"> -19078.09109887 </i>
    <i name="eentropy">      0.00931701 </i>
    <i name="bandstr">   -996.46707744 </i>
    <i name="atom">  18662.21924712 </i>
    <i name="e_fr_energy">    -48.90757431 </i>
    <i name="e_wo_entrp">    -48.91689132 </i>
    <i name="e_0_energy">    -48.91067998 </i>
   </energy>
  </scstep>
  <structure>
   <crystal>
    <varray name="basis" >
     <v>      15.00000000       0.00000000       0.00000000 </v>
     <v>       0.00000000      15.00000000       0.00000000 </v>
     <v>       0.00000000       0.00000000      15.00000000 </v>
    </varray>
    <i name="volume">   3375.00000000 </i>
    <varray name="rec_basis" >
     <v>       0.06666667       0.00000000       0.00000000 </v>
     <v>       0.00000000       0.06666667       0.00000000 </v>
     <v>       0.00000000       0.00000000       0.06666667 </v>
    </varray>
   </crystal>
   <varray name="positions" >
    <v>       0.29177400       0.41735067       0.54993267 </v>
    <v>       0.37878200       0.54386600       0.48746600 </v>
    <v>       0.39879067       0.29377200       0.56619267 </v>
    <v>       0.53084800       0.50790533       0.47877733 </v>
    <v>       0.54865467       0.34752133       0.53476933 </v>
    <v>       0.45063933       0.43829267       0.61172733 </v>
    <v>       0.42243800       0.39977733       0.44967267 </v>
    <v>       0.22673933       0.57006733       0.54968800 </v>
    <v>       0.33271667       0.54394533       0.65555467 </v>
    <v>       0.35568333       0.68488000       0.56945933 </v>
    <v>       0.48781467       0.67000000       0.47508467 </v>
    <v>       0.61476267       0.48206200       0.61437267 </v>
    <v>       0.48064333       0.58832733       0.61498667 </v>
    <v>       0.73142000       0.49073333       0.64532733 </v>
    <v>       0.80996667       0.49150667       0.63950667 </v>
   </varray>
  </structure>
  <varray name="forces" >
   <v>       0.13643476       0.17147142       0.16727938 </v>
   <v>      -0.74509166       0.82942315       0.26889124 </v>
   <v>      -0.18495668      -0.24293171       0.08945089 </v>
   <v>       0.74011509       0.17863275       0.07603906 </v>
   <v>       0.52841783      -0.08109718      -0.21736715 </v>
   <v>      -0.32000139      -0.37323961       0.16059230 </v>
   <v>      -0.27949423      -0.65119559      -0.18775151 </v>
   <v>      -0.10679588       0.13316929      -0.36285091 </v>
   <v>       0.29579435      -0.13653319      -0.01780038 </v>
   <v>      -0.18176486      -0.26988315      -0.06118440 </v>
   <v>      -0.07203717      -0.21672810       0.22173788 </v>
   <v>      -0.33967812      -0.04092152      -0.07069351 </v>
   <v>       0.41667273       0.71485550      -0.10780113 </v>
   <v>       2.35607291      -0.04488434      -0.19737531 </v>
   <v>      -2.24368768       0.02986229       0.23883355 </v>
  </varray>
  <varray name="stress" >
   <v>      -0.22341921      -0.23614342       0.37795390 </v>
   <v>      -0.23614343       1.03854972       0.09971613 </v>
   <v>       0.37795391       0.09971613      -0.17546707 </v>
  </varray>
  <energy>
   <i name="e_fr_energy">    -48.90757431 </i>
   <i name="e_wo_entrp">    -48.91067998 </i>
   <i name="e_0_energy">      0.00931701 </i>
  </energy>
  <time name="totalsc">  347.28  347.52</time>
  <eigenvalues>
   <array>
    <dimension dim="1">band</dimension>
    <dimension dim="2">kpoint</dimension>
    <dimension dim="3">spin</dimension>
    <field>eigene</field>
    <field>occ</field>
    <set>
     <set comment="spin 1">
      <set comment="kpoint 1">
       <r>  -27.9394    1.0000 </r>
       <r>  -13.7870    1.0000 </r>
       <r>  -11.1726    1.0000 </r>
       <r>  -10.7904    1.0000 </r>
       <r>  -10.7009    1.0000 </r>
       <r>  -10.2838    1.0000 </r>
       <r>   -8.7281    1.0000 </r>
       <r>   -8.2852    1.0000 </r>
       <r>   -7.8811    1.0000 </r>
       <r>   -7.6466    1.0000 </r>
       <r>   -7.5901    1.0000 </r>
       <r>   -7.4628    1.0000 </r>
       <r>   -7.4109    1.0000 </r>
       <r>   -7.2830    1.0000 </r>
       <r>   -7.1277    1.0000 </r>
       <r>   -7.0559    1.0000 </r>
       <r>   -6.9531    1.0000 </r>
       <r>   -6.8920    1.0000 </r>
       <r>   -6.8291    1.0000 </r>
       <r>   -6.7405    1.0000 </r>
       <r>   -6.7017    1.0000 </r>
       <r>   -6.6722    1.0000 </r>
       <r>   -6.5886    1.0000 </r>
       <r>   -6.5360    1.0000 </r>
       <r>   -6.5173    1.0000 </r>
       <r>   -6.4787    1.0000 </r>
       <r>   -6.4465    1.0000 </r>
       <r>   -6.3553    1.0000 </r>
       <r>   -6.3245    1.0000 </r>
       <r>   -6.3062    1.0000 </r>
       <r>   -6.2091    1.0000 </r>
       <r>   -6.1902    1.0000 </r>
       <r>   -6.1342    1.0000 </r>
       <r>   -6.0980    1.0000 </r>
       <r>   -5.9627    1.0000 </r>
       <r>   -5.8829    1.0000 </r>
       <r>   -5.8240    1.0000 </r>
       <r>   -5.7528    1.0000 </r>
       <r>   -5.7311    1.0000 </r>
       <r>   -5.7190    1.0000 </r>
       <r>   -5.6768    1.0000 </r>
       <r>   -5.6339    1.0000 </r>
       <r>   -5.5668    1.0000 </r>
       <r>   -5.5192    1.0000 </r>
       <r>   -5.5074    1.0000 </r>
       <r>   -5.4836    1.0000 </r>
       <r>   -5.4252    1.0000 </r>
       <r>   -5.4146    1.0000 </r>
       <r>   -5.4104    1.0000 </r>
       <r>   -5.3769    1.0000 </r>
       <r>   -5.3653    1.0000 </r>
       <r>   -5.3144    1.0000 </r>
       <r>   -5.3025    1.0000 </r>
       <r>   -5.2772    1.0000 </r>
       <r>   -5.2216    1.0000 </r>
       <r>   -5.2148    1.0000 </r>
       <r>   -5.2008    1.0000 </r>
       <r>   -5.1872    1.0000 </r>
       <r>   -5.1514    1.0000 </r>
       <r>   -5.1343    1.0000 </r>
       <r>   -5.1140    1.0000 </r>
       <r>   -5.0556    1.0000 </r>
       <r>   -5.0400    1.0000 </r>
       <r>   -5.0277    1.0000 </r>
       <r>   -4.9887    1.0000 </r>
       <r>   -4.9696    1.0000 </r>
       <r>   -4.9348    1.0000 </r>
       <r>   -4.9027    1.0000 </r>
       <r>   -4.8985    1.0000 </r>
       <r>   -4.8649    1.0000 </r>
       <r>   -4.8411    1.0000 </r>
       <r>   -4.7991    1.0000 </r>
       <r>   -4.7612    1.0000 </r>
       <r>   -4.5996    1.0000 </r>
       <r>   -4.2151    1.0000 </r>
       <r>   -4.1710    1.0000 </r>
       <r>   -3.5362    1.0000 </r>
       <r>   -3.0631   -0.0000 </r>
       <r>   -2.8715   -0.0000 </r>
       <r>   -2.6037   -0.0000 </r>
       <r>   -2.3697   -0.0000 </r>
       <r>   -1.9964   -0.0000 </r>
       <r>   -1.9249   -0.0000 </r>
       <r>   -1.7941   -0.0000 </r>
       <r>   -1.3688   -0.0000 </r>
       <r>   -1.0493   -0.0000 </r>
       <r>   -0.9593   -0.0000 </r>
       <r>   -0.7092    0.0000 </r>
       <r>   -0.3905    0.0000 </r>
       <r>   -0.3027    0.0000 </r>
       <r>   -0.1160    0.0000 </r>
       <r>    0.2114    0.0000 </r>
      </set>
     </set>
     <set comment="spin 2">
      <set comment="kpoint 1">
       <r>  -27.9129    1.0000 </r>
       <r>  -13.7384    1.0000 </r>
       <r>  -11.1403    1.0000 </r>
       <r>  -10.7593    1.0000 </r>
       <r>  -10.6321    1.0000 </r>
       <r>  -10.2421    1.0000 </r>
       <r>   -8.7053    1.0000 </r>
       <r>   -8.2361    1.0000 </r>
       <r>   -7.8406    1.0000 </r>
       <r>   -7.6282    1.0000 </r>
       <r>   -7.5670    1.0000 </r>
       <r>   -7.4139    1.0000 </r>
       <r>   -7.3765    1.0000 </r>
       <r>   -7.2541    1.0000 </r>
       <r>   -7.0991    1.0000 </r>
       <r>   -7.0232    1.0000 </r>
       <r>   -6.9146    1.0000 </r>
       <r>   -6.8678    1.0000 </r>
       <r>   -6.8037    1.0000 </r>
       <r>   -6.7202    1.0000 </r>
       <r>   -6.6805    1.0000 </r>
       <r>   -6.6465    1.0000 </r>
       <r>   -6.5636    1.0000 </r>
       <r>   -6.5116    1.0000 </r>
       <r>   -6.4918    1.0000 </r>
       <r>   -6.4568    1.0000 </r>
       <r>   -6.4151    1.0000 </r>
       <r>   -6.3323    1.0000 </r>
       <r>   -6.2990    1.0000 </r>
       <r>   -6.2815    1.0000 </r>
       <r>   -6.1825    1.0000 </r>
       <r>   -6.1608    1.0000 </r>
       <r>   -6.1060    1.0000 </r>
       <r>   -6.0806    1.0000 </r>
       <r>   -5.9408    1.0000 </r>
       <r>   -5.8593    1.0000 </r>
       <r>   -5.7985    1.0000 </r>
       <r>   -5.7216    1.0000 </r>
       <r>   -5.7104    1.0000 </r>
       <r>   -5.6928    1.0000 </r>
       <r>   -5.6548    1.0000 </r>
       <r>   -5.6078    1.0000 </r>
       <r>   -5.5395    1.0000 </r>
       <r>   -5.4940    1.0000 </r>
       <r>   -5.4800    1.0000 </r>
       <r>   -5.4577    1.0000 </r>
       <r>   -5.4007    1.0000 </r>
       <r>   -5.3918    1.0000 </r>
       <r>   -5.3824    1.0000 </r>
       <r>   -5.3458    1.0000 </r>
       <r>   -5.3418    1.0000 </r>
       <r>   -5.2844    1.0000 </r>
       <r>   -5.2792    1.0000 </r>
       <r>   -5.2511    1.0000 </r>
       <r>   -5.1996    1.0000 </r>
       <r>   -5.1884    1.0000 </r>
       <r>   -5.1782    1.0000 </r>
       <r>   -5.1668    1.0000 </r>
       <r>   -5.1315    1.0000 </r>
       <r>   -5.1124    1.0000 </r>
       <r>   -5.0791    1.0000 </r>
       <r>   -5.0395    1.0000 </r>
       <r>   -5.0147    1.0000 </r>
       <r>   -5.0022    1.0000 </r>
       <r>   -4.9640    1.0000 </r>
       <r>   -4.9407    1.0000 </r>
       <r>   -4.9141    1.0000 </r>
       <r>   -4.8761    1.0000 </r>
       <r>   -4.8500    1.0000 </r>
       <r>   -4.8298    1.0000 </r>
       <r>   -4.8072    1.0000 </r>
       <r>   -4.7773    1.0000 </r>
       <r>   -4.7345    1.0000 </r>
       <r>   -4.5557    1.0000 </r>
       <r>   -4.1669    1.0347 </r>
       <r>   -4.1225    0.9653 </r>
       <r>   -3.3247   -0.0000 </r>
       <r>   -3.0078   -0.0000 </r>
       <r>   -2.8166   -0.0000 </r>
       <r>   -2.5243   -0.0000 </r>
       <r>   -2.2779   -0.0000 </r>
       <r>   -1.9711   -0.0000 </r>
       <r>   -1.8524   -0.0000 </r>
       <r>   -1.7154   -0.0000 </r>
       <r>   -1.2404    0.0000 </r>
       <r>   -0.9741    0.0000 </r>
       <r>   -0.8348    0.0000 </r>
       <r>   -0.6281    0.0000 </r>
       <r>   -0.3046    0.0000 </r>
       <r>   -0.2491    0.0000 </r>
       <r>   -0.0422    0.0000 </r>
       <r>    0.2056    0.0000 </r>
      </set>
     </set>
    </set>
   </array>
  </eigenvalues>
  <separator name="orbital magnetization" >
   <v name="MAGDIPOLOUT">      0.00000000      0.00000000      0.00000000</v>
  </separator>
  <dos>
   <i name="efermi">     -4.05094724 </i>
   <total>
    <array>
     <dimension dim="1">gridpoints</dimension>
     <dimension dim="2">spin</dimension>
     <field>energy</field>
     <field>total</field>
     <field>integrated</field>
     <set>
      <set comment="spin 1">
       <r>   -29.3469     0.0000     0.0000 </r>
       <r>   -29.2437     0.0000     0.0000 </r>
       <r>   -29.1405     0.0000     0.0000 </r>
       <r>   -29.0373     0.0000     0.0000 </r>
       <r>   -28.9340     0.0000     0.0000 </r>
       <r>   -28.8308    -0.0000    -0.0000 </r>
       <r>   -28.7276    -0.0000    -0.0000 </r>
       <r>   -28.6244    -0.0000    -0.0000 </r>
       <r>   -28.5212    -0.0000    -0.0000 </r>
       <r>   -28.4179    -0.0000    -0.0000 </r>
       <r>   -28.3147    -0.0000    -0.0000 </r>
       <r>   -28.2115    -0.0079    -0.0008 </r>
       <r>   -28.1083    -0.3608    -0.0381 </r>
       <r>   -28.0051     1.4557     0.1122 </r>
       <r>   -27.9018    14.3014     1.5884 </r>
       <r>   -27.7986     4.5979     2.0630 </r>
       <r>   -27.6954    -0.5810     2.0030 </r>
       <r>   -27.5922    -0.0291     2.0000 </r>
       <r>   -27.4890    -0.0001     2.0000 </r>
       <r>   -27.3857    -0.0000     2.0000 </r>
       <r>   -27.2825    -0.0000     2.0000 </r>
       <r>   -27.1793     0.0000     2.0000 </r>
       <r>   -27.0761     0.0000     2.0000 </r>
       <r>   -26.9729     0.0000     2.0000 </r>
       <r>   -26.8696     0.0000     2.0000 </r>
       <r>   -26.7664     0.0000     2.0000 </r>
       <r>   -26.6632     0.0000     2.0000 </r>
       <r>   -26.5600     0.0000     2.0000 </r>
       <r>   -26.4568     0.0000     2.0000 </r>
       <r>   -26.3535     0.0000     2.0000 </r>
       <r>   -26.2503     0.0000     2.0000 </r>
       <r>   -26.1471     0.0000     2.0000 </r>
       <r>   -26.0439     0.0000     2.0000 </r>
       <r>   -25.9407     0.0000     2.0000 </r>
       <r>   -25.8374     0.0000     2.0000 </r>
       <r>   -25.7342     0.0000     2.0000 </r>
       <r>   -25.6310     0.0000     2.0000 </r>
       <r>   -25.5278     0.0000     2.0000 </r>
       <r>   -25.4246     0.0000     2.0000 </r>
       <r>   -25.3213     0.0000     2.0000 </r>
       <r>   -25.2181     0.0000     2.0000 </r>
       <r>   -25.1149     0.0000     2.0000 </r>
       <r>   -25.0117     0.0000     2.0000 </r>
       <r>   -24.9085     0.0000     2.0000 </r>
       <r>   -24.8053     0.0000     2.0000 </r>
       <r>   -24.7020     0.0000     2.0000 </r>
       <r>   -24.5988     0.0000     2.0000 </r>
       <r>   -24.4956     0.0000     2.0000 </r>
       <r>   -24.3924     0.0000     2.0000 </r>
       <r>   -24.2892     0.0000     2.0000 </r>
       <r>   -24.1859     0.0000     2.0000 </r>
       <r>   -24.0827     0.0000     2.0000 </r>
       <r>   -23.9795     0.0000     2.0000 </r>
       <r>   -23.8763     0.0000     2.0000 </r>
       <r>   -23.7731     0.0000     2.0000 </r>
       <r>   -23.6698     0.0000     2.0000 </r>
       <r>   -23.5666     0.0000     2.0000 </r>
       <r>   -23.4634     0.0000     2.0000 </r>
       <r>   -23.3602     0.0000     2.0000 </r>
       <r>   -23.2570     0.0000     2.0000 </r>
       <r>   -23.1537     0.0000     2.0000 </r>
       <r>   -23.0505     0.0000     2.0000 </r>
       <r>   -22.9473     0.0000     2.0000 </r>
       <r>   -22.8441     0.0000     2.0000 </r>
       <r>   -22.7409     0.0000     2.0000 </r>
       <r>   -22.6376     0.0000     2.0000 </r>
       <r>   -22.5344     0.0000     2.0000 </r>
       <r>   -22.4312     0.0000     2.0000 </r>
       <r>   -22.3280     0.0000     2.0000 </r>
       <r>   -22.2248     0.0000     2.0000 </r>
       <r>   -22.1215     0.0000     2.0000 </r>
       <r>   -22.0183     0.0000     2.0000 </r>
       <r>   -21.9151     0.0000     2.0000 </r>
       <r>   -21.8119     0.0000     2.0000 </r>
       <r>   -21.7087     0.0000     2.0000 </r>
       <r>   -21.6054     0.0000     2.0000 </r>
       <r>   -21.5022     0.0000     2.0000 </r>
       <r>   -21.3990     0.0000     2.0000 </r>
       <r>   -21.2958     0.0000     2.0000 </r>
       <r>   -21.1926     0.0000     2.0000 </r>
       <r>   -21.0893     0.0000     2.0000 </r>
       <r>   -20.9861     0.0000     2.0000 </r>
       <r>   -20.8829     0.0000     2.0000 </r>
       <r>   -20.7797     0.0000     2.0000 </r>
       <r>   -20.6765     0.0000     2.0000 </r>
       <r>   -20.5733     0.0000     2.0000 </r>
       <r>   -20.4700     0.0000     2.0000 </r>
       <r>   -20.3668     0.0000     2.0000 </r>
       <r>   -20.2636     0.0000     2.0000 </r>
       <r>   -20.1604     0.0000     2.0000 </r>
       <r>   -20.0572     0.0000     2.0000 </r>
       <r>   -19.9539     0.0000     2.0000 </r>
       <r>   -19.8507     0.0000     2.0000 </r>
       <r>   -19.7475     0.0000     2.0000 </r>
       <r>   -19.6443     0.0000     2.0000 </r>
       <r>   -19.5411     0.0000     2.0000 </r>
       <r>   -19.4378     0.0000     2.0000 </r>
       <r>   -19.3346     0.0000     2.0000 </r>
       <r>   -19.2314     0.0000     2.0000 </r>
       <r>   -19.1282     0.0000     2.0000 </r>
       <r>   -19.0250     0.0000     2.0000 </r>
       <r>   -18.9217     0.0000     2.0000 </r>
       <r>   -18.8185     0.0000     2.0000 </r>
       <r>   -18.7153     0.0000     2.0000 </r>
       <r>   -18.6121     0.0000     2.0000 </r>
       <r>   -18.5089     0.0000     2.0000 </r>
       <r>   -18.4056     0.0000     2.0000 </r>
       <r>   -18.3024     0.0000     2.0000 </r>
       <r>   -18.1992     0.0000     2.0000 </r>
       <r>   -18.0960     0.0000     2.0000 </r>
       <r>   -17.9928     0.0000     2.0000 </r>
       <r>   -17.8895     0.0000     2.0000 </r>
       <r>   -17.7863     0.0000     2.0000 </r>
       <r>   -17.6831     0.0000     2.0000 </r>
       <r>   -17.5799     0.0000     2.0000 </r>
       <r>   -17.4767     0.0000     2.0000 </r>
       <r>   -17.3734     0.0000     2.0000 </r>
       <r>   -17.2702     0.0000     2.0000 </r>
       <r>   -17.1670     0.0000     2.0000 </r>
       <r>   -17.0638     0.0000     2.0000 </r>
       <r>   -16.9606     0.0000     2.0000 </r>
       <r>   -16.8573     0.0000     2.0000 </r>
       <r>   -16.7541     0.0000     2.0000 </r>
       <r>   -16.6509     0.0000     2.0000 </r>
       <r>   -16.5477     0.0000     2.0000 </r>
       <r>   -16.4445     0.0000     2.0000 </r>
       <r>   -16.3412     0.0000     2.0000 </r>
       <r>   -16.2380     0.0000     2.0000 </r>
       <r>   -16.1348     0.0000     2.0000 </r>
       <r>   -16.0316     0.0000     2.0000 </r>
       <r>   -15.9284     0.0000     2.0000 </r>
       <r>   -15.8252     0.0000     2.0000 </r>
       <r>   -15.7219     0.0000     2.0000 </r>
       <r>   -15.6187     0.0000     2.0000 </r>
       <r>   -15.5155     0.0000     2.0000 </r>
       <r>   -15.4123     0.0000     2.0000 </r>
       <r>   -15.3091     0.0000     2.0000 </r>
       <r>   -15.2058     0.0000     2.0000 </r>
       <r>   -15.1026     0.0000     2.0000 </r>
       <r>   -14.9994     0.0000     2.0000 </r>
       <r>   -14.8962     0.0000     2.0000 </r>
       <r>   -14.7930     0.0000     2.0000 </r>
       <r>   -14.6897    -0.0000     2.0000 </r>
       <r>   -14.5865    -0.0000     2.0000 </r>
       <r>   -14.4833    -0.0000     2.0000 </r>
       <r>   -14.3801    -0.0000     2.0000 </r>
       <r>   -14.2769    -0.0000     2.0000 </r>
       <r>   -14.1736    -0.0000     2.0000 </r>
       <r>   -14.0704    -0.0044     1.9995 </r>
       <r>   -13.9672    -0.2739     1.9713 </r>
       <r>   -13.8640     0.6304     2.0363 </r>
       <r>   -13.7608    13.4830     3.4280 </r>
       <r>   -13.6575     6.2148     4.0695 </r>
       <r>   -13.5543    -0.6268     4.0048 </r>
       <r>   -13.4511    -0.0467     4.0000 </r>
       <r>   -13.3479    -0.0002     4.0000 </r>
       <r>   -13.2447    -0.0000     4.0000 </r>
       <r>   -13.1414    -0.0000     4.0000 </r>
       <r>   -13.0382     0.0000     4.0000 </r>
       <r>   -12.9350     0.0000     4.0000 </r>
       <r>   -12.8318     0.0000     4.0000 </r>
       <r>   -12.7286     0.0000     4.0000 </r>
       <r>   -12.6253     0.0000     4.0000 </r>
       <r>   -12.5221     0.0000     4.0000 </r>
       <r>   -12.4189     0.0000     4.0000 </r>
       <r>   -12.3157     0.0000     4.0000 </r>
       <r>   -12.2125     0.0000     4.0000 </r>
       <r>   -12.1092     0.0000     4.0000 </r>
       <r>   -12.0060    -0.0000     4.0000 </r>
       <r>   -11.9028    -0.0000     4.0000 </r>
       <r>   -11.7996    -0.0000     4.0000 </r>
       <r>   -11.6964    -0.0000     4.0000 </r>
       <r>   -11.5932    -0.0000     4.0000 </r>
       <r>   -11.4899    -0.0007     3.9999 </r>
       <r>   -11.3867    -0.0951     3.9901 </r>
       <r>   -11.2835    -0.5444     3.9339 </r>
       <r>   -11.1803     9.0788     4.8710 </r>
       <r>   -11.0771    11.3195     6.0394 </r>
       <r>   -10.9738    -0.4831     5.9896 </r>
       <r>   -10.8706    -0.0776     5.9815 </r>
       <r>   -10.7674    14.5534     7.4837 </r>
       <r>   -10.6642    20.9669     9.6479 </r>
       <r>   -10.5610     4.0743    10.0685 </r>
       <r>   -10.4577    -0.9597     9.9694 </r>
       <r>   -10.3545     1.0254    10.0753 </r>
       <r>   -10.2513    13.9884    11.5192 </r>
       <r>   -10.1481     5.3021    12.0664 </r>
       <r>   -10.0449    -0.6073    12.0037 </r>
       <r>    -9.9416    -0.0361    12.0000 </r>
       <r>    -9.8384    -0.0001    12.0000 </r>
       <r>    -9.7352    -0.0000    12.0000 </r>
       <r>    -9.6320    -0.0000    12.0000 </r>
       <r>    -9.5288    -0.0000    12.0000 </r>
       <r>    -9.4255    -0.0000    12.0000 </r>
       <r>    -9.3223    -0.0000    12.0000 </r>
       <r>    -9.2191    -0.0000    12.0000 </r>
       <r>    -9.1159    -0.0000    12.0000 </r>
       <r>    -9.0127    -0.0042    11.9996 </r>
       <r>    -8.9094    -0.2654    11.9722 </r>
       <r>    -8.8062     0.5575    12.0297 </r>
       <r>    -8.7030    13.3723    13.4100 </r>
       <r>    -8.5998     6.3929    14.0699 </r>
       <r>    -8.4966    -0.7331    13.9942 </r>
       <r>    -8.3933    -0.5570    13.9367 </r>
       <r>    -8.2901     9.4909    14.9164 </r>
       <r>    -8.1869    10.9474    16.0463 </r>
       <r>    -8.0837    -0.4436    16.0006 </r>
       <r>    -7.9805    -0.4786    15.9511 </r>
       <r>    -7.8772    10.7338    17.0591 </r>
       <r>    -7.7740     8.7834    17.9657 </r>
       <r>    -7.6708     6.3174    18.6178 </r>
       <r>    -7.5676    25.3783    21.2373 </r>
       <r>    -7.4644    19.6529    23.2659 </r>
       <r>    -7.3611    24.7643    25.8220 </r>
       <r>    -7.2579    15.2052    27.3915 </r>
       <r>    -7.1547    11.4067    28.5689 </r>
       <r>    -7.0515    22.9490    30.9377 </r>
       <r>    -6.9483    22.7107    33.2819 </r>
       <r>    -6.8451    29.8037    36.3582 </r>
       <r>    -6.7418    29.8951    39.4440 </r>
       <r>    -6.6386    39.7418    43.5461 </r>
       <r>    -6.5354    40.5467    47.7313 </r>
       <r>    -6.4322    50.5587    52.9500 </r>
       <r>    -6.3290    39.0867    56.9845 </r>
       <r>    -6.2257    40.5634    61.1714 </r>
       <r>    -6.1225    43.9105    65.7038 </r>
       <r>    -6.0193    24.2527    68.2072 </r>
       <r>    -5.9161    18.2442    70.0903 </r>
       <r>    -5.8129    30.1144    73.1987 </r>
       <r>    -5.7096    53.2185    78.6919 </r>
       <r>    -5.6064    49.0141    83.7511 </r>
       <r>    -5.5032    48.9628    88.8051 </r>
       <r>    -5.4000    78.1591    96.8726 </r>
       <r>    -5.2968    78.9553   105.0223 </r>
       <r>    -5.1935    81.1623   113.3999 </r>
       <r>    -5.0903    81.5431   121.8167 </r>
       <r>    -4.9871    72.5955   129.3100 </r>
       <r>    -4.8839    79.1694   137.4818 </r>
       <r>    -4.7807    63.4593   144.0320 </r>
       <r>    -4.6774    20.8367   146.1828 </r>
       <r>    -4.5742    12.2397   147.4462 </r>
       <r>    -4.4710     6.0268   148.0683 </r>
       <r>    -4.3678    -1.2970   147.9344 </r>
       <r>    -4.2646     2.8825   148.2319 </r>
       <r>    -4.1613    26.2707   150.9436 </r>
       <r>    -4.0581    11.3649   152.1166 </r>
       <r>    -3.9549    -1.0270   152.0106 </r>
       <r>    -3.8517    -0.1030   152.0000 </r>
       <r>    -3.7485    -0.1021   151.9895 </r>
       <r>    -3.6452    -0.5207   151.9357 </r>
       <r>    -3.5420     9.3576   152.9016 </r>
       <r>    -3.4388    11.0717   154.0444 </r>
       <r>    -3.3356    -0.2862   154.0149 </r>
       <r>    -3.2324    -0.5080   153.9624 </r>
       <r>    -3.1291     1.4057   154.1075 </r>
       <r>    -3.0259    13.7992   155.5319 </r>
       <r>    -2.9227     7.5405   156.3102 </r>
       <r>    -2.8195    14.0068   157.7560 </r>
       <r>    -2.7163     2.2001   157.9831 </r>
       <r>    -2.6131     8.3122   158.8410 </r>
       <r>    -2.5098    10.9538   159.9717 </r>
       <r>    -2.4066     4.5072   160.4369 </r>
       <r>    -2.3034    14.1006   161.8924 </r>
       <r>    -2.2002     1.2628   162.0227 </r>
       <r>    -2.0970    -1.0534   161.9140 </r>
       <r>    -1.9937    11.6641   163.1179 </r>
       <r>    -1.8905    23.6994   165.5642 </r>
       <r>    -1.7873    15.7721   167.1922 </r>
       <r>    -1.6841     8.4927   168.0688 </r>
       <r>    -1.5809    -0.6707   167.9995 </r>
       <r>    -1.4776    -0.6151   167.9361 </r>
       <r>    -1.3744     9.3954   168.9058 </r>
       <r>    -1.2712    10.9639   170.0375 </r>
       <r>    -1.1680    -1.0117   169.9331 </r>
       <r>    -1.0648     7.2510   170.6816 </r>
       <r>    -0.9615    22.2189   172.9750 </r>
       <r>    -0.8583    10.0989   174.0174 </r>
       <r>    -0.7551     2.9378   174.3206 </r>
       <r>    -0.6519    14.4676   175.8140 </r>
       <r>    -0.5487     1.7546   175.9951 </r>
       <r>    -0.4454     1.4749   176.1473 </r>
       <r>    -0.3422    18.9132   178.0995 </r>
       <r>    -0.2390    17.0051   179.8548 </r>
       <r>    -0.1358     8.3180   180.7134 </r>
       <r>    -0.0326    12.4104   181.9943 </r>
       <r>     0.0707    -0.3225   181.9611 </r>
       <r>     0.1739     4.3681   182.4119 </r>
       <r>     0.2771    14.2983   183.8878 </r>
       <r>     0.3803     1.4557   184.0381 </r>
       <r>     0.4835    -0.3608   184.0008 </r>
       <r>     0.5868    -0.0079   184.0000 </r>
       <r>     0.6900    -0.0000   184.0000 </r>
       <r>     0.7932    -0.0000   184.0000 </r>
       <r>     0.8964    -0.0000   184.0000 </r>
       <r>     0.9996     0.0000   184.0000 </r>
       <r>     1.1029     0.0000   184.0000 </r>
       <r>     1.2061     0.0000   184.0000 </r>
       <r>     1.3093     0.0000   184.0000 </r>
       <r>     1.4125     0.0000   184.0000 </r>
       <r>     1.5157     0.0000   184.0000 </r>
       <r>     1.6189     0.0000   184.0000 </r>
      </set>
      <set comment="spin 2">
       <r>   -29.3469     0.0000     0.0000 </r>
       <r>   -29.2437     0.0000     0.0000 </r>
       <r>   -29.1405     0.0000     0.0000 </r>
       <r>   -29.0373     0.0000     0.0000 </r>
       <r>   -28.9340     0.0000     0.0000 </r>
       <r>   -28.8308     0.0000     0.0000 </r>
       <r>   -28.7276    -0.0000    -0.0000 </r>
       <r>   -28.6244    -0.0000    -0.0000 </r>
       <r>   -28.5212    -0.0000    -0.0000 </r>
       <r>   -28.4179    -0.0000    -0.0000 </r>
       <r>   -28.3147    -0.0000    -0.0000 </r>
       <r>   -28.2115    -0.0020    -0.0002 </r>
       <r>   -28.1083    -0.1773    -0.0185 </r>
       <r>   -28.0051    -0.1108    -0.0299 </r>
       <r>   -27.9018    11.7785     1.1858 </r>
       <r>   -27.7986     8.5524     2.0686 </r>
       <r>   -27.6954    -0.5801     2.0087 </r>
       <r>   -27.5922    -0.0840     2.0001 </r>
       <r>   -27.4890    -0.0005     2.0000 </r>
       <r>   -27.3857    -0.0000     2.0000 </r>
       <r>   -27.2825    -0.0000     2.0000 </r>
       <r>   -27.1793     0.0000     2.0000 </r>
       <r>   -27.0761     0.0000     2.0000 </r>
       <r>   -26.9729     0.0000     2.0000 </r>
       <r>   -26.8696     0.0000     2.0000 </r>
       <r>   -26.7664     0.0000     2.0000 </r>
       <r>   -26.6632     0.0000     2.0000 </r>
       <r>   -26.5600     0.0000     2.0000 </r>
       <r>   -26.4568     0.0000     2.0000 </r>
       <r>   -26.3535     0.0000     2.0000 </r>
       <r>   -26.2503     0.0000     2.0000 </r>
       <r>   -26.1471     0.0000     2.0000 </r>
       <r>   -26.0439     0.0000     2.0000 </r>
       <r>   -25.9407     0.0000     2.0000 </r>
       <r>   -25.8374     0.0000     2.0000 </r>
       <r>   -25.7342     0.0000     2.0000 </r>
       <r>   -25.6310     0.0000     2.0000 </r>
       <r>   -25.5278     0.0000     2.0000 </r>
       <r>   -25.4246     0.0000     2.0000 </r>
       <r>   -25.3213     0.0000     2.0000 </r>
       <r>   -25.2181     0.0000     2.0000 </r>
       <r>   -25.1149     0.0000     2.0000 </r>
       <r>   -25.0117     0.0000     2.0000 </r>
       <r>   -24.9085     0.0000     2.0000 </r>
       <r>   -24.8053     0.0000     2.0000 </r>
       <r>   -24.7020     0.0000     2.0000 </r>
       <r>   -24.5988     0.0000     2.0000 </r>
       <r>   -24.4956     0.0000     2.0000 </r>
       <r>   -24.3924     0.0000     2.0000 </r>
       <r>   -24.2892     0.0000     2.0000 </r>
       <r>   -24.1859     0.0000     2.0000 </r>
       <r>   -24.0827     0.0000     2.0000 </r>
       <r>   -23.9795     0.0000     2.0000 </r>
       <r>   -23.8763     0.0000     2.0000 </r>
       <r>   -23.7731     0.0000     2.0000 </r>
       <r>   -23.6698     0.0000     2.0000 </r>
       <r>   -23.5666     0.0000     2.0000 </r>
       <r>   -23.4634     0.0000     2.0000 </r>
       <r>   -23.3602     0.0000     2.0000 </r>
       <r>   -23.2570     0.0000     2.0000 </r>
       <r>   -23.1537     0.0000     2.0000 </r>
       <r>   -23.0505     0.0000     2.0000 </r>
       <r>   -22.9473     0.0000     2.0000 </r>
       <r>   -22.8441     0.0000     2.0000 </r>
       <r>   -22.7409     0.0000     2.0000 </r>
       <r>   -22.6376     0.0000     2.0000 </r>
       <r>   -22.5344     0.0000     2.0000 </r>
       <r>   -22.4312     0.0000     2.0000 </r>
       <r>   -22.3280     0.0000     2.0000 </r>
       <r>   -22.2248     0.0000     2.0000 </r>
       <r>   -22.1215     0.0000     2.0000 </r>
       <r>   -22.0183     0.0000     2.0000 </r>
       <r>   -21.9151     0.0000     2.0000 </r>
       <r>   -21.8119     0.0000     2.0000 </r>
       <r>   -21.7087     0.0000     2.0000 </r>
       <r>   -21.6054     0.0000     2.0000 </r>
       <r>   -21.5022     0.0000     2.0000 </r>
       <r>   -21.3990     0.0000     2.0000 </r>
       <r>   -21.2958     0.0000     2.0000 </r>
       <r>   -21.1926     0.0000     2.0000 </r>
       <r>   -21.0893     0.0000     2.0000 </r>
       <r>   -20.9861     0.0000     2.0000 </r>
       <r>   -20.8829     0.0000     2.0000 </r>
       <r>   -20.7797     0.0000     2.0000 </r>
       <r>   -20.6765     0.0000     2.0000 </r>
       <r>   -20.5733     0.0000     2.0000 </r>
       <r>   -20.4700     0.0000     2.0000 </r>
       <r>   -20.3668     0.0000     2.0000 </r>
       <r>   -20.2636     0.0000     2.0000 </r>
       <r>   -20.1604     0.0000     2.0000 </r>
       <r>   -20.0572     0.0000     2.0000 </r>
       <r>   -19.9539     0.0000     2.0000 </r>
       <r>   -19.8507     0.0000     2.0000 </r>
       <r>   -19.7475     0.0000     2.0000 </r>
       <r>   -19.6443     0.0000     2.0000 </r>
       <r>   -19.5411     0.0000     2.0000 </r>
       <r>   -19.4378     0.0000     2.0000 </r>
       <r>   -19.3346     0.0000     2.0000 </r>
       <r>   -19.2314     0.0000     2.0000 </r>
       <r>   -19.1282     0.0000     2.0000 </r>
       <r>   -19.0250     0.0000     2.0000 </r>
       <r>   -18.9217     0.0000     2.0000 </r>
       <r>   -18.8185     0.0000     2.0000 </r>
       <r>   -18.7153     0.0000     2.0000 </r>
       <r>   -18.6121     0.0000     2.0000 </r>
       <r>   -18.5089     0.0000     2.0000 </r>
       <r>   -18.4056     0.0000     2.0000 </r>
       <r>   -18.3024     0.0000     2.0000 </r>
       <r>   -18.1992     0.0000     2.0000 </r>
       <r>   -18.0960     0.0000     2.0000 </r>
       <r>   -17.9928     0.0000     2.0000 </r>
       <r>   -17.8895     0.0000     2.0000 </r>
       <r>   -17.7863     0.0000     2.0000 </r>
       <r>   -17.6831     0.0000     2.0000 </r>
       <r>   -17.5799     0.0000     2.0000 </r>
       <r>   -17.4767     0.0000     2.0000 </r>
       <r>   -17.3734     0.0000     2.0000 </r>
       <r>   -17.2702     0.0000     2.0000 </r>
       <r>   -17.1670     0.0000     2.0000 </r>
       <r>   -17.0638     0.0000     2.0000 </r>
       <r>   -16.9606     0.0000     2.0000 </r>
       <r>   -16.8573     0.0000     2.0000 </r>
       <r>   -16.7541     0.0000     2.0000 </r>
       <r>   -16.6509     0.0000     2.0000 </r>
       <r>   -16.5477     0.0000     2.0000 </r>
       <r>   -16.4445     0.0000     2.0000 </r>
       <r>   -16.3412     0.0000     2.0000 </r>
       <r>   -16.2380     0.0000     2.0000 </r>
       <r>   -16.1348     0.0000     2.0000 </r>
       <r>   -16.0316     0.0000     2.0000 </r>
       <r>   -15.9284     0.0000     2.0000 </r>
       <r>   -15.8252     0.0000     2.0000 </r>
       <r>   -15.7219     0.0000     2.0000 </r>
       <r>   -15.6187     0.0000     2.0000 </r>
       <r>   -15.5155     0.0000     2.0000 </r>
       <r>   -15.4123     0.0000     2.0000 </r>
       <r>   -15.3091     0.0000     2.0000 </r>
       <r>   -15.2058     0.0000     2.0000 </r>
       <r>   -15.1026     0.0000     2.0000 </r>
       <r>   -14.9994     0.0000     2.0000 </r>
       <r>   -14.8962     0.0000     2.0000 </r>
       <r>   -14.7930     0.0000     2.0000 </r>
       <r>   -14.6897     0.0000     2.0000 </r>
       <r>   -14.5865    -0.0000     2.0000 </r>
       <r>   -14.4833    -0.0000     2.0000 </r>
       <r>   -14.3801    -0.0000     2.0000 </r>
       <r>   -14.2769    -0.0000     2.0000 </r>
       <r>   -14.1736    -0.0000     2.0000 </r>
       <r>   -14.0704    -0.0003     2.0000 </r>
       <r>   -13.9672    -0.0546     1.9943 </r>
       <r>   -13.8640    -0.6294     1.9294 </r>
       <r>   -13.7608     6.8032     2.6316 </r>
       <r>   -13.6575    13.1056     3.9844 </r>
       <r>   -13.5543     0.4019     4.0258 </r>
       <r>   -13.4511    -0.2467     4.0004 </r>
       <r>   -13.3479    -0.0036     4.0000 </r>
       <r>   -13.2447    -0.0000     4.0000 </r>
       <r>   -13.1414    -0.0000     4.0000 </r>
       <r>   -13.0382    -0.0000     4.0000 </r>
       <r>   -12.9350     0.0000     4.0000 </r>
       <r>   -12.8318     0.0000     4.0000 </r>
       <r>   -12.7286     0.0000     4.0000 </r>
       <r>   -12.6253     0.0000     4.0000 </r>
       <r>   -12.5221     0.0000     4.0000 </r>
       <r>   -12.4189     0.0000     4.0000 </r>
       <r>   -12.3157     0.0000     4.0000 </r>
       <r>   -12.2125     0.0000     4.0000 </r>
       <r>   -12.1092     0.0000     4.0000 </r>
       <r>   -12.0060    -0.0000     4.0000 </r>
       <r>   -11.9028    -0.0000     4.0000 </r>
       <r>   -11.7996    -0.0000     4.0000 </r>
       <r>   -11.6964    -0.0000     4.0000 </r>
       <r>   -11.5932    -0.0000     4.0000 </r>
       <r>   -11.4899    -0.0001     4.0000 </r>
       <r>   -11.3867    -0.0263     3.9973 </r>
       <r>   -11.2835    -0.5659     3.9389 </r>
       <r>   -11.1803     4.2765     4.3803 </r>
       <r>   -11.0771    14.4174     5.8684 </r>
       <r>   -10.9738     1.5696     6.0305 </r>
       <r>   -10.8706    -0.9675     5.9306 </r>
       <r>   -10.7674     8.3844     6.7960 </r>
       <r>   -10.6642    16.7575     8.5257 </r>
       <r>   -10.5610    13.7465     9.9446 </r>
       <r>   -10.4577     0.7709    10.0242 </r>
       <r>   -10.3545    -0.8813     9.9332 </r>
       <r>   -10.2513     8.8266    10.8443 </r>
       <r>   -10.1481    11.5393    12.0354 </r>
       <r>   -10.0449    -0.1734    12.0175 </r>
       <r>    -9.9416    -0.1676    12.0002 </r>
       <r>    -9.8384    -0.0018    12.0000 </r>
       <r>    -9.7352    -0.0000    12.0000 </r>
       <r>    -9.6320    -0.0000    12.0000 </r>
       <r>    -9.5288    -0.0000    12.0000 </r>
       <r>    -9.4255    -0.0000    12.0000 </r>
       <r>    -9.3223    -0.0000    12.0000 </r>
       <r>    -9.2191    -0.0000    12.0000 </r>
       <r>    -9.1159    -0.0000    12.0000 </r>
       <r>    -9.0127    -0.0012    11.9999 </r>
       <r>    -8.9094    -0.1338    11.9861 </r>
       <r>    -8.8062    -0.3707    11.9478 </r>
       <r>    -8.7030    10.5635    13.0382 </r>
       <r>    -8.5998     9.8980    14.0598 </r>
       <r>    -8.4966    -0.4777    14.0105 </r>
       <r>    -8.3933    -0.5730    13.9514 </r>
       <r>    -8.2901     2.5798    14.2177 </r>
       <r>    -8.1869    14.6688    15.7318 </r>
       <r>    -8.0837     3.0826    16.0500 </r>
       <r>    -7.9805    -1.0832    15.9381 </r>
       <r>    -7.8772     4.6767    16.4209 </r>
       <r>    -7.7740    13.5839    17.8230 </r>
       <r>    -7.6708     4.8577    18.3244 </r>
       <r>    -7.5676    23.6330    20.7638 </r>
       <r>    -7.4644    15.1383    22.3264 </r>
       <r>    -7.3611    25.6839    24.9774 </r>
       <r>    -7.2579    19.6380    27.0045 </r>
       <r>    -7.1547    11.4514    28.1865 </r>
       <r>    -7.0515    19.2695    30.1755 </r>
       <r>    -6.9483    21.7537    32.4209 </r>
       <r>    -6.8451    30.3620    35.5548 </r>
       <r>    -6.7418    30.2328    38.6754 </r>
       <r>    -6.6386    38.9729    42.6982 </r>
       <r>    -6.5354    36.7395    46.4904 </r>
       <r>    -6.4322    51.8101    51.8383 </r>
       <r>    -6.3290    39.4493    55.9102 </r>
       <r>    -6.2257    41.1657    60.1593 </r>
       <r>    -6.1225    42.8236    64.5795 </r>
       <r>    -6.0193    32.5837    67.9428 </r>
       <r>    -5.9161    15.5799    69.5510 </r>
       <r>    -5.8129    26.7795    72.3151 </r>
       <r>    -5.7096    46.4820    77.1130 </r>
       <r>    -5.6064    54.9017    82.7799 </r>
       <r>    -5.5032    42.8095    87.1987 </r>
       <r>    -5.4000    72.1821    94.6493 </r>
       <r>    -5.2968    81.7915   103.0918 </r>
       <r>    -5.1935    79.6876   111.3171 </r>
       <r>    -5.0903    85.0549   120.0964 </r>
       <r>    -4.9871    71.3659   127.4628 </r>
       <r>    -4.8839    72.6559   134.9623 </r>
       <r>    -4.7807    73.1407   142.5119 </r>
       <r>    -4.6774    33.5244   145.9722 </r>
       <r>    -4.5742     7.6344   146.7603 </r>
       <r>    -4.4710    12.0446   148.0035 </r>
       <r>    -4.3678     0.0125   148.0048 </r>
       <r>    -4.2646    -1.0812   147.8932 </r>
       <r>    -4.1613    15.4518   149.4881 </r>
       <r>    -4.0581    23.7692   151.9415 </r>
       <r>    -3.9549     1.0492   152.0498 </r>
       <r>    -3.8517    -0.4738   152.0009 </r>
       <r>    -3.7485    -0.0092   152.0000 </r>
       <r>    -3.6452    -0.0006   151.9999 </r>
       <r>    -3.5420    -0.0844   151.9912 </r>
       <r>    -3.4388    -0.5788   151.9315 </r>
       <r>    -3.3356     8.5737   152.8165 </r>
       <r>    -3.2324    11.6958   154.0237 </r>
       <r>    -3.1291    -0.7385   153.9475 </r>
       <r>    -3.0259     7.1709   154.6876 </r>
       <r>    -2.9227    12.1645   155.9432 </r>
       <r>    -2.8195     9.9781   156.9732 </r>
       <r>    -2.7163    10.2444   158.0306 </r>
       <r>    -2.6131    -0.3359   157.9959 </r>
       <r>    -2.5098    12.0280   159.2375 </r>
       <r>    -2.4066     7.3909   160.0004 </r>
       <r>    -2.3034     5.7254   160.5913 </r>
       <r>    -2.2002    13.2835   161.9624 </r>
       <r>    -2.0970    -0.0757   161.9546 </r>
       <r>    -1.9937     5.9056   162.5642 </r>
       <r>    -1.8905    17.3367   164.3537 </r>
       <r>    -1.7873    15.7193   165.9762 </r>
       <r>    -1.6841    15.1591   167.5409 </r>
       <r>    -1.5809     5.1059   168.0680 </r>
       <r>    -1.4776    -0.6593   167.9999 </r>
       <r>    -1.3744    -0.6525   167.9326 </r>
       <r>    -1.2712     5.5518   168.5056 </r>
       <r>    -1.1680    13.6738   169.9170 </r>
       <r>    -1.0648     0.8204   170.0017 </r>
       <r>    -0.9615    11.0304   171.1403 </r>
       <r>    -0.8583    14.8964   172.6779 </r>
       <r>    -0.7551    11.9999   173.9165 </r>
       <r>    -0.6519     6.9782   174.6368 </r>
       <r>    -0.5487    12.9597   175.9745 </r>
       <r>    -0.4454    -0.2761   175.9460 </r>
       <r>    -0.3422     4.1885   176.3783 </r>
       <r>    -0.2390    25.7766   179.0389 </r>
       <r>    -0.1358    10.0059   180.0717 </r>
       <r>    -0.0326    10.6206   181.1680 </r>
       <r>     0.0707     8.0687   182.0008 </r>
       <r>     0.1739     4.8428   182.5007 </r>
       <r>     0.2771    13.8459   183.9299 </r>
       <r>     0.3803     1.0000   184.0331 </r>
       <r>     0.4835    -0.3148   184.0006 </r>
       <r>     0.5868    -0.0059   184.0000 </r>
       <r>     0.6900    -0.0000   184.0000 </r>
       <r>     0.7932    -0.0000   184.0000 </r>
       <r>     0.8964    -0.0000   184.0000 </r>
       <r>     0.9996     0.0000   184.0000 </r>
       <r>     1.1029     0.0000   184.0000 </r>
       <r>     1.2061     0.0000   184.0000 </r>
       <r>     1.3093     0.0000   184.0000 </r>
       <r>     1.4125     0.0000   184.0000 </r>
       <r>     1.5157     0.0000   184.0000 </r>
       <r>     1.6189     0.0000   184.0000 </r>
      </set>
     </set>
    </array>
   </total>
  </dos>
 </calculation>
 <structure name="finalpos" >
  <crystal>
   <varray name="basis" >
    <v>      15.00000000       0.00000000       0.00000000 </v>
    <v>       0.00000000      15.00000000       0.00000000 </v>
    <v>       0.00000000       0.00000000      15.00000000 </v>
   </varray>
   <i name="volume">   3375.00000000 </i>
   <varray name="rec_basis" >
    <v>       0.06666667       0.00000000       0.00000000 </v>
    <v>       0.00000000       0.06666667       0.00000000 </v>
    <v>       0.00000000       0.00000000       0.06666667 </v>
   </varray>
  </crystal>
  <varray name="positions" >
   <v>       0.29177400       0.41735067       0.54993267 </v>
   <v>       0.37878200       0.54386600       0.48746600 </v>
   <v>       0.39879067       0.29377200       0.56619267 </v>
   <v>       0.53084800       0.50790533       0.47877733 </v>
   <v>       0.54865467       0.34752133       0.53476933 </v>
   <v>       0.45063933       0.43829267       0.61172733 </v>
   <v>       0.42243800       0.39977733       0.44967267 </v>
   <v>       0.22673933       0.57006733       0.54968800 </v>
   <v>       0.33271667       0.54394533       0.65555467 </v>
   <v>       0.35568333       0.68488000       0.56945933 </v>
   <v>       0.48781467       0.67000000       0.47508467 </v>
   <v>       0.61476267       0.48206200       0.61437267 </v>
   <v>       0.48064333       0.58832733       0.61498667 </v>
   <v>       0.73142000       0.49073333       0.64532733 </v>
   <v>       0.80996667       0.49150667       0.63950667 </v>
  </varray>
 </structure>
</modeling>
