 vasp.5.4.4.18Apr17-6-g9f103f2a35 (build May 08 2019 13:49:07) complex          
  
 executed on             LinuxIFC date 2019.11.13  12:50:42
 running on   24 total cores
 distrk:  each k-point on   24 cores,    1 groups
 distr:  one band on NCORES_PER_BAND=   6 cores,    4 groups


--------------------------------------------------------------------------------------------------------


 INCAR:
 POTCAR:    PAW_PBE Cu 22Jun2005                  
 POTCAR:    PAW_PBE C 08Apr2002                   
 POTCAR:    PAW_PBE O 08Apr2002                   
 POTCAR:    PAW_PBE Cu 22Jun2005                  
   VRHFIN =Cu: d10 p1                                                           
   LEXCH  = PE                                                                  
   EATOM  =  1390.9808 eV,  102.2342 Ry                                         
                                                                                
   TITEL  = PAW_PBE Cu 22Jun2005                                                
   LULTRA =        F    use ultrasoft PP ?                                      
   IUNSCR =        1    unscreen: 0-lin 1-nonlin 2-no                           
   RPACOR =    2.000    partial core radius                                     
   POMASS =   63.546; ZVAL   =   11.000    mass and valenz                      
   RCORE  =    2.300    outmost cutoff radius                                   
   RWIGS  =    2.200; RWIGS  =    1.164    wigner-seitz radius (au A)           
   ENMAX  =  295.446; ENMIN  =  221.585 eV                                      
   ICORE  =        3    local potential                                         
   LCOR   =        T    correct aug charges                                     
   LPAW   =        T    paw PP                                                  
   EAUG   =  586.980                                                            
   DEXC   =    0.000                                                            
   RMAX   =    2.344    core radius for proj-oper                               
   RAUG   =    1.300    factor for augmentation sphere                          
   RDEP   =    2.302    radius for radial grids                                 
   RDEPT  =    1.771    core radius for aug-charge                              
                                                                                
   Atomic configuration                                                         
    9 entries                                                                   
     n  l   j            E        occ.                                          
     1  0  0.50     -8850.2468   2.0000                                         
     2  0  0.50     -1062.3498   2.0000                                         
     2  1  1.50      -916.8226   6.0000                                         
     3  0  0.50      -114.6929   2.0000                                         
     3  1  1.50       -72.1325   6.0000                                         
     3  2  2.50        -5.0394  10.0000                                         
     4  0  0.50        -4.6097   1.0000                                         
     4  1  0.50        -4.0817   0.0000                                         
     4  3  2.50        -1.3606   0.0000                                         
   Description                                                                  
     l       E           TYP  RCUT    TYP  RCUT                                 
     2     -5.0393973     23  2.200                                             
     2     10.8846608     23  2.200                                             
     0     -4.6097109     23  2.200                                             
     0      8.2520465     23  2.200                                             
     1     -2.7211652     23  2.200                                             
     1     21.7055443     23  2.200                                             
     3      2.7211652     23  2.300                                             
  local pseudopotential read in
  partial core-charges read in
  partial kinetic energy density read in
  atomic valenz-charges read in
  non local Contribution for L=           2  read in
    real space projection operators read in
  non local Contribution for L=           2  read in
    real space projection operators read in
  non local Contribution for L=           0  read in
    real space projection operators read in
  non local Contribution for L=           0  read in
    real space projection operators read in
  non local Contribution for L=           1  read in
    real space projection operators read in
  non local Contribution for L=           1  read in
    real space projection operators read in
    PAW grid and wavefunctions read in
 
   number of l-projection  operators is LMAX  =           6
   number of lm-projection operators is LMMAX =          18
 
 POTCAR:    PAW_PBE C 08Apr2002                   
   VRHFIN =C: s2p2                                                              
   LEXCH  = PE                                                                  
   EATOM  =   147.1560 eV,   10.8157 Ry                                         
                                                                                
   TITEL  = PAW_PBE C 08Apr2002                                                 
   LULTRA =        F    use ultrasoft PP ?                                      
   IUNSCR =        1    unscreen: 0-lin 1-nonlin 2-no                           
   RPACOR =    1.200    partial core radius                                     
   POMASS =   12.011; ZVAL   =    4.000    mass and valenz                      
   RCORE  =    1.500    outmost cutoff radius                                   
   RWIGS  =    1.630; RWIGS  =    0.863    wigner-seitz radius (au A)           
   ENMAX  =  400.000; ENMIN  =  300.000 eV                                      
   ICORE  =        2    local potential                                         
   LCOR   =        T    correct aug charges                                     
   LPAW   =        T    paw PP                                                  
   EAUG   =  644.873                                                            
   DEXC   =    0.000                                                            
   RMAX   =    1.529    core radius for proj-oper                               
   RAUG   =    1.300    factor for augmentation sphere                          
   RDEP   =    1.501    radius for radial grids                                 
   RDEPT  =    1.300    core radius for aug-charge                              
                                                                                
   Atomic configuration                                                         
    4 entries                                                                   
     n  l   j            E        occ.                                          
     1  0  0.50      -273.3789   2.0000                                         
     2  0  0.50       -13.7508   2.0000                                         
     2  1  0.50        -5.2854   2.0000                                         
     3  2  1.50        -5.4423   0.0000                                         
   Description                                                                  
     l       E           TYP  RCUT    TYP  RCUT                                 
     0    -13.7508458     23  1.200                                             
     0     -8.2022199     23  1.200                                             
     1     -5.2854383     23  1.500                                             
     1     34.0145650     23  1.500                                             
     2     -5.4423304      7  1.500                                             
  local pseudopotential read in
  partial core-charges read in
  partial kinetic energy density read in
  atomic valenz-charges read in
  non local Contribution for L=           0  read in
    real space projection operators read in
  non local Contribution for L=           0  read in
    real space projection operators read in
  non local Contribution for L=           1  read in
    real space projection operators read in
  non local Contribution for L=           1  read in
    real space projection operators read in
    PAW grid and wavefunctions read in
 
   number of l-projection  operators is LMAX  =           4
   number of lm-projection operators is LMMAX =           8
 
 POTCAR:    PAW_PBE O 08Apr2002                   
   VRHFIN =O: s2p4                                                              
   LEXCH  = PE                                                                  
   EATOM  =   432.3788 eV,   31.7789 Ry                                         
                                                                                
   TITEL  = PAW_PBE O 08Apr2002                                                 
   LULTRA =        F    use ultrasoft PP ?                                      
   IUNSCR =        1    unscreen: 0-lin 1-nonlin 2-no                           
   RPACOR =    1.200    partial core radius                                     
   POMASS =   16.000; ZVAL   =    6.000    mass and valenz                      
   RCORE  =    1.520    outmost cutoff radius                                   
   RWIGS  =    1.550; RWIGS  =    0.820    wigner-seitz radius (au A)           
   ENMAX  =  400.000; ENMIN  =  300.000 eV                                      
   ICORE  =        2    local potential                                         
   LCOR   =        T    correct aug charges                                     
   LPAW   =        T    paw PP                                                  
   EAUG   =  605.392                                                            
   DEXC   =    0.000                                                            
   RMAX   =    1.553    core radius for proj-oper                               
   RAUG   =    1.300    factor for augmentation sphere                          
   RDEP   =    1.550    radius for radial grids                                 
   RDEPT  =    1.329    core radius for aug-charge                              
                                                                                
   Atomic configuration                                                         
    4 entries                                                                   
     n  l   j            E        occ.                                          
     1  0  0.50      -514.6923   2.0000                                         
     2  0  0.50       -23.9615   2.0000                                         
     2  1  0.50        -9.0305   4.0000                                         
     3  2  1.50        -9.5241   0.0000                                         
   Description                                                                  
     l       E           TYP  RCUT    TYP  RCUT                                 
     0    -23.9615318     23  1.200                                             
     0     -9.5240782     23  1.200                                             
     1     -9.0304911     23  1.520                                             
     1      8.1634956     23  1.520                                             
     2     -9.5240782      7  1.500                                             
  local pseudopotential read in
  partial core-charges read in
  partial kinetic energy density read in
  kinetic energy density of atom read in
  atomic valenz-charges read in
  non local Contribution for L=           0  read in
    real space projection operators read in
  non local Contribution for L=           0  read in
    real space projection operators read in
  non local Contribution for L=           1  read in
    real space projection operators read in
  non local Contribution for L=           1  read in
    real space projection operators read in
    PAW grid and wavefunctions read in
 
   number of l-projection  operators is LMAX  =           4
   number of lm-projection operators is LMMAX =           8
 
  PAW_PBE Cu 22Jun2005                  :
 energy of atom  1       EATOM=-1390.9808
 kinetic energy error for atom=    0.0033 (will be added to EATOM!!)
  PAW_PBE C 08Apr2002                   :
 energy of atom  2       EATOM= -147.1560
 kinetic energy error for atom=    0.0057 (will be added to EATOM!!)
  PAW_PBE O 08Apr2002                   :
 energy of atom  3       EATOM= -432.3788
 kinetic energy error for atom=    0.0168 (will be added to EATOM!!)
 
 
 POSCAR: Cu13 C1 O1                              
  positions in cartesian coordinates
  No initial velocities read in
 exchange correlation table for  LEXCH =        8
   RHO(1)=    0.500       N(1)  =     2000
   RHO(2)=  100.500       N(2)  =     4000
 


--------------------------------------------------------------------------------------------------------


 ion  position               nearest neighbor table
   1  0.292  0.423  0.550-   7 2.43   8 2.46   9 2.47   2 2.49   3 2.55   6 2.55
   2  0.376  0.552  0.487-  10 2.38  11 2.40   7 2.42   8 2.44   4 2.46   1 2.49  13 2.59   9 2.61

   3  0.394  0.288  0.565-   6 2.47   7 2.47   5 2.53   1 2.55
   4  0.534  0.507  0.483-  12 2.36   7 2.45  13 2.45   2 2.46  11 2.48   5 2.56   6 2.56
   5  0.550  0.344  0.533-   6 2.36   3 2.53   7 2.55  12 2.56   4 2.56
   6  0.450  0.435  0.613-   5 2.36  13 2.43   9 2.45   3 2.47   1 2.55   4 2.56  12 2.57   7 2.61

   7  0.415  0.401  0.446-   2 2.42   1 2.43   4 2.45   3 2.47   5 2.55   6 2.61
   8  0.228  0.574  0.549-   9 2.32   2 2.44   1 2.46  10 2.55
   9  0.335  0.542  0.656-   8 2.32  10 2.43   6 2.45   1 2.47  13 2.48   2 2.61
  10  0.356  0.681  0.576-   2 2.38  13 2.43   9 2.43  11 2.52   8 2.55
  11  0.488  0.665  0.473-  13 2.37   2 2.40   4 2.48  10 2.52
  12  0.615  0.479  0.615-  14 1.81   4 2.36   5 2.56   6 2.57  13 2.59
  13  0.486  0.593  0.613-  11 2.37  10 2.43   6 2.43   4 2.45   9 2.48  12 2.59   2 2.59
  14  0.732  0.489  0.643-  15 1.16  12 1.81
  15  0.807  0.505  0.636-  14 1.16
 

IMPORTANT INFORMATION: All symmetrisations will be switched off!
NOSYMM: (Re-)initialisation of all symmetry stuff for point group C_1.

 
 

Automatic generation of k-mesh.
 generate k-points for:    1    1    1
Space group operators:
 irot       det(A)        alpha          n_x          n_y          n_z        tau_x        tau_y        tau_z
    1     1.000000     0.000000     1.000000     0.000000     0.000000     0.000000     0.000000     0.000000
 
 Subroutine IBZKPT returns following result:
 ===========================================
 
 Found      1 irreducible k-points:
 
 Following reciprocal coordinates:
            Coordinates               Weight
  0.000000  0.000000  0.000000      1.000000
 
 Following cartesian coordinates:
            Coordinates               Weight
  0.000000  0.000000  0.000000      1.000000
 


--------------------------------------------------------------------------------------------------------




 Dimension of arrays:
   k-points           NKPTS =      1   k-points in BZ     NKDIM =      1   number of bands    NBANDS=     92
   number of dos      NEDOS =    301   number of ions     NIONS =     15
   non local maximal  LDIM  =      6   non local SUM 2l+1 LMDIM =     18
   total plane-waves  NPLWV = ******
   max r-space proj   IRMAX =      1   max aug-charges    IRDMAX=  15028
   dimension x,y,z NGX =   120 NGY =  120 NGZ =  120
   dimension x,y,z NGXF=   240 NGYF=  240 NGZF=  240
   support grid    NGXF=   240 NGYF=  240 NGZF=  240
   ions per type =              13   1   1
   NGX,Y,Z   is equivalent  to a cutoff of  13.30, 13.30, 13.30 a.u.
   NGXF,Y,Z  is equivalent  to a cutoff of  26.60, 26.60, 26.60 a.u.

 SYSTEM =  CuCO                                    
 POSCAR =  Cu13 C1 O1                              

 Startparameter for this run:
   NWRITE =      2    write-flag & timer
   PREC   = accura    normal or accurate (medium, high low for compatibility)
   ISTART =      0    job   : 0-new  1-cont  2-samecut
   ICHARG =      2    charge: 1-file 2-atom 10-const
   ISPIN  =      2    spin polarized calculation?
   LNONCOLLINEAR =      F non collinear calculations
   LSORBIT =      F    spin-orbit coupling
   INIWAV =      1    electr: 0-lowe 1-rand  2-diag
   LASPH  =      F    aspherical Exc in radial PAW
   METAGGA=      F    non-selfconsistent MetaGGA calc.

 Electronic Relaxation 1
   ENCUT  =  600.0 eV  44.10 Ry    6.64 a.u.  29.96 29.96 29.96*2*pi/ulx,y,z
   ENINI  =  600.0     initial cutoff
   ENAUG  =  644.9 eV  augmentation charge cutoff
   NELM   =    300;   NELMIN=  3; NELMDL= -5     # of ELM steps 
   EDIFF  = 0.1E-06   stopping-criterion for ELM
   LREAL  =      F    real-space projection
   NLSPLINE    = F    spline interpolate recip. space projectors
   LCOMPAT=      F    compatible to vasp.4.4
   GGA_COMPAT  = T    GGA compatible to vasp.4.4-vasp.4.6
   LMAXPAW     = -100 max onsite density
   LMAXMIX     =    2 max onsite mixed and CHGCAR
   VOSKOWN=      0    Vosko Wilk Nusair interpolation
   ROPT   =    0.00000   0.00000   0.00000
 Ionic relaxation
   EDIFFG = -.1E-02   stopping-criterion for IOM
   NSW    =      0    number of steps for IOM
   NBLOCK =      1;   KBLOCK =      1    inner block; outer block 
   IBRION =     -1    ionic relax: 0-MD 1-quasi-New 2-CG
   NFREE  =      0    steps in history (QN), initial steepest desc. (CG)
   ISIF   =      2    stress and relaxation
   IWAVPR =     10    prediction:  0-non 1-charg 2-wave 3-comb
   ISYM   =      0    0-nonsym 1-usesym 2-fastsym
   LCORR  =      T    Harris-Foulkes like correction to forces

   POTIM  = 0.5000    time-step for ionic-motion
   TEIN   =    0.0    initial temperature
   TEBEG  =    0.0;   TEEND  =   0.0 temperature during run
   SMASS  =  -3.00    Nose mass-parameter (am)
   estimated Nose-frequenzy (Omega)   =  0.10E-29 period in steps =****** mass=  -0.514E-26a.u.
   SCALEE = 1.0000    scale energy and forces
   NPACO  =    256;   APACO  = 16.0  distance and # of slots for P.C.
   PSTRESS=    0.0 pullay stress

  Mass of Ions in am
   POMASS =  63.55 12.01 16.00
  Ionic Valenz
   ZVAL   =  11.00  4.00  6.00
  Atomic Wigner-Seitz radii
   RWIGS  =  -1.00 -1.00 -1.00
  virtual crystal weights 
   VCA    =   1.00  1.00  1.00
   NELECT =     153.0000    total number of electrons
   NUPDOWN=       1.0000    fix difference up-down

 DOS related values:
   EMIN   =  10.00;   EMAX   =-10.00  energy-range for DOS
   EFERMI =   0.00
   ISMEAR =     1;   SIGMA  =   0.10  broadening in eV -4-tet -1-fermi 0-gaus

 Electronic relaxation 2 (details)
   IALGO  =     68    algorithm
   LDIAG  =      T    sub-space diagonalisation (order eigenvalues)
   LSUBROT=      F    optimize rotation matrix (better conditioning)
   TURBO    =      0    0=normal 1=particle mesh
   IRESTART =      0    0=no restart 2=restart with 2 vectors
   NREBOOT  =      0    no. of reboots
   NMIN     =      0    reboot dimension
   EREF     =   0.00    reference energy to select bands
   IMIX   =      4    mixing-type and parameters
     AMIX     =   0.40;   BMIX     =  1.00
     AMIX_MAG =   1.60;   BMIX_MAG =  1.00
     AMIN     =   0.10
     WC   =   100.;   INIMIX=   1;  MIXPRE=   1;  MAXMIX= -45

 Intra band minimization:
   WEIMIN = 0.0000     energy-eigenvalue tresh-hold
   EBREAK =  0.27E-09  absolut break condition
   DEPER  =   0.30     relativ break condition  

   TIME   =   0.40     timestep for ELM

  volume/ion in A,a.u.               =     225.00      1518.37
  Fermi-wavevector in a.u.,A,eV,Ry     =   0.583733  1.103095  4.636102  0.340744
  Thomas-Fermi vector in A             =   1.629149
 
 Write flags
   LWAVE        =      F    write WAVECAR
   LDOWNSAMPLE  =      F    k-point downsampling of WAVECAR
   LCHARG       =      F    write CHGCAR
   LVTOT        =      F    write LOCPOT, total local potential
   LVHAR        =      F    write LOCPOT, Hartree potential only
   LELF         =      F    write electronic localiz. function (ELF)
   LORBIT       =      0    0 simple, 1 ext, 2 COOP (PROOUT), +10 PAW based schemes


 Dipole corrections
   LMONO  =      F    monopole corrections only (constant potential shift)
   LDIPOL =      F    correct potential (dipole corrections)
   IDIPOL =      0    1-x, 2-y, 3-z, 4-all directions 
   EPSILON=  1.0000000 bulk dielectric constant

 Exchange correlation treatment:
   GGA     =    PE    GGA type
   LEXCH   =     8    internal setting for exchange type
   VOSKOWN=      0    Vosko Wilk Nusair interpolation
   LHFCALC =     F    Hartree Fock is set to
   LHFONE  =     F    Hartree Fock one center treatment
   AEXX    =    0.0000 exact exchange contribution

 Linear response parameters
   LEPSILON=     F    determine dielectric tensor
   LRPA    =     F    only Hartree local field effects (RPA)
   LNABLA  =     F    use nabla operator in PAW spheres
   LVEL    =     F    velocity operator in full k-point grid
   LINTERFAST=   F  fast interpolation
   KINTER  =     0    interpolate to denser k-point grid
   CSHIFT  =0.1000    complex shift for real part using Kramers Kronig
   OMEGAMAX=  -1.0    maximum frequency
   DEG_THRESHOLD= 0.2000000E-02 threshold for treating states as degnerate
   RTIME   =   -0.100 relaxation time in fs
  (WPLASMAI=    0.000 imaginary part of plasma frequency in eV, 0.658/RTIME)
   DFIELD  = 0.0000000 0.0000000 0.0000000 field for delta impulse in time
 
 Orbital magnetization related:
   ORBITALMAG=     F  switch on orbital magnetization
   LCHIMAG   =     F  perturbation theory with respect to B field
   DQ        =  0.001000  dq finite difference perturbation B field
   LLRAUG    =     F  two centre corrections for induced B field



--------------------------------------------------------------------------------------------------------


 Static calculation
 charge density and potential will be updated during run
 spin polarized calculation
 RMM-DIIS sequential band-by-band and
  variant of blocked Davidson during initial phase
 perform sub-space diagonalisation
    before iterative eigenvector-optimisation
 modified Broyden-mixing scheme, WC =      100.0
 initial mixing is a Kerker type mixing with AMIX =  0.4000 and BMIX =      1.0000
 Hartree-type preconditioning will be used
 using additional bands           15
 reciprocal scheme for non local part
 use partial core corrections
 calculate Harris-corrections to forces 
   (improved forces if not selfconsistent)
 use gradient corrections 
 use of overlap-Matrix (Vanderbilt PP)
 Methfessel and Paxton  Order N= 1 SIGMA  =   0.10


--------------------------------------------------------------------------------------------------------


  energy-cutoff  :      600.00
  volume of cell :     3375.00
      direct lattice vectors                 reciprocal lattice vectors
    15.000000000  0.000000000  0.000000000     0.066666667  0.000000000  0.000000000
     0.000000000 15.000000000  0.000000000     0.000000000  0.066666667  0.000000000
     0.000000000  0.000000000 15.000000000     0.000000000  0.000000000  0.066666667

  length of vectors
    15.000000000 15.000000000 15.000000000     0.066666667  0.066666667  0.066666667


 
 k-points in units of 2pi/SCALE and weight: read from INCAR                         
   0.00000000  0.00000000  0.00000000       1.000
 
 k-points in reciprocal lattice and weights: read from INCAR                         
   0.00000000  0.00000000  0.00000000       1.000
 
 position of ions in fractional coordinates (direct lattice) 
   0.29226800  0.42338067  0.54989400
   0.37635800  0.55197200  0.48657867
   0.39423400  0.28795667  0.56469733
   0.53396000  0.50675800  0.48309667
   0.55008400  0.34444800  0.53285067
   0.44989800  0.43476200  0.61333467
   0.41523067  0.40092933  0.44642933
   0.22788667  0.57393267  0.54873733
   0.33477333  0.54217867  0.65551933
   0.35628600  0.68143333  0.57602133
   0.48794733  0.66548800  0.47331667
   0.61548867  0.47864800  0.61491467
   0.48632200  0.59277933  0.61345667
   0.73242667  0.48881333  0.64321333
   0.80743333  0.50527333  0.63647733
 
 position of ions in cartesian coordinates  (Angst):
   4.38402000  6.35071000  8.24841000
   5.64537000  8.27958000  7.29868000
   5.91351000  4.31935000  8.47046000
   8.00940000  7.60137000  7.24645000
   8.25126000  5.16672000  7.99276000
   6.74847000  6.52143000  9.20002000
   6.22846000  6.01394000  6.69644000
   3.41830000  8.60899000  8.23106000
   5.02160000  8.13268000  9.83279000
   5.34429000 10.22150000  8.64032000
   7.31921000  9.98232000  7.09975000
   9.23233000  7.17972000  9.22372000
   7.29483000  8.89169000  9.20185000
  10.98640000  7.33220000  9.64820000
  12.11150000  7.57910000  9.54716000
 


--------------------------------------------------------------------------------------------------------


 k-point  1 :   0.0000 0.0000 0.0000  plane waves:  112451

 maximum and minimum number of plane-waves per node :     18753    18726

 maximum number of plane-waves:    112451
 maximum index in each direction: 
   IXMAX=   29   IYMAX=   29   IZMAX=   29
   IXMIN=  -29   IYMIN=  -29   IZMIN=  -29


 parallel 3D FFT for wavefunctions:
    minimum data exchange during FFTs selected (reduces bandwidth)
 parallel 3D FFT for charge:
    minimum data exchange during FFTs selected (reduces bandwidth)


 total amount of memory used by VASP MPI-rank0   158680. kBytes
=======================================================================

   base      :      30000. kBytes
   nonl-proj :      12601. kBytes
   fftplans  :      27994. kBytes
   grid      :      74150. kBytes
   one-center:         93. kBytes
   wavefun   :      13842. kBytes
 
     INWAV:  cpu time    0.0000: real time    0.0001
 Broyden mixing: mesh for mixing (old mesh)
   NGX = 59   NGY = 59   NGZ = 59
  (NGX  =240   NGY  =240   NGZ  =240)
  gives a total of 205379 points

 initial charge density was supplied:
 charge density of overlapping atoms calculated
 number of electron     153.0000000 magnetization       1.0000000
 keeping initial charge density in first step


--------------------------------------------------------------------------------------------------------


 Maximum index for augmentation-charges          707 (set IRDMAX)


--------------------------------------------------------------------------------------------------------


 First call to EWALD:  gamma=   0.118
 Maximum number of real-space cells 3x 3x 3
 Maximum number of reciprocal cells 3x 3x 3

    FEWALD:  cpu time    0.0016: real time    0.0023


--------------------------------------- Iteration      1(   1)  ---------------------------------------


    POTLOK:  cpu time    1.1781: real time    1.1807
    SETDIJ:  cpu time    0.0169: real time    0.0169
     EDDAV:  cpu time    7.4920: real time    7.4978
       DOS:  cpu time    0.0011: real time    0.0011
    --------------------------------------------
      LOOP:  cpu time    8.6881: real time    8.6965

 eigenvalue-minimisations  :   376
 total energy-change (2. order) : 0.1120500E+04  (-0.4463203E+04)
 number of electron     153.0000000 magnetization       1.0000000
 augmentation part      153.0000000 magnetization       1.0000000

 Free energy of the ion-electron system (eV)
  ---------------------------------------------------
  alpha Z        PSCENC =        41.16232785
  Ewald energy   TEWEN  =     16501.18500729
  -Hartree energ DENC   =    -33522.39946249
  -exchange      EXHF   =         0.00000000
  -V(xc)+E(xc)   XCENC  =       623.56169554
  PAW double counting   =     16421.75059358   -17800.06104309
  entropy T*S    EENTRO =        -0.01710101
  eigenvalues    EBANDS =       193.09850066
  atomic energy  EATOM  =     18662.21924712
  Solvation  Ediel_sol  =         0.00000000
  ---------------------------------------------------
  free energy    TOTEN  =      1120.49976545 eV

  energy without entropy =     1120.51686646  energy(sigma->0) =     1120.50546579


--------------------------------------------------------------------------------------------------------




--------------------------------------- Iteration      1(   2)  ---------------------------------------


     EDDAV:  cpu time    7.4045: real time    7.4125
       DOS:  cpu time    0.0011: real time    0.0011
    --------------------------------------------
      LOOP:  cpu time    7.4055: real time    7.4136

 eigenvalue-minimisations  :   368
 total energy-change (2. order) :-0.1030559E+04  (-0.9782594E+03)
 number of electron     153.0000000 magnetization       1.0000000
 augmentation part      153.0000000 magnetization       1.0000000

 Free energy of the ion-electron system (eV)
  ---------------------------------------------------
  alpha Z        PSCENC =        41.16232785
  Ewald energy   TEWEN  =     16501.18500729
  -Hartree energ DENC   =    -33522.39946249
  -exchange      EXHF   =         0.00000000
  -V(xc)+E(xc)   XCENC  =       623.56169554
  PAW double counting   =     16421.75059358   -17800.06104309
  entropy T*S    EENTRO =         0.00581705
  eigenvalues    EBANDS =      -837.48292725
  atomic energy  EATOM  =     18662.21924712
  Solvation  Ediel_sol  =         0.00000000
  ---------------------------------------------------
  free energy    TOTEN  =        89.94125560 eV

  energy without entropy =       89.93543855  energy(sigma->0) =       89.93931658


--------------------------------------------------------------------------------------------------------




--------------------------------------- Iteration      1(   3)  ---------------------------------------


     EDDAV:  cpu time   11.7856: real time   11.7930
       DOS:  cpu time    0.0011: real time    0.0011
    --------------------------------------------
      LOOP:  cpu time   11.7867: real time   11.7941

 eigenvalue-minimisations  :   664
 total energy-change (2. order) :-0.1227287E+03  (-0.1144029E+03)
 number of electron     153.0000000 magnetization       1.0000000
 augmentation part      153.0000000 magnetization       1.0000000

 Free energy of the ion-electron system (eV)
  ---------------------------------------------------
  alpha Z        PSCENC =        41.16232785
  Ewald energy   TEWEN  =     16501.18500729
  -Hartree energ DENC   =    -33522.39946249
  -exchange      EXHF   =         0.00000000
  -V(xc)+E(xc)   XCENC  =       623.56169554
  PAW double counting   =     16421.75059358   -17800.06104309
  entropy T*S    EENTRO =         0.00629366
  eigenvalues    EBANDS =      -960.21211886
  atomic energy  EATOM  =     18662.21924712
  Solvation  Ediel_sol  =         0.00000000
  ---------------------------------------------------
  free energy    TOTEN  =       -32.78745940 eV

  energy without entropy =      -32.79375306  energy(sigma->0) =      -32.78955728


--------------------------------------------------------------------------------------------------------




--------------------------------------- Iteration      1(   4)  ---------------------------------------


     EDDAV:  cpu time   10.2580: real time   10.2653
       DOS:  cpu time    0.0011: real time    0.0011
    --------------------------------------------
      LOOP:  cpu time   10.2591: real time   10.2665

 eigenvalue-minimisations  :   560
 total energy-change (2. order) :-0.2314765E+02  (-0.2278904E+02)
 number of electron     153.0000000 magnetization       1.0000000
 augmentation part      153.0000000 magnetization       1.0000000

 Free energy of the ion-electron system (eV)
  ---------------------------------------------------
  alpha Z        PSCENC =        41.16232785
  Ewald energy   TEWEN  =     16501.18500729
  -Hartree energ DENC   =    -33522.39946249
  -exchange      EXHF   =         0.00000000
  -V(xc)+E(xc)   XCENC  =       623.56169554
  PAW double counting   =     16421.75059358   -17800.06104309
  entropy T*S    EENTRO =         0.01079633
  eigenvalues    EBANDS =      -983.36427573
  atomic energy  EATOM  =     18662.21924712
  Solvation  Ediel_sol  =         0.00000000
  ---------------------------------------------------
  free energy    TOTEN  =       -55.93511361 eV

  energy without entropy =      -55.94590993  energy(sigma->0) =      -55.93871238


--------------------------------------------------------------------------------------------------------




--------------------------------------- Iteration      1(   5)  ---------------------------------------


     EDDAV:  cpu time   12.1596: real time   12.1677
       DOS:  cpu time    0.0009: real time    0.0009
    CHARGE:  cpu time    0.6745: real time    0.6748
    MIXING:  cpu time    0.0227: real time    0.0227
    --------------------------------------------
      LOOP:  cpu time   12.8577: real time   12.8662

 eigenvalue-minimisations  :   688
 total energy-change (2. order) :-0.1751604E+01  (-0.1604137E+01)
 number of electron     152.9999990 magnetization       1.0000000
 augmentation part       87.4177588 magnetization       0.3857856

 Broyden mixing:
  rms(total) = 0.24015E+01    rms(broyden)= 0.24014E+01
  rms(prec ) = 0.27590E+01
  weight for this iteration     100.00

 Free energy of the ion-electron system (eV)
  ---------------------------------------------------
  alpha Z        PSCENC =        41.16232785
  Ewald energy   TEWEN  =     16501.18500729
  -Hartree energ DENC   =    -33522.39946249
  -exchange      EXHF   =         0.00000000
  -V(xc)+E(xc)   XCENC  =       623.56169554
  PAW double counting   =     16421.75059358   -17800.06104309
  entropy T*S    EENTRO =         0.00894662
  eigenvalues    EBANDS =      -985.11402993
  atomic energy  EATOM  =     18662.21924712
  Solvation  Ediel_sol  =         0.00000000
  ---------------------------------------------------
  free energy    TOTEN  =       -57.68671751 eV

  energy without entropy =      -57.69566413  energy(sigma->0) =      -57.68969972


--------------------------------------------------------------------------------------------------------




--------------------------------------- Iteration      1(   6)  ---------------------------------------


    POTLOK:  cpu time    1.1643: real time    1.1656
    SETDIJ:  cpu time    0.0171: real time    0.0171
    EDDIAG:  cpu time    1.1004: real time    1.1011
  RMM-DIIS:  cpu time    6.8149: real time    6.8192
    ORTHCH:  cpu time    0.0614: real time    0.0616
       DOS:  cpu time    0.0005: real time    0.0005
    CHARGE:  cpu time    0.6498: real time    0.6500
    MIXING:  cpu time    0.0231: real time    0.0231
    --------------------------------------------
      LOOP:  cpu time    9.8315: real time    9.8382

 eigenvalue-minimisations  :   425
 total energy-change (2. order) : 0.9611762E+00  (-0.1240379E+02)
 number of electron     152.9999988 magnetization       1.0000000
 augmentation part       95.7467780 magnetization       0.0681176

 Broyden mixing:
  rms(total) = 0.15740E+01    rms(broyden)= 0.15738E+01
  rms(prec ) = 0.18164E+01
  weight for this iteration     100.00

 eigenvalues of (default mixing * dielectric matrix)
  average eigenvalue GAMMA=   0.6130
  0.6130

 Free energy of the ion-electron system (eV)
  ---------------------------------------------------
  alpha Z        PSCENC =        41.16232785
  Ewald energy   TEWEN  =     16501.18500729
  -Hartree energ DENC   =    -33268.14596998
  -exchange      EXHF   =         0.00000000
  -V(xc)+E(xc)   XCENC  =       611.33806470
  PAW double counting   =     16701.33301542   -18024.43515800
  entropy T*S    EENTRO =         0.00891348
  eigenvalues    EBANDS =     -1281.39098921
  atomic energy  EATOM  =     18662.21924712
  Solvation  Ediel_sol  =         0.00000000
  ---------------------------------------------------
  free energy    TOTEN  =       -56.72554134 eV

  energy without entropy =      -56.73445481  energy(sigma->0) =      -56.72851250


--------------------------------------------------------------------------------------------------------




--------------------------------------- Iteration      1(   7)  ---------------------------------------


    POTLOK:  cpu time    1.1618: real time    1.1636
    SETDIJ:  cpu time    0.0170: real time    0.0170
    EDDIAG:  cpu time    1.1012: real time    1.1018
  RMM-DIIS:  cpu time    7.2670: real time    7.2715
    ORTHCH:  cpu time    0.0618: real time    0.0618
       DOS:  cpu time    0.0005: real time    0.0005
    CHARGE:  cpu time    0.6586: real time    0.6591
    MIXING:  cpu time    0.0233: real time    0.0234
    --------------------------------------------
      LOOP:  cpu time   10.2911: real time   10.2987

 eigenvalue-minimisations  :   381
 total energy-change (2. order) : 0.7318383E+01  (-0.2555654E+01)
 number of electron     152.9999989 magnetization       1.0000000
 augmentation part       92.8756239 magnetization       0.1023810

 Broyden mixing:
  rms(total) = 0.38749E+00    rms(broyden)= 0.38747E+00
  rms(prec ) = 0.48231E+00
  weight for this iteration     100.00

 eigenvalues of (default mixing * dielectric matrix)
  average eigenvalue GAMMA=   0.9015
  1.1326  0.6705

 Free energy of the ion-electron system (eV)
  ---------------------------------------------------
  alpha Z        PSCENC =        41.16232785
  Ewald energy   TEWEN  =     16501.18500729
  -Hartree energ DENC   =    -33405.71396743
  -exchange      EXHF   =         0.00000000
  -V(xc)+E(xc)   XCENC  =       615.80539745
  PAW double counting   =     17046.68042493   -18420.32142934
  entropy T*S    EENTRO =         0.00918676
  eigenvalues    EBANDS =     -1090.43335313
  atomic energy  EATOM  =     18662.21924712
  Solvation  Ediel_sol  =         0.00000000
  ---------------------------------------------------
  free energy    TOTEN  =       -49.40715849 eV

  energy without entropy =      -49.41634525  energy(sigma->0) =      -49.41022074


--------------------------------------------------------------------------------------------------------




--------------------------------------- Iteration      1(   8)  ---------------------------------------


    POTLOK:  cpu time    1.1630: real time    1.1669
    SETDIJ:  cpu time    0.0168: real time    0.0168
    EDDIAG:  cpu time    1.1006: real time    1.1013
  RMM-DIIS:  cpu time    6.9226: real time    6.9272
    ORTHCH:  cpu time    0.0617: real time    0.0622
       DOS:  cpu time    0.0005: real time    0.0005
    CHARGE:  cpu time    0.6593: real time    0.6607
    MIXING:  cpu time    0.0242: real time    0.0242
    --------------------------------------------
      LOOP:  cpu time    9.9488: real time    9.9598

 eigenvalue-minimisations  :   425
 total energy-change (2. order) : 0.2708745E+00  (-0.3934978E+00)
 number of electron     152.9999989 magnetization       1.0000000
 augmentation part       92.1074466 magnetization       0.1046855

 Broyden mixing:
  rms(total) = 0.27833E+00    rms(broyden)= 0.27830E+00
  rms(prec ) = 0.31389E+00
  weight for this iteration     100.00

 eigenvalues of (default mixing * dielectric matrix)
  average eigenvalue GAMMA=   0.9473
  1.3999  0.7210  0.7210

 Free energy of the ion-electron system (eV)
  ---------------------------------------------------
  alpha Z        PSCENC =        41.16232785
  Ewald energy   TEWEN  =     16501.18500729
  -Hartree energ DENC   =    -33453.43572228
  -exchange      EXHF   =         0.00000000
  -V(xc)+E(xc)   XCENC  =       616.19544136
  PAW double counting   =     17391.85885550   -18784.54271301
  entropy T*S    EENTRO =         0.00881724
  eigenvalues    EBANDS =     -1023.78754505
  atomic energy  EATOM  =     18662.21924712
  Solvation  Ediel_sol  =         0.00000000
  ---------------------------------------------------
  free energy    TOTEN  =       -49.13628397 eV

  energy without entropy =      -49.14510121  energy(sigma->0) =      -49.13922305


--------------------------------------------------------------------------------------------------------




--------------------------------------- Iteration      1(   9)  ---------------------------------------


    POTLOK:  cpu time    1.1639: real time    1.1650
    SETDIJ:  cpu time    0.0174: real time    0.0174
    EDDIAG:  cpu time    1.1017: real time    1.1024
  RMM-DIIS:  cpu time    6.7226: real time    6.7269
    ORTHCH:  cpu time    0.0621: real time    0.0622
       DOS:  cpu time    0.0005: real time    0.0005
    CHARGE:  cpu time    0.6583: real time    0.6588
    MIXING:  cpu time    0.0246: real time    0.0247
    --------------------------------------------
      LOOP:  cpu time    9.7511: real time    9.7579

 eigenvalue-minimisations  :   418
 total energy-change (2. order) : 0.3332860E-01  (-0.9524511E-01)
 number of electron     152.9999989 magnetization       1.0000000
 augmentation part       92.2938579 magnetization       0.0873609

 Broyden mixing:
  rms(total) = 0.18048E+00    rms(broyden)= 0.18047E+00
  rms(prec ) = 0.21375E+00
  weight for this iteration     100.00

 eigenvalues of (default mixing * dielectric matrix)
  average eigenvalue GAMMA=   1.0337
  2.0698  0.7761  0.7761  0.5130

 Free energy of the ion-electron system (eV)
  ---------------------------------------------------
  alpha Z        PSCENC =        41.16232785
  Ewald energy   TEWEN  =     16501.18500729
  -Hartree energ DENC   =    -33452.12255488
  -exchange      EXHF   =         0.00000000
  -V(xc)+E(xc)   XCENC  =       615.65892309
  PAW double counting   =     17522.27285528   -18917.25991392
  entropy T*S    EENTRO =         0.00889854
  eigenvalues    EBANDS =     -1022.22774573
  atomic energy  EATOM  =     18662.21924712
  Solvation  Ediel_sol  =         0.00000000
  ---------------------------------------------------
  free energy    TOTEN  =       -49.10295537 eV

  energy without entropy =      -49.11185391  energy(sigma->0) =      -49.10592155


--------------------------------------------------------------------------------------------------------




--------------------------------------- Iteration      1(  10)  ---------------------------------------


    POTLOK:  cpu time    1.1643: real time    1.1661
    SETDIJ:  cpu time    0.0171: real time    0.0171
    EDDIAG:  cpu time    1.1015: real time    1.1024
  RMM-DIIS:  cpu time    7.0917: real time    7.0959
    ORTHCH:  cpu time    0.0617: real time    0.0617
       DOS:  cpu time    0.0005: real time    0.0005
    CHARGE:  cpu time    0.6612: real time    0.6617
    MIXING:  cpu time    0.0252: real time    0.0252
    --------------------------------------------
      LOOP:  cpu time   10.1233: real time   10.1307

 eigenvalue-minimisations  :   416
 total energy-change (2. order) : 0.5698740E-01  (-0.2421671E-01)
 number of electron     152.9999989 magnetization       1.0000000
 augmentation part       92.4398022 magnetization       0.0762461

 Broyden mixing:
  rms(total) = 0.53387E-01    rms(broyden)= 0.53382E-01
  rms(prec ) = 0.69882E-01
  weight for this iteration     100.00

 eigenvalues of (default mixing * dielectric matrix)
  average eigenvalue GAMMA=   1.0265
  2.0877  0.9816  0.7978  0.7978  0.4677

 Free energy of the ion-electron system (eV)
  ---------------------------------------------------
  alpha Z        PSCENC =        41.16232785
  Ewald energy   TEWEN  =     16501.18500729
  -Hartree energ DENC   =    -33451.44672481
  -exchange      EXHF   =         0.00000000
  -V(xc)+E(xc)   XCENC  =       615.31569255
  PAW double counting   =     17617.33528371   -19014.00501570
  entropy T*S    EENTRO =         0.00875798
  eigenvalues    EBANDS =     -1020.82054396
  atomic energy  EATOM  =     18662.21924712
  Solvation  Ediel_sol  =         0.00000000
  ---------------------------------------------------
  free energy    TOTEN  =       -49.04596796 eV

  energy without entropy =      -49.05472595  energy(sigma->0) =      -49.04888729


--------------------------------------------------------------------------------------------------------




--------------------------------------- Iteration      1(  11)  ---------------------------------------


    POTLOK:  cpu time    1.1633: real time    1.1640
    SETDIJ:  cpu time    0.0168: real time    0.0168
    EDDIAG:  cpu time    1.0998: real time    1.1006
  RMM-DIIS:  cpu time    7.3237: real time    7.3283
    ORTHCH:  cpu time    0.0598: real time    0.0598
       DOS:  cpu time    0.0005: real time    0.0005
    CHARGE:  cpu time    0.6568: real time    0.6573
    MIXING:  cpu time    0.0259: real time    0.0260
    --------------------------------------------
      LOOP:  cpu time   10.3467: real time   10.3532

 eigenvalue-minimisations  :   436
 total energy-change (2. order) : 0.7241003E-02  (-0.6859626E-02)
 number of electron     152.9999989 magnetization       1.0000000
 augmentation part       92.3792026 magnetization       0.0806284

 Broyden mixing:
  rms(total) = 0.41578E-01    rms(broyden)= 0.41576E-01
  rms(prec ) = 0.53341E-01
  weight for this iteration     100.00

 eigenvalues of (default mixing * dielectric matrix)
  average eigenvalue GAMMA=   1.0418
  2.1291  1.4586  0.7720  0.7720  0.6497  0.4693

 Free energy of the ion-electron system (eV)
  ---------------------------------------------------
  alpha Z        PSCENC =        41.16232785
  Ewald energy   TEWEN  =     16501.18500729
  -Hartree energ DENC   =    -33458.82982304
  -exchange      EXHF   =         0.00000000
  -V(xc)+E(xc)   XCENC  =       615.44571587
  PAW double counting   =     17662.10938179   -19060.80526407
  entropy T*S    EENTRO =         0.00883803
  eigenvalues    EBANDS =     -1011.53415779
  atomic energy  EATOM  =     18662.21924712
  Solvation  Ediel_sol  =         0.00000000
  ---------------------------------------------------
  free energy    TOTEN  =       -49.03872696 eV

  energy without entropy =      -49.04756499  energy(sigma->0) =      -49.04167297


--------------------------------------------------------------------------------------------------------




--------------------------------------- Iteration      1(  12)  ---------------------------------------


    POTLOK:  cpu time    1.1653: real time    1.1668
    SETDIJ:  cpu time    0.0166: real time    0.0166
    EDDIAG:  cpu time    1.0986: real time    1.0993
  RMM-DIIS:  cpu time    7.0634: real time    7.0677
    ORTHCH:  cpu time    0.0594: real time    0.0594
       DOS:  cpu time    0.0004: real time    0.0004
    CHARGE:  cpu time    0.6582: real time    0.6584
    MIXING:  cpu time    0.0266: real time    0.0266
    --------------------------------------------
      LOOP:  cpu time   10.0883: real time   10.0951

 eigenvalue-minimisations  :   421
 total energy-change (2. order) : 0.3027062E-02  (-0.1915370E-02)
 number of electron     152.9999989 magnetization       1.0000000
 augmentation part       92.3858003 magnetization       0.0800163

 Broyden mixing:
  rms(total) = 0.17786E-01    rms(broyden)= 0.17785E-01
  rms(prec ) = 0.29363E-01
  weight for this iteration     100.00

 eigenvalues of (default mixing * dielectric matrix)
  average eigenvalue GAMMA=   1.0664
  2.3898  1.6352  0.9839  0.7201  0.7201  0.5549  0.4608

 Free energy of the ion-electron system (eV)
  ---------------------------------------------------
  alpha Z        PSCENC =        41.16232785
  Ewald energy   TEWEN  =     16501.18500729
  -Hartree energ DENC   =    -33461.60230064
  -exchange      EXHF   =         0.00000000
  -V(xc)+E(xc)   XCENC  =       615.47692432
  PAW double counting   =     17671.59052076   -19070.59684553
  entropy T*S    EENTRO =         0.00877974
  eigenvalues    EBANDS =     -1008.47936080
  atomic energy  EATOM  =     18662.21924712
  Solvation  Ediel_sol  =         0.00000000
  ---------------------------------------------------
  free energy    TOTEN  =       -49.03569990 eV

  energy without entropy =      -49.04447963  energy(sigma->0) =      -49.03862648


--------------------------------------------------------------------------------------------------------




--------------------------------------- Iteration      1(  13)  ---------------------------------------


    POTLOK:  cpu time    1.1642: real time    1.1667
    SETDIJ:  cpu time    0.0167: real time    0.0167
    EDDIAG:  cpu time    1.0997: real time    1.1005
  RMM-DIIS:  cpu time    7.0940: real time    7.0984
    ORTHCH:  cpu time    0.0598: real time    0.0598
       DOS:  cpu time    0.0004: real time    0.0004
    CHARGE:  cpu time    0.6592: real time    0.6596
    MIXING:  cpu time    0.0276: real time    0.0276
    --------------------------------------------
      LOOP:  cpu time   10.1216: real time   10.1297

 eigenvalue-minimisations  :   439
 total energy-change (2. order) : 0.8749769E-03  (-0.5560070E-03)
 number of electron     152.9999989 magnetization       1.0000000
 augmentation part       92.4016636 magnetization       0.0800417

 Broyden mixing:
  rms(total) = 0.93316E-02    rms(broyden)= 0.93313E-02
  rms(prec ) = 0.19619E-01
  weight for this iteration     100.00

 eigenvalues of (default mixing * dielectric matrix)
  average eigenvalue GAMMA=   1.1018
  2.4238  1.8324  1.2450  0.8450  0.7457  0.7457  0.5299  0.4470

 Free energy of the ion-electron system (eV)
  ---------------------------------------------------
  alpha Z        PSCENC =        41.16232785
  Ewald energy   TEWEN  =     16501.18500729
  -Hartree energ DENC   =    -33465.05909811
  -exchange      EXHF   =         0.00000000
  -V(xc)+E(xc)   XCENC  =       615.47866156
  PAW double counting   =     17677.76347403   -19076.80650117
  entropy T*S    EENTRO =         0.00879628
  eigenvalues    EBANDS =     -1004.98673976
  atomic energy  EATOM  =     18662.21924712
  Solvation  Ediel_sol  =         0.00000000
  ---------------------------------------------------
  free energy    TOTEN  =       -49.03482492 eV

  energy without entropy =      -49.04362120  energy(sigma->0) =      -49.03775701


--------------------------------------------------------------------------------------------------------




--------------------------------------- Iteration      1(  14)  ---------------------------------------


    POTLOK:  cpu time    1.1645: real time    1.1660
    SETDIJ:  cpu time    0.0173: real time    0.0173
    EDDIAG:  cpu time    1.0977: real time    1.0983
  RMM-DIIS:  cpu time    7.3670: real time    7.3714
    ORTHCH:  cpu time    0.0595: real time    0.0595
       DOS:  cpu time    0.0004: real time    0.0004
    CHARGE:  cpu time    0.6580: real time    0.6585
    MIXING:  cpu time    0.0285: real time    0.0285
    --------------------------------------------
      LOOP:  cpu time   10.3930: real time   10.3999

 eigenvalue-minimisations  :   450
 total energy-change (2. order) :-0.1028027E-02  (-0.3025514E-03)
 number of electron     152.9999989 magnetization       1.0000000
 augmentation part       92.4059305 magnetization       0.0801269

 Broyden mixing:
  rms(total) = 0.91444E-02    rms(broyden)= 0.91442E-02
  rms(prec ) = 0.15219E-01
  weight for this iteration     100.00

 eigenvalues of (default mixing * dielectric matrix)
  average eigenvalue GAMMA=   1.1435
  2.3880  2.3880  1.1873  1.0738  0.8048  0.7473  0.7473  0.5047  0.4507

 Free energy of the ion-electron system (eV)
  ---------------------------------------------------
  alpha Z        PSCENC =        41.16232785
  Ewald energy   TEWEN  =     16501.18500729
  -Hartree energ DENC   =    -33470.27105437
  -exchange      EXHF   =         0.00000000
  -V(xc)+E(xc)   XCENC  =       615.51163482
  PAW double counting   =     17671.58698116   -19070.37586901
  entropy T*S    EENTRO =         0.00878467
  eigenvalues    EBANDS =     -1000.06291248
  atomic energy  EATOM  =     18662.21924712
  Solvation  Ediel_sol  =         0.00000000
  ---------------------------------------------------
  free energy    TOTEN  =       -49.03585295 eV

  energy without entropy =      -49.04463762  energy(sigma->0) =      -49.03878117


--------------------------------------------------------------------------------------------------------




--------------------------------------- Iteration      1(  15)  ---------------------------------------


    POTLOK:  cpu time    1.1635: real time    1.1649
    SETDIJ:  cpu time    0.0182: real time    0.0182
    EDDIAG:  cpu time    1.0979: real time    1.0988
  RMM-DIIS:  cpu time    6.5517: real time    6.5554
    ORTHCH:  cpu time    0.0597: real time    0.0598
       DOS:  cpu time    0.0005: real time    0.0005
    CHARGE:  cpu time    0.6546: real time    0.6550
    MIXING:  cpu time    0.0293: real time    0.0294
    --------------------------------------------
      LOOP:  cpu time    9.5755: real time    9.5819

 eigenvalue-minimisations  :   400
 total energy-change (2. order) :-0.1231087E-02  (-0.1472338E-03)
 number of electron     152.9999989 magnetization       1.0000000
 augmentation part       92.3981733 magnetization       0.0807408

 Broyden mixing:
  rms(total) = 0.52354E-02    rms(broyden)= 0.52352E-02
  rms(prec ) = 0.95718E-02
  weight for this iteration     100.00

 eigenvalues of (default mixing * dielectric matrix)
  average eigenvalue GAMMA=   1.1695
  2.6489  2.6489  1.2798  1.2798  0.8390  0.7370  0.7370  0.5845  0.4509  0.4891

 Free energy of the ion-electron system (eV)
  ---------------------------------------------------
  alpha Z        PSCENC =        41.16232785
  Ewald energy   TEWEN  =     16501.18500729
  -Hartree energ DENC   =    -33474.12955440
  -exchange      EXHF   =         0.00000000
  -V(xc)+E(xc)   XCENC  =       615.55697739
  PAW double counting   =     17665.74925697   -19064.45035327
  entropy T*S    EENTRO =         0.00878726
  eigenvalues    EBANDS =      -996.33878025
  atomic energy  EATOM  =     18662.21924712
  Solvation  Ediel_sol  =         0.00000000
  ---------------------------------------------------
  free energy    TOTEN  =       -49.03708404 eV

  energy without entropy =      -49.04587129  energy(sigma->0) =      -49.04001312


--------------------------------------------------------------------------------------------------------




--------------------------------------- Iteration      1(  16)  ---------------------------------------


    POTLOK:  cpu time    1.1656: real time    1.1663
    SETDIJ:  cpu time    0.0171: real time    0.0171
    EDDIAG:  cpu time    1.0998: real time    1.1007
  RMM-DIIS:  cpu time    6.5148: real time    6.5185
    ORTHCH:  cpu time    0.0591: real time    0.0593
       DOS:  cpu time    0.0004: real time    0.0004
    CHARGE:  cpu time    0.6607: real time    0.6610
    MIXING:  cpu time    0.0300: real time    0.0300
    --------------------------------------------
      LOOP:  cpu time    9.5475: real time    9.5532

 eigenvalue-minimisations  :   392
 total energy-change (2. order) :-0.1284656E-02  (-0.7255724E-04)
 number of electron     152.9999989 magnetization       1.0000000
 augmentation part       92.3962440 magnetization       0.0809750

 Broyden mixing:
  rms(total) = 0.46166E-02    rms(broyden)= 0.46165E-02
  rms(prec ) = 0.73409E-02
  weight for this iteration     100.00

 eigenvalues of (default mixing * dielectric matrix)
  average eigenvalue GAMMA=   1.1958
  3.0175  2.6325  1.4146  1.4146  0.8505  0.8505  0.7460  0.7460  0.4489  0.5051
  0.5279

 Free energy of the ion-electron system (eV)
  ---------------------------------------------------
  alpha Z        PSCENC =        41.16232785
  Ewald energy   TEWEN  =     16501.18500729
  -Hartree energ DENC   =    -33476.50010141
  -exchange      EXHF   =         0.00000000
  -V(xc)+E(xc)   XCENC  =       615.57946992
  PAW double counting   =     17662.47404284   -19061.12044244
  entropy T*S    EENTRO =         0.00879540
  eigenvalues    EBANDS =      -994.04671527
  atomic energy  EATOM  =     18662.21924712
  Solvation  Ediel_sol  =         0.00000000
  ---------------------------------------------------
  free energy    TOTEN  =       -49.03836869 eV

  energy without entropy =      -49.04716409  energy(sigma->0) =      -49.04130049


--------------------------------------------------------------------------------------------------------




--------------------------------------- Iteration      1(  17)  ---------------------------------------


    POTLOK:  cpu time    1.1656: real time    1.1664
    SETDIJ:  cpu time    0.0171: real time    0.0171
    EDDIAG:  cpu time    1.0984: real time    1.0992
  RMM-DIIS:  cpu time    7.3434: real time    7.3479
    ORTHCH:  cpu time    0.0587: real time    0.0587
       DOS:  cpu time    0.0004: real time    0.0004
    CHARGE:  cpu time    0.6592: real time    0.6597
    MIXING:  cpu time    0.0311: real time    0.0311
    --------------------------------------------
      LOOP:  cpu time   10.3739: real time   10.3806

 eigenvalue-minimisations  :   393
 total energy-change (2. order) :-0.1764365E-02  (-0.5403064E-04)
 number of electron     152.9999989 magnetization       1.0000000
 augmentation part       92.4001368 magnetization       0.0808250

 Broyden mixing:
  rms(total) = 0.23617E-02    rms(broyden)= 0.23617E-02
  rms(prec ) = 0.41036E-02
  weight for this iteration     100.00

 eigenvalues of (default mixing * dielectric matrix)
  average eigenvalue GAMMA=   1.3325
  4.3354  2.5634  2.1099  1.4267  0.9630  0.9630  0.7503  0.7503  0.6722  0.4497
  0.5153  0.4902

 Free energy of the ion-electron system (eV)
  ---------------------------------------------------
  alpha Z        PSCENC =        41.16232785
  Ewald energy   TEWEN  =     16501.18500729
  -Hartree energ DENC   =    -33478.62272425
  -exchange      EXHF   =         0.00000000
  -V(xc)+E(xc)   XCENC  =       615.58601029
  PAW double counting   =     17660.21576143   -19058.79367259
  entropy T*S    EENTRO =         0.00879783
  eigenvalues    EBANDS =      -992.00088802
  atomic energy  EATOM  =     18662.21924712
  Solvation  Ediel_sol  =         0.00000000
  ---------------------------------------------------
  free energy    TOTEN  =       -49.04013306 eV

  energy without entropy =      -49.04893088  energy(sigma->0) =      -49.04306567


--------------------------------------------------------------------------------------------------------




--------------------------------------- Iteration      1(  18)  ---------------------------------------


    POTLOK:  cpu time    1.1658: real time    1.1665
    SETDIJ:  cpu time    0.0170: real time    0.0170
    EDDIAG:  cpu time    1.0979: real time    1.0986
  RMM-DIIS:  cpu time    7.2748: real time    7.2792
    ORTHCH:  cpu time    0.0621: real time    0.0621
       DOS:  cpu time    0.0004: real time    0.0004
    CHARGE:  cpu time    0.6590: real time    0.6594
    MIXING:  cpu time    0.0322: real time    0.0322
    --------------------------------------------
      LOOP:  cpu time   10.3092: real time   10.3153

 eigenvalue-minimisations  :   442
 total energy-change (2. order) :-0.9190912E-03  (-0.2349759E-04)
 number of electron     152.9999989 magnetization       1.0000000
 augmentation part       92.3983985 magnetization       0.0809798

 Broyden mixing:
  rms(total) = 0.14896E-02    rms(broyden)= 0.14896E-02
  rms(prec ) = 0.26406E-02
  weight for this iteration     100.00

 eigenvalues of (default mixing * dielectric matrix)
  average eigenvalue GAMMA=   1.3578
  5.0589  2.6199  2.1897  1.2304  1.2304  0.8867  0.8867  0.7433  0.7433  0.6203
  0.4500  0.5105  0.4819

 Free energy of the ion-electron system (eV)
  ---------------------------------------------------
  alpha Z        PSCENC =        41.16232785
  Ewald energy   TEWEN  =     16501.18500729
  -Hartree energ DENC   =    -33479.76651778
  -exchange      EXHF   =         0.00000000
  -V(xc)+E(xc)   XCENC  =       615.58969400
  PAW double counting   =     17660.00791121   -19058.60385321
  entropy T*S    EENTRO =         0.00879692
  eigenvalues    EBANDS =      -990.84366555
  atomic energy  EATOM  =     18662.21924712
  Solvation  Ediel_sol  =         0.00000000
  ---------------------------------------------------
  free energy    TOTEN  =       -49.04105215 eV

  energy without entropy =      -49.04984907  energy(sigma->0) =      -49.04398446


--------------------------------------------------------------------------------------------------------




--------------------------------------- Iteration      1(  19)  ---------------------------------------


    POTLOK:  cpu time    1.1642: real time    1.1667
    SETDIJ:  cpu time    0.0171: real time    0.0172
    EDDIAG:  cpu time    1.0986: real time    1.0992
  RMM-DIIS:  cpu time    7.0208: real time    7.0253
    ORTHCH:  cpu time    0.0614: real time    0.0614
       DOS:  cpu time    0.0005: real time    0.0005
    CHARGE:  cpu time    0.6546: real time    0.6547
    MIXING:  cpu time    0.0333: real time    0.0334
    --------------------------------------------
      LOOP:  cpu time   10.0505: real time   10.0584

 eigenvalue-minimisations  :   419
 total energy-change (2. order) :-0.6455523E-03  (-0.9942593E-05)
 number of electron     152.9999989 magnetization       1.0000000
 augmentation part       92.3963700 magnetization       0.0809748

 Broyden mixing:
  rms(total) = 0.12051E-02    rms(broyden)= 0.12051E-02
  rms(prec ) = 0.20700E-02
  weight for this iteration     100.00

 eigenvalues of (default mixing * dielectric matrix)
  average eigenvalue GAMMA=   1.4172
  5.7923  2.6976  2.2087  1.5139  1.5139  0.9687  0.9687  0.7466  0.7466  0.6769
  0.5690  0.4493  0.5051  0.4841

 Free energy of the ion-electron system (eV)
  ---------------------------------------------------
  alpha Z        PSCENC =        41.16232785
  Ewald energy   TEWEN  =     16501.18500729
  -Hartree energ DENC   =    -33480.30771668
  -exchange      EXHF   =         0.00000000
  -V(xc)+E(xc)   XCENC  =       615.59147788
  PAW double counting   =     17660.18562690   -19058.80600081
  entropy T*S    EENTRO =         0.00879533
  eigenvalues    EBANDS =      -990.28046258
  atomic energy  EATOM  =     18662.21924712
  Solvation  Ediel_sol  =         0.00000000
  ---------------------------------------------------
  free energy    TOTEN  =       -49.04169770 eV

  energy without entropy =      -49.05049303  energy(sigma->0) =      -49.04462948


--------------------------------------------------------------------------------------------------------




--------------------------------------- Iteration      1(  20)  ---------------------------------------


    POTLOK:  cpu time    1.1661: real time    1.1678
    SETDIJ:  cpu time    0.0166: real time    0.0166
    EDDIAG:  cpu time    1.0981: real time    1.0988
  RMM-DIIS:  cpu time    6.7314: real time    6.7352
    ORTHCH:  cpu time    0.0610: real time    0.0610
       DOS:  cpu time    0.0004: real time    0.0004
    CHARGE:  cpu time    0.6544: real time    0.6549
    MIXING:  cpu time    0.0350: real time    0.0350
    --------------------------------------------
      LOOP:  cpu time    9.7631: real time    9.7697

 eigenvalue-minimisations  :   400
 total energy-change (2. order) :-0.6124941E-03  (-0.4590420E-05)
 number of electron     152.9999989 magnetization       1.0000000
 augmentation part       92.3969677 magnetization       0.0809733

 Broyden mixing:
  rms(total) = 0.74658E-03    rms(broyden)= 0.74653E-03
  rms(prec ) = 0.13169E-02
  weight for this iteration     100.00

 eigenvalues of (default mixing * dielectric matrix)
  average eigenvalue GAMMA=   1.4593
  6.4325  2.7939  2.3111  1.9957  1.3808  0.9986  0.9123  0.9123  0.7622  0.7622
  0.6588  0.4495  0.5235  0.5119  0.4840

 Free energy of the ion-electron system (eV)
  ---------------------------------------------------
  alpha Z        PSCENC =        41.16232785
  Ewald energy   TEWEN  =     16501.18500729
  -Hartree energ DENC   =    -33480.44698598
  -exchange      EXHF   =         0.00000000
  -V(xc)+E(xc)   XCENC  =       615.58992577
  PAW double counting   =     17660.41755709   -19059.04255950
  entropy T*S    EENTRO =         0.00879469
  eigenvalues    EBANDS =      -990.13562452
  atomic energy  EATOM  =     18662.21924712
  Solvation  Ediel_sol  =         0.00000000
  ---------------------------------------------------
  free energy    TOTEN  =       -49.04231020 eV

  energy without entropy =      -49.05110488  energy(sigma->0) =      -49.04524176


--------------------------------------------------------------------------------------------------------




--------------------------------------- Iteration      1(  21)  ---------------------------------------


    POTLOK:  cpu time    1.1629: real time    1.1658
    SETDIJ:  cpu time    0.0172: real time    0.0172
    EDDIAG:  cpu time    1.0993: real time    1.1003
  RMM-DIIS:  cpu time    6.6601: real time    6.6642
    ORTHCH:  cpu time    0.0613: real time    0.0613
       DOS:  cpu time    0.0004: real time    0.0004
    CHARGE:  cpu time    0.6594: real time    0.6598
    MIXING:  cpu time    0.0370: real time    0.0370
    --------------------------------------------
      LOOP:  cpu time    9.6976: real time    9.7058

 eigenvalue-minimisations  :   402
 total energy-change (2. order) :-0.4012694E-03  (-0.2900923E-05)
 number of electron     152.9999989 magnetization       1.0000000
 augmentation part       92.3983034 magnetization       0.0809767

 Broyden mixing:
  rms(total) = 0.52512E-03    rms(broyden)= 0.52507E-03
  rms(prec ) = 0.86939E-03
  weight for this iteration     100.00

 eigenvalues of (default mixing * dielectric matrix)
  average eigenvalue GAMMA=   1.4923
  6.7017  3.1321  2.4381  2.0803  1.3506  1.3506  0.9849  0.9849  0.7615  0.7615
  0.7116  0.6577  0.4496  0.5298  0.5014  0.4800

 Free energy of the ion-electron system (eV)
  ---------------------------------------------------
  alpha Z        PSCENC =        41.16232785
  Ewald energy   TEWEN  =     16501.18500729
  -Hartree energ DENC   =    -33480.43740774
  -exchange      EXHF   =         0.00000000
  -V(xc)+E(xc)   XCENC  =       615.58760759
  PAW double counting   =     17660.63870552   -19059.25847556
  entropy T*S    EENTRO =         0.00879485
  eigenvalues    EBANDS =      -990.14851838
  atomic energy  EATOM  =     18662.21924712
  Solvation  Ediel_sol  =         0.00000000
  ---------------------------------------------------
  free energy    TOTEN  =       -49.04271146 eV

  energy without entropy =      -49.05150631  energy(sigma->0) =      -49.04564308


--------------------------------------------------------------------------------------------------------




--------------------------------------- Iteration      1(  22)  ---------------------------------------


    POTLOK:  cpu time    1.1639: real time    1.1645
    SETDIJ:  cpu time    0.0175: real time    0.0175
    EDDIAG:  cpu time    1.0998: real time    1.1004
  RMM-DIIS:  cpu time    6.4940: real time    6.4980
    ORTHCH:  cpu time    0.0611: real time    0.0612
       DOS:  cpu time    0.0005: real time    0.0005
    CHARGE:  cpu time    0.6581: real time    0.6583
    MIXING:  cpu time    0.0384: real time    0.0385
    --------------------------------------------
      LOOP:  cpu time    9.5334: real time    9.5388

 eigenvalue-minimisations  :   400
 total energy-change (2. order) :-0.2938253E-03  (-0.2116705E-05)
 number of electron     152.9999989 magnetization       1.0000000
 augmentation part       92.3985561 magnetization       0.0809648

 Broyden mixing:
  rms(total) = 0.44287E-03    rms(broyden)= 0.44287E-03
  rms(prec ) = 0.64366E-03
  weight for this iteration     100.00

 eigenvalues of (default mixing * dielectric matrix)
  average eigenvalue GAMMA=   1.5478
  7.0661  3.9542  2.5062  2.1313  1.5446  1.5446  0.9873  0.9873  0.7787  0.7787
  0.7476  0.7255  0.6003  0.4495  0.5315  0.4981  0.4822

 Free energy of the ion-electron system (eV)
  ---------------------------------------------------
  alpha Z        PSCENC =        41.16232785
  Ewald energy   TEWEN  =     16501.18500729
  -Hartree energ DENC   =    -33480.48672368
  -exchange      EXHF   =         0.00000000
  -V(xc)+E(xc)   XCENC  =       615.58615788
  PAW double counting   =     17660.81937603   -19059.43778968
  entropy T*S    EENTRO =         0.00879516
  eigenvalues    EBANDS =      -990.09940325
  atomic energy  EATOM  =     18662.21924712
  Solvation  Ediel_sol  =         0.00000000
  ---------------------------------------------------
  free energy    TOTEN  =       -49.04300529 eV

  energy without entropy =      -49.05180045  energy(sigma->0) =      -49.04593701


--------------------------------------------------------------------------------------------------------




--------------------------------------- Iteration      1(  23)  ---------------------------------------


    POTLOK:  cpu time    1.1638: real time    1.1659
    SETDIJ:  cpu time    0.0179: real time    0.0179
    EDDIAG:  cpu time    1.0990: real time    1.0998
  RMM-DIIS:  cpu time    6.5703: real time    6.5741
    ORTHCH:  cpu time    0.0613: real time    0.0614
       DOS:  cpu time    0.0004: real time    0.0004
    CHARGE:  cpu time    0.6539: real time    0.6545
    MIXING:  cpu time    0.0407: real time    0.0407
    --------------------------------------------
      LOOP:  cpu time    9.6073: real time    9.6147

 eigenvalue-minimisations  :   405
 total energy-change (2. order) :-0.1372689E-03  (-0.8942196E-06)
 number of electron     152.9999989 magnetization       1.0000000
 augmentation part       92.3978410 magnetization       0.0809525

 Broyden mixing:
  rms(total) = 0.24227E-03    rms(broyden)= 0.24223E-03
  rms(prec ) = 0.37868E-03
  weight for this iteration     100.00

 eigenvalues of (default mixing * dielectric matrix)
  average eigenvalue GAMMA=   1.5706
  7.4794  4.2827  2.4728  2.2240  1.7952  1.2824  1.2824  0.9748  0.9748  0.7708
  0.7708  0.7299  0.6720  0.6010  0.4495  0.5216  0.4831  0.5024

 Free energy of the ion-electron system (eV)
  ---------------------------------------------------
  alpha Z        PSCENC =        41.16232785
  Ewald energy   TEWEN  =     16501.18500729
  -Hartree energ DENC   =    -33480.56744712
  -exchange      EXHF   =         0.00000000
  -V(xc)+E(xc)   XCENC  =       615.58671891
  PAW double counting   =     17660.89390674   -19059.51859113
  entropy T*S    EENTRO =         0.00879520
  eigenvalues    EBANDS =      -990.01310742
  atomic energy  EATOM  =     18662.21924712
  Solvation  Ediel_sol  =         0.00000000
  ---------------------------------------------------
  free energy    TOTEN  =       -49.04314256 eV

  energy without entropy =      -49.05193776  energy(sigma->0) =      -49.04607429


--------------------------------------------------------------------------------------------------------




--------------------------------------- Iteration      1(  24)  ---------------------------------------


    POTLOK:  cpu time    1.1650: real time    1.1659
    SETDIJ:  cpu time    0.0170: real time    0.0170
    EDDIAG:  cpu time    1.0994: real time    1.1006
  RMM-DIIS:  cpu time    6.5771: real time    6.5830
    ORTHCH:  cpu time    0.0609: real time    0.0609
       DOS:  cpu time    0.0005: real time    0.0005
    CHARGE:  cpu time    0.6525: real time    0.6532
    MIXING:  cpu time    0.0429: real time    0.0429
    --------------------------------------------
      LOOP:  cpu time    9.6153: real time    9.6239

 eigenvalue-minimisations  :   397
 total energy-change (2. order) :-0.9005992E-04  (-0.5925983E-06)
 number of electron     152.9999989 magnetization       1.0000000
 augmentation part       92.3976736 magnetization       0.0809448

 Broyden mixing:
  rms(total) = 0.13092E-03    rms(broyden)= 0.13090E-03
  rms(prec ) = 0.22386E-03
  weight for this iteration     100.00

 eigenvalues of (default mixing * dielectric matrix)
  average eigenvalue GAMMA=   1.5769
  7.7378  4.5450  2.4111  2.4111  1.7931  1.4133  1.4133  0.9959  0.9959  0.8066
  0.8066  0.7308  0.7308  0.6066  0.6066  0.4495  0.5261  0.4829  0.4983

 Free energy of the ion-electron system (eV)
  ---------------------------------------------------
  alpha Z        PSCENC =        41.16232785
  Ewald energy   TEWEN  =     16501.18500729
  -Hartree energ DENC   =    -33480.58308459
  -exchange      EXHF   =         0.00000000
  -V(xc)+E(xc)   XCENC  =       615.58712295
  PAW double counting   =     17660.80121048   -19059.42616627
  entropy T*S    EENTRO =         0.00879512
  eigenvalues    EBANDS =      -989.99769257
  atomic energy  EATOM  =     18662.21924712
  Solvation  Ediel_sol  =         0.00000000
  ---------------------------------------------------
  free energy    TOTEN  =       -49.04323262 eV

  energy without entropy =      -49.05202774  energy(sigma->0) =      -49.04616433


--------------------------------------------------------------------------------------------------------




--------------------------------------- Iteration      1(  25)  ---------------------------------------


    POTLOK:  cpu time    1.1640: real time    1.1653
    SETDIJ:  cpu time    0.0171: real time    0.0171
    EDDIAG:  cpu time    1.1005: real time    1.1016
  RMM-DIIS:  cpu time    6.3536: real time    6.3761
    ORTHCH:  cpu time    0.0610: real time    0.0610
       DOS:  cpu time    0.0004: real time    0.0004
    CHARGE:  cpu time    0.6521: real time    0.6528
    MIXING:  cpu time    0.0447: real time    0.0447
    --------------------------------------------
      LOOP:  cpu time    9.3933: real time    9.4191

 eigenvalue-minimisations  :   392
 total energy-change (2. order) :-0.6588130E-04  (-0.5029571E-06)
 number of electron     152.9999989 magnetization       1.0000000
 augmentation part       92.3976842 magnetization       0.0809554

 Broyden mixing:
  rms(total) = 0.13748E-03    rms(broyden)= 0.13747E-03
  rms(prec ) = 0.19254E-03
  weight for this iteration     100.00

 eigenvalues of (default mixing * dielectric matrix)
  average eigenvalue GAMMA=   1.6373
  8.0448  5.0507  2.6275  2.6275  2.0461  1.6121  1.2784  1.2784  1.0035  1.0035
  0.7730  0.7730  0.7253  0.7253  0.6227  0.5965  0.4495  0.5256  0.4823  0.5000

 Free energy of the ion-electron system (eV)
  ---------------------------------------------------
  alpha Z        PSCENC =        41.16232785
  Ewald energy   TEWEN  =     16501.18500729
  -Hartree energ DENC   =    -33480.58177531
  -exchange      EXHF   =         0.00000000
  -V(xc)+E(xc)   XCENC  =       615.58704460
  PAW double counting   =     17660.72990854   -19059.35312873
  entropy T*S    EENTRO =         0.00879515
  eigenvalues    EBANDS =      -990.00072501
  atomic energy  EATOM  =     18662.21924712
  Solvation  Ediel_sol  =         0.00000000
  ---------------------------------------------------
  free energy    TOTEN  =       -49.04329850 eV

  energy without entropy =      -49.05209365  energy(sigma->0) =      -49.04623022


--------------------------------------------------------------------------------------------------------




--------------------------------------- Iteration      1(  26)  ---------------------------------------


    POTLOK:  cpu time    1.1654: real time    1.1682
    SETDIJ:  cpu time    0.0163: real time    0.0163
    EDDIAG:  cpu time    1.1003: real time    1.1013
  RMM-DIIS:  cpu time    6.3980: real time    6.4039
    ORTHCH:  cpu time    0.0609: real time    0.0610
       DOS:  cpu time    0.0005: real time    0.0005
    CHARGE:  cpu time    0.6573: real time    0.6580
    MIXING:  cpu time    0.0474: real time    0.0475
    --------------------------------------------
      LOOP:  cpu time    9.4462: real time    9.4565

 eigenvalue-minimisations  :   393
 total energy-change (2. order) :-0.3669371E-04  (-0.3819506E-06)
 number of electron     152.9999989 magnetization       1.0000000
 augmentation part       92.3980041 magnetization       0.0809614

 Broyden mixing:
  rms(total) = 0.86388E-04    rms(broyden)= 0.86384E-04
  rms(prec ) = 0.11834E-03
  weight for this iteration     100.00

 eigenvalues of (default mixing * dielectric matrix)
  average eigenvalue GAMMA=   1.6461
  8.1736  5.4233  3.0313  2.5234  1.9932  1.8356  1.3092  1.3092  0.9963  0.9963
  0.8350  0.8350  0.7454  0.7454  0.6346  0.6346  0.5919  0.4495  0.5231  0.4828
  0.4999

 Free energy of the ion-electron system (eV)
  ---------------------------------------------------
  alpha Z        PSCENC =        41.16232785
  Ewald energy   TEWEN  =     16501.18500729
  -Hartree energ DENC   =    -33480.56705489
  -exchange      EXHF   =         0.00000000
  -V(xc)+E(xc)   XCENC  =       615.58655892
  PAW double counting   =     17660.66329891   -19059.28199790
  entropy T*S    EENTRO =         0.00879509
  eigenvalues    EBANDS =      -990.01951759
  atomic energy  EATOM  =     18662.21924712
  Solvation  Ediel_sol  =         0.00000000
  ---------------------------------------------------
  free energy    TOTEN  =       -49.04333519 eV

  energy without entropy =      -49.05213029  energy(sigma->0) =      -49.04626689


--------------------------------------------------------------------------------------------------------




--------------------------------------- Iteration      1(  27)  ---------------------------------------


    POTLOK:  cpu time    1.1636: real time    1.1674
    SETDIJ:  cpu time    0.0170: real time    0.0170
    EDDIAG:  cpu time    1.0996: real time    1.1005
  RMM-DIIS:  cpu time    5.0550: real time    5.0597
    ORTHCH:  cpu time    0.0615: real time    0.0615
       DOS:  cpu time    0.0005: real time    0.0005
    CHARGE:  cpu time    0.6587: real time    0.6594
    MIXING:  cpu time    0.0504: real time    0.0504
    --------------------------------------------
      LOOP:  cpu time    8.1063: real time    8.1165

 eigenvalue-minimisations  :   283
 total energy-change (2. order) :-0.1147299E-04  (-0.1098738E-06)
 number of electron     152.9999989 magnetization       1.0000000
 augmentation part       92.3978856 magnetization       0.0809587

 Broyden mixing:
  rms(total) = 0.47573E-04    rms(broyden)= 0.47566E-04
  rms(prec ) = 0.71277E-04
  weight for this iteration     100.00

 eigenvalues of (default mixing * dielectric matrix)
  average eigenvalue GAMMA=   1.6385
  8.2120  5.6696  3.2175  2.5048  2.0335  1.8262  1.3567  1.3567  1.0273  1.0273
  0.9690  0.9158  0.7611  0.7611  0.6494  0.6494  0.6128  0.4495  0.4837  0.4973
  0.5156  0.5516

 Free energy of the ion-electron system (eV)
  ---------------------------------------------------
  alpha Z        PSCENC =        41.16232785
  Ewald energy   TEWEN  =     16501.18500729
  -Hartree energ DENC   =    -33480.57383347
  -exchange      EXHF   =         0.00000000
  -V(xc)+E(xc)   XCENC  =       615.58670025
  PAW double counting   =     17660.67078747   -19059.29067634
  entropy T*S    EENTRO =         0.00879511
  eigenvalues    EBANDS =      -990.01170195
  atomic energy  EATOM  =     18662.21924712
  Solvation  Ediel_sol  =         0.00000000
  ---------------------------------------------------
  free energy    TOTEN  =       -49.04334667 eV

  energy without entropy =      -49.05214177  energy(sigma->0) =      -49.04627837


--------------------------------------------------------------------------------------------------------




--------------------------------------- Iteration      1(  28)  ---------------------------------------


    POTLOK:  cpu time    1.1641: real time    1.1650
    SETDIJ:  cpu time    0.0170: real time    0.0170
    EDDIAG:  cpu time    1.0997: real time    1.1006
  RMM-DIIS:  cpu time    4.3377: real time    4.3416
    ORTHCH:  cpu time    0.0613: real time    0.0613
       DOS:  cpu time    0.0004: real time    0.0004
    CHARGE:  cpu time    0.6536: real time    0.6543
    MIXING:  cpu time    0.0542: real time    0.0543
[...]
     66      -4.9305      1.00000
     67      -4.9021      1.00000
     68      -4.8890      1.00000
     69      -4.8662      1.00000
     70      -4.8432      1.00000
     71      -4.8200      1.00000
     72      -4.7713      1.00000
     73      -4.7335      1.00000
     74      -4.5638      1.00000
     75      -4.1875      1.00000
     76      -4.1546      1.00000
     77      -3.4932      1.00000
     78      -3.0479     -0.00000
     79      -2.9126     -0.00000
     80      -2.5135     -0.00000
     81      -2.2829     -0.00000
     82      -1.9679     -0.00000
     83      -1.8404     -0.00000
     84      -1.7731     -0.00000
     85      -1.2895     -0.00000
     86      -1.0160     -0.00000
     87      -0.9616     -0.00000
     88      -0.7184     -0.00000
     89      -0.3676      0.00000
     90      -0.2791      0.00000
     91      -0.1763      0.00000
     92       0.1095      0.00000

 spin component 2

 k-point     1 :       0.0000    0.0000    0.0000
  band No.  band energies     occupation 
      1     -28.3384      1.00000
      2     -13.7241      1.00000
      3     -11.2685      1.00000
      4     -11.0245      1.00000
      5     -10.8128      1.00000
      6     -10.0980      1.00000
      7      -8.5823      1.00000
      8      -8.1983      1.00000
      9      -7.6699      1.00000
     10      -7.5457      1.00000
     11      -7.4063      1.00000
     12      -7.3254      1.00000
     13      -7.2535      1.00000
     14      -7.1212      1.00000
     15      -7.0434      1.00000
     16      -6.8907      1.00000
     17      -6.8130      1.00000
     18      -6.7772      1.00000
     19      -6.7416      1.00000
     20      -6.6557      1.00000
     21      -6.6200      1.00000
     22      -6.5819      1.00000
     23      -6.4897      1.00000
     24      -6.4839      1.00000
     25      -6.4298      1.00000
     26      -6.3520      1.00000
     27      -6.3189      1.00000
     28      -6.2835      1.00000
     29      -6.2118      1.00000
     30      -6.1864      1.00000
     31      -6.1572      1.00000
     32      -6.0761      1.00000
     33      -6.0618      1.00000
     34      -5.9905      1.00000
     35      -5.9377      1.00000
     36      -5.7950      1.00000
     37      -5.7708      1.00000
     38      -5.6698      1.00000
     39      -5.6257      1.00000
     40      -5.6141      1.00000
     41      -5.5605      1.00000
     42      -5.5416      1.00000
     43      -5.5025      1.00000
     44      -5.4622      1.00000
     45      -5.4291      1.00000
     46      -5.3830      1.00000
     47      -5.3668      1.00000
     48      -5.3403      1.00000
     49      -5.3385      1.00000
     50      -5.3179      1.00000
     51      -5.2911      1.00000
     52      -5.2460      1.00000
     53      -5.2300      1.00000
     54      -5.2128      1.00000
     55      -5.1951      1.00000
     56      -5.1641      1.00000
     57      -5.1513      1.00000
     58      -5.1212      1.00000
     59      -5.1130      1.00000
     60      -5.0644      1.00000
     61      -5.0374      1.00000
     62      -5.0045      1.00000
     63      -4.9906      1.00000
     64      -4.9503      1.00000
     65      -4.9186      1.00000
     66      -4.9036      1.00000
     67      -4.8791      1.00000
     68      -4.8463      1.00000
     69      -4.8398      1.00000
     70      -4.8107      1.00000
     71      -4.7861      1.00000
     72      -4.7438      1.00000
     73      -4.7087      1.00000
     74      -4.5211      1.00000
     75      -4.1290      1.01452
     76      -4.1154      0.98548
     77      -3.2861     -0.00000
     78      -2.9948     -0.00000
     79      -2.8584     -0.00000
     80      -2.4459     -0.00000
     81      -2.1785     -0.00000
     82      -1.9410     -0.00000
     83      -1.7624     -0.00000
     84      -1.6950     -0.00000
     85      -1.1694      0.00000
     86      -0.9587      0.00000
     87      -0.8275      0.00000
     88      -0.6275      0.00000
     89      -0.2840      0.00000
     90      -0.2137      0.00000
     91      -0.0985      0.00000
     92       0.1604      0.00000


--------------------------------------------------------------------------------------------------------


 soft charge-density along one line, spin component           1
         0         1         2         3         4         5         6         7         8         9
 total charge-density along one line
 
 soft charge-density along one line, spin component           2
         0         1         2         3         4         5         6         7         8         9
 total charge-density along one line
 
 pseudopotential strength for first ion, spin component:           1
-10.507   0.005  -0.010  -0.003  -0.008   1.012  -0.004   0.009
  0.005 -10.500  -0.009   0.003   0.006  -0.004   1.007   0.007
 -0.010  -0.009 -10.486   0.004  -0.010   0.009   0.007   0.995
 -0.003   0.003   0.004 -10.490   0.002   0.002  -0.005  -0.003
 -0.008   0.006  -0.010   0.002 -10.495   0.006  -0.005   0.008
  1.012  -0.004   0.009   0.002   0.006   6.296   0.002  -0.008
 -0.004   1.007   0.007  -0.005  -0.005   0.002   6.297  -0.005
  0.009   0.007   0.995  -0.003   0.008  -0.008  -0.005   6.307
  0.002  -0.005  -0.003   0.998  -0.001  -0.001   0.005   0.002
  0.006  -0.005   0.008  -0.001   1.003  -0.004   0.003  -0.007
 -0.006   0.001  -0.003  -0.001  -0.004   0.004   0.000  -0.001
 -0.011   0.002  -0.005  -0.002  -0.007   0.008   0.001  -0.001
 -0.013  -0.001   0.004  -0.000   0.008   0.009   0.001  -0.003
 -0.000  -0.006  -0.001  -0.012  -0.000   0.000   0.004   0.001
 -0.005  -0.000   0.008  -0.002  -0.013   0.003   0.000  -0.006
 -0.014  -0.002   0.004  -0.000   0.009   0.009   0.001  -0.004
 -0.000  -0.006  -0.002  -0.012  -0.000   0.001   0.004   0.001
 -0.004  -0.000   0.009  -0.002  -0.013   0.002   0.001  -0.006
 pseudopotential strength for first ion, spin component:           2
-10.472   0.004  -0.004  -0.011   0.005   0.984  -0.003   0.004
  0.004 -10.489  -0.010   0.003   0.004  -0.003   0.997   0.007
 -0.004  -0.010 -10.475   0.003  -0.007   0.004   0.007   0.986
 -0.011   0.003   0.003 -10.477  -0.001   0.008  -0.003  -0.002
  0.005   0.004  -0.007  -0.001 -10.481  -0.004  -0.003   0.006
  0.984  -0.003   0.004   0.008  -0.004   6.313   0.002  -0.003
 -0.003   0.997   0.007  -0.003  -0.003   0.002   6.303  -0.005
  0.004   0.007   0.986  -0.002   0.006  -0.003  -0.005   6.311
  0.008  -0.003  -0.002   0.987   0.001  -0.005   0.003   0.002
 -0.004  -0.003   0.006   0.001   0.991   0.002   0.002  -0.004
 -0.002   0.002  -0.001  -0.001  -0.002   0.001   0.000  -0.002
 -0.004   0.004  -0.001  -0.002  -0.004   0.001   0.001  -0.003
 -0.014  -0.001   0.005   0.001   0.007   0.011   0.000  -0.005
  0.001  -0.007  -0.001  -0.013   0.000  -0.000   0.006  -0.001
 -0.008   0.001   0.009  -0.000  -0.014   0.007  -0.000  -0.007
 -0.016  -0.001   0.006   0.001   0.008   0.013  -0.000  -0.005
  0.001  -0.008  -0.001  -0.015   0.000  -0.001   0.007  -0.001
 -0.010   0.001   0.010  -0.000  -0.016   0.008  -0.001  -0.008
 total augmentation occupancy for first ion, spin component:           1
  1.936   0.005  -0.007   0.000  -0.003  -0.015  -0.002   0.006   0.001   0.001  -0.009   0.012   0.031   0.001   0.033  -0.020
  0.005   1.928  -0.006   0.006  -0.002  -0.002  -0.018   0.006  -0.001   0.000   0.001  -0.001   0.003   0.040  -0.002  -0.001
 -0.007  -0.006   1.945   0.002  -0.005   0.006   0.006  -0.027  -0.003   0.004  -0.010   0.009  -0.012   0.003  -0.015   0.006
  0.000   0.006   0.002   1.936  -0.005   0.001  -0.001  -0.003  -0.019   0.000  -0.001   0.003   0.008   0.066  -0.004   0.000
 -0.003  -0.002  -0.005  -0.005   1.939   0.001   0.000   0.004   0.000  -0.017  -0.005   0.007  -0.017   0.003   0.036   0.012
 -0.015  -0.002   0.006   0.001   0.001   0.013  -0.000   0.002   0.000   0.001  -0.022  -0.000   0.020   0.000   0.009  -0.001
 -0.002  -0.018   0.006  -0.001   0.000  -0.000   0.008   0.000   0.001  -0.001   0.013  -0.001   0.002   0.013   0.001  -0.000
  0.006   0.006  -0.027  -0.003   0.004   0.002   0.000   0.007  -0.000   0.001  -0.029   0.004  -0.006  -0.001  -0.006   0.001
  0.001  -0.001  -0.003  -0.019   0.000   0.000   0.001  -0.000   0.009  -0.001  -0.012   0.001  -0.001   0.021  -0.003  -0.000
  0.001   0.000   0.004   0.000  -0.017   0.001  -0.001   0.001  -0.001   0.012  -0.015   0.001  -0.020  -0.004   0.021   0.001
 -0.009   0.001  -0.010  -0.001  -0.005  -0.022   0.013  -0.029  -0.012  -0.015   1.640  -0.116   0.126  -0.001   0.183  -0.016
  0.012  -0.001   0.009   0.003   0.007  -0.000  -0.001   0.004   0.001   0.001  -0.116   0.013  -0.017   0.001  -0.026   0.002
  0.031   0.003  -0.012   0.008  -0.017   0.020   0.002  -0.006  -0.001  -0.020   0.126  -0.017   0.179   0.006  -0.035  -0.011
  0.001   0.040   0.003   0.066   0.003   0.000   0.013  -0.001   0.021  -0.004  -0.001   0.001   0.006   0.092  -0.013  -0.001
  0.033  -0.002  -0.015  -0.004   0.036   0.009   0.001  -0.006  -0.003   0.021   0.183  -0.026  -0.035  -0.013   0.136   0.001
 -0.020  -0.001   0.006   0.000   0.012  -0.001  -0.000   0.001  -0.000   0.001  -0.016   0.002  -0.011  -0.001   0.001   0.001
  0.000  -0.013  -0.001  -0.022   0.000  -0.000  -0.001   0.000  -0.001   0.000  -0.000   0.000  -0.001  -0.006   0.001   0.000
 -0.012   0.000   0.010  -0.001  -0.020  -0.000  -0.000   0.001   0.000  -0.001  -0.025   0.003   0.001   0.001  -0.010   0.000
 total augmentation occupancy for first ion, spin component:           2
  0.014  -0.001   0.002  -0.005   0.007  -0.002  -0.000  -0.002   0.001  -0.002   0.029   0.006  -0.008   0.007  -0.017  -0.001
 -0.001   0.000  -0.000   0.001  -0.001  -0.000   0.001   0.000   0.000   0.000  -0.003  -0.001   0.002  -0.002   0.002   0.000
  0.002  -0.000   0.001  -0.001   0.001  -0.001   0.000   0.001  -0.000  -0.001   0.004   0.000   0.000   0.003  -0.001   0.000
 -0.005   0.001  -0.001   0.003  -0.002   0.001   0.000   0.000   0.001   0.000  -0.010  -0.002   0.002  -0.006   0.006   0.000
  0.007  -0.001   0.001  -0.002   0.003  -0.002   0.000  -0.001   0.000   0.001   0.014   0.002  -0.001   0.003  -0.011  -0.000
 -0.002  -0.000  -0.001   0.001  -0.002   0.001  -0.000   0.000  -0.000   0.000  -0.007  -0.001   0.001  -0.002   0.004   0.000
 -0.000   0.001   0.000   0.000   0.000  -0.000  -0.000   0.000  -0.000  -0.000   0.000   0.000   0.000   0.000  -0.001  -0.000
 -0.002   0.000   0.001   0.000  -0.001   0.000   0.000  -0.000  -0.000   0.000  -0.002  -0.000   0.000  -0.000   0.001   0.000
  0.001   0.000  -0.000   0.001   0.000  -0.000  -0.000  -0.000  -0.000  -0.000   0.002   0.000  -0.001   0.000  -0.001  -0.000
 -0.002   0.000  -0.001   0.000   0.001   0.000  -0.000   0.000  -0.000  -0.000  -0.003  -0.000   0.001  -0.001   0.002   0.000
  0.029  -0.003   0.004  -0.010   0.014  -0.007   0.000  -0.002   0.002  -0.003   0.067   0.004  -0.014   0.017  -0.037  -0.000
  0.006  -0.001   0.000  -0.002   0.002  -0.001   0.000  -0.000   0.000  -0.000   0.004   0.000  -0.001   0.001  -0.002  -0.000
 -0.008   0.002   0.000   0.002  -0.001   0.001   0.000   0.000  -0.001   0.001  -0.014  -0.001   0.003  -0.002   0.004   0.000
  0.007  -0.002   0.003  -0.006   0.003  -0.002   0.000  -0.000   0.000  -0.001   0.017   0.001  -0.002   0.003  -0.007  -0.000
 -0.017   0.002  -0.001   0.006  -0.011   0.004  -0.001   0.001  -0.001   0.002  -0.037  -0.002   0.004  -0.007   0.016   0.000
 -0.001   0.000   0.000   0.000  -0.000   0.000  -0.000   0.000  -0.000   0.000  -0.000  -0.000   0.000  -0.000   0.000   0.000
  0.000  -0.000   0.000  -0.001   0.000   0.000  -0.000  -0.000   0.000   0.000  -0.000   0.000   0.000   0.000   0.000  -0.000
 -0.001   0.000   0.000   0.001  -0.001   0.000   0.000   0.000  -0.000   0.000  -0.000  -0.000   0.000  -0.000   0.000   0.000


------------------------ aborting loop because EDIFF is reached ----------------------------------------


    CHARGE:  cpu time    0.6490: real time    0.6496
    FORLOC:  cpu time    0.0649: real time    0.0649
    FORNL :  cpu time    1.5328: real time    1.5335
    STRESS:  cpu time    6.1442: real time    6.1486
    FORCOR:  cpu time    1.1693: real time    1.1701
    FORHAR:  cpu time    0.1892: real time    0.1896
    MIXING:  cpu time    0.1116: real time    0.1117
    OFIELD:  cpu time    0.0001: real time    0.0001

  FORCE on cell =-STRESS in cart. coord.  units (eV):
  Direction    XX          YY          ZZ          XY          YZ          ZX
  --------------------------------------------------------------------------------------
  Alpha Z    41.16233    41.16233    41.16233
  Ewald   10190.25301  7715.81532 -1404.89948  -821.52519   265.26861   230.72794
  Hartree 15313.62968 13178.16644  4988.78563  -770.64585   231.71187   216.61710
  E(xc)    -876.36667  -877.77527  -879.57765     0.09953     0.01738     0.00954
  Local  -26899.74618-22324.54904 -5021.80124  1598.34573  -495.75268  -448.42642
  n-local  -328.63317  -322.11889  -327.79761    -2.78232     0.33013     1.43075
  augment  1222.57734  1226.48596  1232.61987     0.20449    -0.76334    -0.56143
  Kinetic  1336.95813  1362.45110  1370.79794    -4.11426    -0.52589     0.56472
  Fock        0.00000     0.00000     0.00000     0.00000     0.00000     0.00000
  -------------------------------------------------------------------------------------
  Total      -0.16553    -0.36204    -0.71020    -0.41786     0.28608     0.36220
  in kB      -0.07858    -0.17187    -0.33715    -0.19837     0.13581     0.17194
  external pressure =       -0.20 kB  Pullay stress =        0.00 kB


 VOLUME and BASIS-vectors are now :
 -----------------------------------------------------------------------------
  energy-cutoff  :      600.00
  volume of cell :     3375.00
      direct lattice vectors                 reciprocal lattice vectors
    15.000000000  0.000000000  0.000000000     0.066666667  0.000000000  0.000000000
     0.000000000 15.000000000  0.000000000     0.000000000  0.066666667  0.000000000
     0.000000000  0.000000000 15.000000000     0.000000000  0.000000000  0.066666667

  length of vectors
    15.000000000 15.000000000 15.000000000     0.066666667  0.066666667  0.066666667


 FORCES acting on ions
    electron-ion (+dipol)            ewald-force                    non-local-force                 convergence-correction
 -----------------------------------------------------------------------------------------------
   0.110E+04 0.677E+03 0.143E+02   -.110E+04 -.674E+03 -.139E+02   -.500E+01 -.323E+01 -.274E+00   -.273E-04 -.172E-04 0.138E-05
   0.458E+03 -.345E+03 0.952E+03   -.456E+03 0.342E+03 -.952E+03   -.164E+01 0.233E+01 -.280E-01   -.134E-04 -.108E-05 -.557E-04
   0.316E+03 0.123E+04 -.200E+03   -.314E+03 -.122E+04 0.197E+03   -.227E+01 -.900E+01 0.228E+01   0.339E-05 -.301E-04 0.664E-05
   -.869E+03 -.122E+03 0.905E+03   0.867E+03 0.121E+03 -.900E+03   0.278E+01 0.374E+00 -.439E+01   0.254E-04 -.147E-05 -.107E-04
   -.809E+03 0.102E+04 0.198E+03   0.804E+03 -.101E+04 -.196E+03   0.495E+01 -.649E+01 -.222E+01   0.185E-04 -.804E-05 0.871E-05
   -.856E+02 0.522E+03 -.929E+03   0.855E+02 -.519E+03 0.929E+03   0.933E-02 -.285E+01 0.328E+00   0.159E-04 -.135E-04 0.497E-04
   0.177E+03 0.647E+03 0.120E+04   -.177E+03 -.642E+03 -.119E+04   -.311E+00 -.497E+01 -.594E+01   0.144E-05 0.585E-05 -.170E-04
   0.126E+04 -.382E+03 0.149E+03   -.125E+04 0.379E+03 -.146E+03   -.894E+01 0.317E+01 -.285E+01   -.390E-04 0.303E-05 -.597E-05
   0.588E+03 -.148E+03 -.122E+04   -.584E+03 0.148E+03 0.122E+04   -.332E+01 -.102E+00 0.680E+01   0.589E-05 0.251E-06 0.265E-04
   0.427E+03 -.128E+04 -.226E+03   -.424E+03 0.127E+04 0.224E+03   -.257E+01 0.745E+01 0.192E+01   -.169E-04 0.419E-04 0.461E-05
   -.483E+03 -.107E+04 0.728E+03   0.479E+03 0.106E+04 -.721E+03   0.378E+01 0.665E+01 -.665E+01   0.506E-05 0.130E-04 -.459E-05
   -.868E+03 0.544E+02 -.519E+03   0.867E+03 -.543E+02 0.514E+03   0.130E+01 -.305E+00 0.425E+01   0.102E-04 -.233E-05 0.691E-05
   -.572E+03 -.769E+03 -.831E+03   0.569E+03 0.765E+03 0.829E+03   0.252E+01 0.370E+01 0.279E+01   0.271E-04 -.597E-05 0.345E-04
   -.145E+03 0.337E+02 -.150E+03   0.125E+03 -.380E+02 0.152E+03   0.194E+02 0.446E+01 -.264E+01   0.161E-05 -.107E-05 0.440E-06
   -.449E+03 -.640E+02 -.661E+02   0.507E+03 0.769E+02 0.609E+02   -.579E+02 -.129E+02 0.533E+01   0.171E-04 0.894E-06 -.260E-05
 -----------------------------------------------------------------------------------------------
   0.472E+02 0.117E+02 0.128E+01   -.455E-12 0.242E-12 0.142E-12   -.472E+02 -.117E+02 -.128E+01   0.350E-04 -.159E-04 0.427E-04
 
 
 POSITION                                       TOTAL-FORCE (eV/Angst)
 -----------------------------------------------------------------------------------
      4.38402      6.35071      8.24841         0.122084     -0.176472      0.129310
      5.64537      8.27958      7.29868        -0.174257     -0.166854      0.122631
      5.91351      4.31935      8.47046         0.056733      0.427253     -0.107925
      8.00940      7.60137      7.24645        -0.058723     -0.149934     -0.153679
      8.25126      5.16672      7.99276        -0.136241      0.144898     -0.210873
      6.74847      6.52143      9.20002        -0.097177     -0.058981     -0.241741
      6.22846      6.01394      6.69644         0.242279     -0.248743      0.407795
      3.41830      8.60899      8.23106        -0.200543      0.149009     -0.187594
      5.02160      8.13268      9.83279         0.389049     -0.064205      0.009011
      5.34429     10.22150      8.64032        -0.142065      0.251870     -0.110514
      7.31921      9.98232      7.09975         0.039092      0.168985      0.072366
      9.23233      7.17972      9.22372        -0.366553     -0.189071      0.001120
      7.29483      8.89169      9.20185         0.099602     -0.198686      0.158436
     10.98640      7.33220      9.64820         0.065216      0.166506      0.058295
     12.11150      7.57910      9.54716         0.161504     -0.055575      0.053362
 -----------------------------------------------------------------------------------
    total drift:                                0.000720      0.000999     -0.000080


--------------------------------------------------------------------------------------------------------



  FREE ENERGIE OF THE ION-ELECTRON SYSTEM (eV)
  ---------------------------------------------------
  free  energy   TOTEN  =       -49.04336048 eV

  energy  without entropy=      -49.05215563  energy(sigma->0) =      -49.04629220
 


--------------------------------------------------------------------------------------------------------


    POTLOK:  cpu time    1.1848: real time    1.1856


--------------------------------------------------------------------------------------------------------


     LOOP+:  cpu time  348.5649: real time  348.8688
    4ORBIT:  cpu time    0.0000: real time    0.0000

 total amount of memory used by VASP MPI-rank0   158680. kBytes
=======================================================================

   base      :      30000. kBytes
   nonl-proj :      12601. kBytes
   fftplans  :      27994. kBytes
   grid      :      74150. kBytes
   one-center:         93. kBytes
   wavefun   :      13842. kBytes
 
  
  
 General timing and accounting informations for this job:
 ========================================================
  
                  Total CPU time used (sec):      352.707
                            User time (sec):      340.592
                          System time (sec):       12.115
                         Elapsed time (sec):      353.048
  
                   Maximum memory used (kb):      281144.
                   Average memory used (kb):           0.
  
                          Minor page faults:       282167
                          Major page faults:            0
                 Voluntary context switches:          612
