<?xml version="1.0" encoding="ISO-8859-1"?>
<modeling>
 <generator>
  <i name="program" type="string">vasp </i>
  <i name="version" type="string">5.4.4.18Apr17-6-g9f103f2a35  </i>
  <i name="subversion" type="string">(build May 08 2019 13:49:07) complex            parallel </i>
  <i name="platform" type="string">LinuxIFC </i>
  <i name="date" type="string">2019 11 13 </i>
  <i name="time" type="string">12:50:42 </i>
 </generator>
 <incar>
  <i type="string" name="SYSTEM"> CuCO</i>
  <i type="int" name="ISTART">     0</i>
  <i type="string" name="PREC">accurate</i>
  <i type="string" name="ALGO"> Fast</i>
  <i type="int" name="ISPIN">     2</i>
  <i type="int" name="INIWAV">     1</i>
  <i type="int" name="NELM">   300</i>
  <i type="int" name="NELMIN">     3</i>
  <i type="int" name="IBRION">    -1</i>
  <i name="EDIFF">      0.00000010</i>
  <i name="EDIFFG">     -0.00100000</i>
  <i type="int" name="NSW">     0</i>
  <i type="int" name="ISYM">     0</i>
  <i name="ENCUT">    600.00000000</i>
  <i name="NUPDOWN">      1.00000000</i>
  <i type="logical" name="LREAL"> F  </i>
  <i type="int" name="ISMEAR">     1</i>
  <i name="SIGMA">      0.10000000</i>
  <i name="KSPACING">      0.50000000</i>
  <i type="logical" name="KGAMMA"> F  </i>
  <i type="logical" name="LWAVE"> F  </i>
  <i type="logical" name="LCHARG"> F  </i>
  <v type="int" name="KPOINT_BSE">    -1     0     0     0</v>
  <i type="int" name="NELM">   300</i>
  <i type="string" name="GGA"> PE</i>
 </incar>
 <structure name="primitive_cell" >
  <crystal>
   <varray name="basis" >
    <v>      15.00000000       0.00000000       0.00000000 </v>
    <v>       0.00000000      15.00000000       0.00000000 </v>
    <v>       0.00000000       0.00000000      15.00000000 </v>
   </varray>
   <i name="volume">   3375.00000000 </i>
   <varray name="rec_basis" >
    <v>       0.06666667       0.00000000       0.00000000 </v>
    <v>       0.00000000       0.06666667       0.00000000 </v>
    <v>       0.00000000       0.00000000       0.06666667 </v>
   </varray>
  </crystal>
  <varray name="positions" >
   <v>       0.29226800       0.42338067      -0.45010600 </v>
   <v>       0.41523067       0.40092933       0.44642933 </v>
   <v>       0.22788667      -0.42606733      -0.45126267 </v>
   <v>       0.33477333      -0.45782133      -0.34448067 </v>
   <v>       0.37635800      -0.44802800       0.48657867 </v>
   <v>       0.39423400       0.28795667      -0.43530267 </v>
   <v>       0.44989800       0.43476200      -0.38666533 </v>
   <v>      -0.46604000      -0.49324200       0.48309667 </v>
   <v>       0.48632200      -0.40722067      -0.38654333 </v>
   <v>       0.35628600      -0.31856667      -0.42397867 </v>
   <v>      -0.44991600       0.34444800      -0.46714933 </v>
   <v>       0.48794733      -0.33451200       0.47331667 </v>
   <v>      -0.38451133       0.47864800      -0.38508533 </v>
   <v>      -0.26757333       0.48881333      -0.35678667 </v>
   <v>      -0.19256667      -0.49472667      -0.36352267 </v>
  </varray>
 </structure>
 <varray name="primitive_index" >
  <v type="int" >        1 </v>
  <v type="int" >        7 </v>
  <v type="int" >        8 </v>
  <v type="int" >        9 </v>
  <v type="int" >        2 </v>
  <v type="int" >        3 </v>
  <v type="int" >        6 </v>
  <v type="int" >        4 </v>
  <v type="int" >       13 </v>
  <v type="int" >       10 </v>
  <v type="int" >        5 </v>
  <v type="int" >       11 </v>
  <v type="int" >       12 </v>
  <v type="int" >       14 </v>
  <v type="int" >       15 </v>
 </varray>
 <kpoints>
  <generation param="Monkhorst-Pack">
   <v type="int" name="divisions">       1        1        1 </v>
   <v name="usershift">      0.00000000       0.00000000       0.00000000 </v>
   <v name="genvec1">      1.00000000       0.00000000       0.00000000 </v>
   <v name="genvec2">      0.00000000       1.00000000       0.00000000 </v>
   <v name="genvec3">      0.00000000       0.00000000       1.00000000 </v>
   <v name="shift">      0.00000000       0.00000000       0.00000000 </v>
  </generation>
  <varray name="kpointlist" >
   <v>       0.00000000       0.00000000       0.00000000 </v>
  </varray>
  <varray name="weights" >
   <v>       1.00000000 </v>
  </varray>
 </kpoints>
 <parameters>
  <separator name="general" >
   <i type="string" name="SYSTEM">CuCO</i>
   <i type="logical" name="LCOMPAT"> F  </i>
  </separator>
  <separator name="electronic" >
   <i type="string" name="PREC">accura</i>
   <i name="ENMAX">    600.00000000</i>
   <i name="ENAUG">    644.87300000</i>
   <i name="EDIFF">      0.00000010</i>
   <i type="int" name="IALGO">    68</i>
   <i type="int" name="IWAVPR">    10</i>
   <i type="int" name="NBANDS">    92</i>
   <i name="NELECT">    153.00000000</i>
   <i type="int" name="TURBO">     0</i>
   <i type="int" name="IRESTART">     0</i>
   <i type="int" name="NREBOOT">     0</i>
   <i type="int" name="NMIN">     0</i>
   <i name="EREF">      0.00000000</i>
   <separator name="electronic smearing" >
    <i type="int" name="ISMEAR">     1</i>
    <i name="SIGMA">      0.10000000</i>
    <i name="KSPACING">      0.50000000</i>
    <i type="logical" name="KGAMMA"> F  </i>
   </separator>
   <separator name="electronic projectors" >
    <i type="logical" name="LREAL"> F  </i>
    <v name="ROPT">      0.00000000      0.00000000      0.00000000</v>
    <i type="int" name="LMAXPAW">  -100</i>
    <i type="int" name="LMAXMIX">     2</i>
    <i type="logical" name="NLSPLINE"> F  </i>
   </separator>
   <separator name="electronic startup" >
    <i type="int" name="ISTART">     0</i>
    <i type="int" name="ICHARG">     2</i>
    <i type="int" name="INIWAV">     1</i>
   </separator>
   <separator name="electronic spin" >
    <i type="int" name="ISPIN">     2</i>
    <i type="logical" name="LNONCOLLINEAR"> F  </i>
    <v name="MAGMOM">      0.06666667      0.06666667      0.06666667      0.06666667      0.06666667      0.06666667      0.06666667      0.06666667      0.06666667      0.06666667      0.06666667      0.06666667      0.06666667      0.06666667      0.06666667</v>
    <i name="NUPDOWN">      1.00000000</i>
    <i type="logical" name="LSORBIT"> F  </i>
    <v name="SAXIS">      0.00000000      0.00000000      1.00000000</v>
    <i type="logical" name="LSPIRAL"> F  </i>
    <v name="QSPIRAL">      0.00000000      0.00000000      0.00000000</v>
    <i type="logical" name="LZEROZ"> F  </i>
   </separator>
   <separator name="electronic exchange-correlation" >
    <i type="logical" name="LASPH"> F  </i>
    <i type="logical" name="LMETAGGA"> F  </i>
   </separator>
   <separator name="electronic convergence" >
    <i type="int" name="NELM">   300</i>
    <i type="int" name="NELMDL">    -5</i>
    <i type="int" name="NELMIN">     3</i>
    <i name="ENINI">    600.00000000</i>
    <separator name="electronic convergence detail" >
     <i type="logical" name="LDIAG"> T  </i>
     <i type="logical" name="LSUBROT"> F  </i>
     <i name="WEIMIN">      0.00000000</i>
     <i name="EBREAK">      0.00000000</i>
     <i name="DEPER">      0.30000000</i>
     <i type="int" name="NRMM">     4</i>
     <i name="TIME">      0.40000000</i>
    </separator>
   </separator>
   <separator name="electronic mixer" >
    <i name="AMIX">      0.40000000</i>
    <i name="BMIX">      1.00000000</i>
    <i name="AMIN">      0.10000000</i>
    <i name="AMIX_MAG">      1.60000000</i>
    <i name="BMIX_MAG">      1.00000000</i>
    <separator name="electronic mixer details" >
     <i type="int" name="IMIX">     4</i>
     <i type="logical" name="MIXFIRST"> F  </i>
     <i type="int" name="MAXMIX">   -45</i>
     <i name="WC">    100.00000000</i>
     <i type="int" name="INIMIX">     1</i>
     <i type="int" name="MIXPRE">     1</i>
     <i type="int" name="MREMOVE">     5</i>
    </separator>
   </separator>
   <separator name="electronic dipolcorrection" >
    <i type="logical" name="LDIPOL"> F  </i>
    <i type="logical" name="LMONO"> F  </i>
    <i type="int" name="IDIPOL">     0</i>
    <i name="EPSILON">      1.00000000</i>
    <v name="DIPOL">   -100.00000000   -100.00000000   -100.00000000</v>
    <i name="EFIELD">      0.00000000</i>
   </separator>
  </separator>
  <separator name="grids" >
   <i type="int" name="NGX">   120</i>
   <i type="int" name="NGY">   120</i>
   <i type="int" name="NGZ">   120</i>
   <i type="int" name="NGXF">   240</i>
   <i type="int" name="NGYF">   240</i>
   <i type="int" name="NGZF">   240</i>
   <i type="logical" name="ADDGRID"> F  </i>
  </separator>
  <separator name="ionic" >
   <i type="int" name="NSW">     0</i>
   <i type="int" name="IBRION">    -1</i>
   <i type="int" name="MDALGO">     0</i>
   <i type="int" name="ISIF">     2</i>
   <i name="PSTRESS">      0.00000000</i>
   <i name="EDIFFG">     -0.00100000</i>
   <i type="int" name="NFREE">     0</i>
   <i name="POTIM">      0.50000000</i>
   <i name="SMASS">     -3.00000000</i>
   <i name="SCALEE">      1.00000000</i>
  </separator>
  <separator name="ionic md" >
   <i name="TEBEG">      0.00010000</i>
   <i name="TEEND">      0.00010000</i>
   <i type="int" name="NBLOCK">     1</i>
   <i type="int" name="KBLOCK">     1</i>
   <i type="int" name="NPACO">   256</i>
   <i name="APACO">     16.00000000</i>
  </separator>
  <separator name="symmetry" >
   <i type="int" name="ISYM">     0</i>
   <i name="SYMPREC">      0.00001000</i>
  </separator>
  <separator name="dos" >
   <i type="int" name="LORBIT">     0</i>
   <v name="RWIGS">     -1.00000000     -1.00000000     -1.00000000</v>
   <i type="int" name="NEDOS">   301</i>
   <i name="EMIN">     10.00000000</i>
   <i name="EMAX">    -10.00000000</i>
   <i name="EFERMI">      0.00000000</i>
  </separator>
  <separator name="writing" >
   <i type="int" name="NWRITE">     2</i>
   <i type="logical" name="LWAVE"> F  </i>
   <i type="logical" name="LDOWNSAMPLE"> F  </i>
   <i type="logical" name="LCHARG"> F  </i>
   <i type="logical" name="LPARD"> F  </i>
   <i type="logical" name="LVTOT"> F  </i>
   <i type="logical" name="LVHAR"> F  </i>
   <i type="logical" name="LELF"> F  </i>
   <i type="logical" name="LOPTICS"> F  </i>
   <v name="STM">      0.00000000      0.00000000      0.00000000      0.00000000      0.00000000      0.00000000      0.00000000</v>
  </separator>
  <separator name="performance" >
   <i type="int" name="NPAR">     4</i>
   <i type="int" name="NSIM">     4</i>
   <i type="int" name="NBLK">    -1</i>
   <i type="logical" name="LPLANE"> T  </i>
   <i type="logical" name="LSCALAPACK"> T  </i>
   <i type="logical" name="LSCAAWARE"> F  </i>
   <i type="logical" name="LSCALU"> F  </i>
   <i type="logical" name="LASYNC"> F  </i>
   <i type="logical" name="LORBITALREAL"> F  </i>
  </separator>
  <separator name="miscellaneous" >
   <i type="int" name="IDIOT">     3</i>
   <i type="int" name="ISPECIAL">     0</i>
   <i type="logical" name="LMUSIC"> F  </i>
   <v name="POMASS">     63.54600000     12.01100000     16.00000000</v>
   <v name="DARWINR">      0.00000000      0.00000000      0.00000000</v>
   <v name="DARWINV">      1.00000000      1.00000000      1.00000000</v>
   <i type="logical" name="LCORR"> T  </i>
  </separator>
  <i type="logical" name="GGA_COMPAT"> T  </i>
  <i type="logical" name="LBERRY"> F  </i>
  <i type="int" name="ICORELEVEL">     0</i>
  <i type="logical" name="LDAU"> F  </i>
  <i type="int" name="I_CONSTRAINED_M">     0</i>
  <separator name="electronic exchange-correlation" >
   <i type="string" name="GGA">PE</i>
   <i type="int" name="VOSKOWN">     0</i>
   <i type="logical" name="LHFCALC"> F  </i>
   <i type="string" name="PRECFOCK"></i>
   <i type="logical" name="LSYMGRAD"> F  </i>
   <i type="logical" name="LHFONE"> F  </i>
   <i type="logical" name="LRHFCALC"> F  </i>
   <i type="logical" name="LTHOMAS"> F  </i>
   <i type="logical" name="LMODELHF"> F  </i>
   <i name="ENCUT4O">     -1.00000000</i>
   <i type="int" name="EXXOEP">     0</i>
   <i type="int" name="FOURORBIT">     0</i>
   <i name="AEXX">      0.00000000</i>
   <i name="HFALPHA">      0.00000000</i>
   <i name="MCALPHA">      0.00000000</i>
   <i name="ALDAX">      1.00000000</i>
   <i name="AGGAX">      1.00000000</i>
   <i name="ALDAC">      1.00000000</i>
   <i name="AGGAC">      1.00000000</i>
   <i type="int" name="NKREDX">     1</i>
   <i type="int" name="NKREDY">     1</i>
   <i type="int" name="NKREDZ">     1</i>
   <i type="logical" name="SHIFTRED"> F  </i>
   <i type="logical" name="ODDONLY"> F  </i>
   <i type="logical" name="EVENONLY"> F  </i>
   <i type="int" name="LMAXFOCK">     0</i>
   <i type="int" name="NMAXFOCKAE">     0</i>
   <i type="logical" name="LFOCKAEDFT"> F  </i>
   <i name="HFSCREEN">      0.00000000</i>
   <i name="HFSCREENC">      0.00000000</i>
   <i type="int" name="NBANDSGWLOW">     0</i>
  </separator>
  <separator name="vdW DFT" >
   <i type="logical" name="LUSE_VDW"> F  </i>
   <i name="Zab_VDW">     -0.84910000</i>
   <i name="PARAM1">      0.12340000</i>
   <i name="PARAM2">      1.00000000</i>
   <i name="PARAM3">      0.00000000</i>
  </separator>
  <separator name="model GW" >
   <i type="int" name="MODEL_GW">     0</i>
   <i name="MODEL_EPS0">    135.00000000</i>
   <i name="MODEL_ALPHA">      1.00000000</i>
  </separator>
  <separator name="linear response parameters" >
   <i type="logical" name="LEPSILON"> F  </i>
   <i type="logical" name="LRPA"> F  </i>
   <i type="logical" name="LNABLA"> F  </i>
   <i type="logical" name="LVEL"> F  </i>
   <i type="int" name="KINTER">     0</i>
   <i name="CSHIFT">      0.10000000</i>
   <i name="OMEGAMAX">     -1.00000000</i>
   <i name="DEG_THRESHOLD">      0.00200000</i>
   <i name="RTIME">     -0.10000000</i>
   <i name="WPLASMAI">      0.00000000</i>
   <v name="DFIELD">      0.00000000      0.00000000      0.00000000</v>
   <v name="WPLASMA">      0.00000000      0.00000000      0.00000000      0.00000000      0.00000000      0.00000000      0.00000000      0.00000000      0.00000000</v>
  </separator>
  <separator name="orbital magnetization" >
   <i type="logical" name="NUCIND"> F  </i>
   <v name="MAGPOS">      0.00000000      0.00000000      0.00000000</v>
   <i type="logical" name="LNICSALL"> T  </i>
   <i type="logical" name="ORBITALMAG"> F  </i>
   <i type="logical" name="LMAGBLOCH"> F  </i>
   <i type="logical" name="LCHIMAG"> F  </i>
   <i type="logical" name="LGAUGE"> T  </i>
   <i type="int" name="MAGATOM">     0</i>
   <v name="MAGDIPOL">      0.00000000      0.00000000      0.00000000</v>
   <v name="AVECCONST">      0.00000000      0.00000000      0.00000000</v>
  </separator>
  <separator name="response functions" >
   <i type="logical" name="LADDER"> F  </i>
   <i type="logical" name="LRPAFORCE"> F  </i>
   <i type="logical" name="LFXC"> F  </i>
   <i type="logical" name="LHARTREE"> T  </i>
   <i type="int" name="IBSE">     0</i>
   <v type="int" name="KPOINT">    -1     0     0     0</v>
   <i type="logical" name="LTCTE"> F  </i>
   <i type="logical" name="LTETE"> F  </i>
   <i type="logical" name="LTRIPLET"> F  </i>
   <i type="logical" name="LFXCEPS"> F  </i>
   <i type="logical" name="LFXHEG"> F  </i>
   <i type="int" name="NATURALO">     2</i>
   <i type="logical" name="L2ORDER"> F  </i>
   <i type="logical" name="LMP2LT"> F  </i>
   <i type="logical" name="LUSEW"> F  </i>
   <i name="ENCUTGW">     -2.00000000</i>
   <i name="ENCUTGWSOFT">     -2.00000000</i>
   <i name="ENCUTLF">     -1.00000000</i>
   <i type="int" name="LMAXMP2">    -1</i>
   <i name="SCISSOR">      0.00000000</i>
   <i type="int" name="NOMEGA">     0</i>
   <i type="int" name="NOMEGAR">     0</i>
   <i type="int" name="NBANDSGW">    -1</i>
   <i type="int" name="NBANDSO">    -1</i>
   <i type="int" name="NBANDSV">    -1</i>
   <i type="int" name="NELM">   300</i>
   <i type="int" name="NELMHF">     1</i>
   <i type="int" name="DIM">     3</i>
   <i type="int" name="ANTIRES">     0</i>
   <i name="OMEGAMAX">    -30.00000000</i>
   <i name="OMEGAMIN">    -30.00000000</i>
   <i name="OMEGATL">   -200.00000000</i>
   <i type="int" name="OMEGAGRID">   140</i>
   <i name="CSHIFT">     -0.10000000</i>
   <i type="logical" name="SELFENERGY"> F  </i>
   <i type="logical" name="LSPECTRAL"> F  </i>
   <i type="logical" name="LSPECTRALGW"> F  </i>
   <i type="logical" name="LSINGLES"> F  </i>
   <i type="logical" name="LFERMIGW"> F  </i>
   <i type="logical" name="ODDONLYGW"> F  </i>
   <i type="logical" name="EVENONLYGW"> F  </i>
   <i type="int" name="NKREDLFX">     1</i>
   <i type="int" name="NKREDLFY">     1</i>
   <i type="int" name="NKREDLFZ">     1</i>
   <i type="int" name="MAXMEM">  2800</i>
   <i type="int" name="TELESCOPE">     0</i>
   <i type="int" name="TAUPAR">     1</i>
   <i type="int" name="OMEGAPAR">    -1</i>
   <i name="LAMBDA">      1.00000000</i>
  </separator>
  <separator name="External order field" >
   <i name="OFIELD_KAPPA">      0.00000000</i>
   <v name="OFIELD_K">      0.00000000      0.00000000      0.00000000</v>
   <i name="OFIELD_Q6_NEAR">      0.00000000</i>
   <i name="OFIELD_Q6_FAR">      0.00000000</i>
   <i name="OFIELD_A">      0.00000000</i>
  </separator>
 </parameters>
 <atominfo>
  <atoms>      15 </atoms>
  <types>       3 </types>
  <array name="atoms" >
   <dimension dim="1">ion</dimension>
   <field type="string">element</field>
   <field type="int">atomtype</field>
   <set>
    <rc><c>Cu</c><c>   1</c></rc>
    <rc><c>Cu</c><c>   1</c></rc>
    <rc><c>Cu</c><c>   1</c></rc>
    <rc><c>Cu</c><c>   1</c></rc>
    <rc><c>Cu</c><c>   1</c></rc>
    <rc><c>Cu</c><c>   1</c></rc>
    <rc><c>Cu</c><c>   1</c></rc>
    <rc><c>Cu</c><c>   1</c></rc>
    <rc><c>Cu</c><c>   1</c></rc>
    <rc><c>Cu</c><c>   1</c></rc>
    <rc><c>Cu</c><c>   1</c></rc>
    <rc><c>Cu</c><c>   1</c></rc>
    <rc><c>Cu</c><c>   1</c></rc>
    <rc><c>C </c><c>   2</c></rc>
    <rc><c>O </c><c>   3</c></rc>
   </set>
  </array>
  <array name="atomtypes" >
   <dimension dim="1">type</dimension>
   <field type="int">atomspertype</field>
   <field type="string">element</field>
   <field>mass</field>
   <field>valence</field>
   <field type="string">pseudopotential</field>
   <set>
    <rc><c>  13</c><c>Cu</c><c>     63.54600000</c><c>     11.00000000</c><c>  PAW_PBE Cu 22Jun2005                  </c></rc>
    <rc><c>   1</c><c>C </c><c>     12.01100000</c><c>      4.00000000</c><c>  PAW_PBE C 08Apr2002                   </c></rc>
    <rc><c>   1</c><c>O </c><c>     16.00000000</c><c>      6.00000000</c><c>  PAW_PBE O 08Apr2002                   </c></rc>
   </set>
  </array>
 </atominfo>
 <structure name="initialpos" >
  <crystal>
   <varray name="basis" >
    <v>      15.00000000       0.00000000       0.00000000 </v>
    <v>       0.00000000      15.00000000       0.00000000 </v>
    <v>       0.00000000       0.00000000      15.00000000 </v>
   </varray>
   <i name="volume">   3375.00000000 </i>
   <varray name="rec_basis" >
    <v>       0.06666667       0.00000000       0.00000000 </v>
    <v>       0.00000000       0.06666667       0.00000000 </v>
    <v>       0.00000000       0.00000000       0.06666667 </v>
   </varray>
  </crystal>
  <varray name="positions" >
   <v>       0.29226800       0.42338067       0.54989400 </v>
   <v>       0.37635800       0.55197200       0.48657867 </v>
   <v>       0.39423400       0.28795667       0.56469733 </v>
   <v>       0.53396000       0.50675800       0.48309667 </v>
   <v>       0.55008400       0.34444800       0.53285067 </v>
   <v>       0.44989800       0.43476200       0.61333467 </v>
   <v>       0.41523067       0.40092933       0.44642933 </v>
   <v>       0.22788667       0.57393267       0.54873733 </v>
   <v>       0.33477333       0.54217867       0.65551933 </v>
   <v>       0.35628600       0.68143333       0.57602133 </v>
   <v>       0.48794733       0.66548800       0.47331667 </v>
   <v>       0.61548867       0.47864800       0.61491467 </v>
   <v>       0.48632200       0.59277933       0.61345667 </v>
   <v>       0.73242667       0.48881333       0.64321333 </v>
   <v>       0.80743333       0.50527333       0.63647733 </v>
  </varray>
 </structure>
 <calculation>
  <scstep>
   <time name="dav">    7.49    7.50</time>
   <time name="total">    8.69    8.70</time>
   <energy>
    <i name="alphaZ">     41.16232785 </i>
    <i name="ewald">  16501.18500729 </i>
    <i name="hartreedc"> -33522.39946249 </i>
    <i name="XCdc">    623.56169554 </i>
    <i name="pawpsdc">  16421.75059358 </i>
    <i name="pawaedc"> -17800.06104309 </i>
    <i name="eentropy">     -0.01710101 </i>
    <i name="bandstr">    193.09850066 </i>
    <i name="atom">  18662.21924712 </i>
    <i name="e_fr_energy">   1120.49976545 </i>
    <i name="e_wo_entrp">   1120.51686646 </i>
    <i name="e_0_energy">   1120.50546579 </i>
   </energy>
  </scstep>
  <scstep>
   <time name="dav">    7.40    7.41</time>
   <time name="total">    7.41    7.41</time>
   <energy>
    <i name="e_fr_energy">     89.94125560 </i>
    <i name="e_wo_entrp">     89.93543855 </i>
    <i name="e_0_energy">     89.93931658 </i>
   </energy>
  </scstep>
  <scstep>
   <time name="dav">   11.79   11.79</time>
   <time name="total">   11.79   11.79</time>
   <energy>
    <i name="e_fr_energy">    -32.78745940 </i>
    <i name="e_wo_entrp">    -32.79375306 </i>
    <i name="e_0_energy">    -32.78955728 </i>
   </energy>
  </scstep>
  <scstep>
   <time name="dav">   10.26   10.27</time>
   <time name="total">   10.26   10.27</time>
   <energy>
    <i name="e_fr_energy">    -55.93511361 </i>
    <i name="e_wo_entrp">    -55.94590993 </i>
    <i name="e_0_energy">    -55.93871238 </i>
   </energy>
  </scstep>
  <scstep>
   <time name="dav">   12.16   12.17</time>
   <time name="total">   12.86   12.87</time>
   <energy>
    <i name="e_fr_energy">    -57.68671751 </i>
    <i name="e_wo_entrp">    -57.69566413 </i>
    <i name="e_0_energy">    -57.68969972 </i>
   </energy>
  </scstep>
  <scstep>
   <time name="diag">    1.10    1.10</time>
   <time name="diis">    6.81    6.82</time>
   <time name="orth">    0.06    0.06</time>
   <time name="total">    9.83    9.84</time>
   <energy>
    <i name="e_fr_energy">    -56.72554134 </i>
    <i name="e_wo_entrp">    -56.73445481 </i>
    <i name="e_0_energy">    -56.72851250 </i>
   </energy>
  </scstep>
  <scstep>
   <time name="diag">    1.10    1.10</time>
   <time name="diis">    7.27    7.27</time>
   <time name="orth">    0.06    0.06</time>
   <time name="total">   10.29   10.30</time>
   <energy>
    <i name="e_fr_energy">    -49.40715849 </i>
    <i name="e_wo_entrp">    -49.41634525 </i>
    <i name="e_0_energy">    -49.41022074 </i>
   </energy>
  </scstep>
  <scstep>
   <time name="diag">    1.10    1.10</time>
   <time name="diis">    6.92    6.93</time>
   <time name="orth">    0.06    0.06</time>
   <time name="total">    9.95    9.96</time>
   <energy>
    <i name="e_fr_energy">    -49.13628397 </i>
    <i name="e_wo_entrp">    -49.14510121 </i>
    <i name="e_0_energy">    -49.13922305 </i>
   </energy>
  </scstep>
  <scstep>
   <time name="diag">    1.10    1.10</time>
   <time name="diis">    6.72    6.73</time>
   <time name="orth">    0.06    0.06</time>
   <time name="total">    9.75    9.76</time>
   <energy>
    <i name="e_fr_energy">    -49.10295537 </i>
    <i name="e_wo_entrp">    -49.11185391 </i>
    <i name="e_0_energy">    -49.10592155 </i>
   </energy>
  </scstep>
  <scstep>
   <time name="diag">    1.10    1.10</time>
   <time name="diis">    7.09    7.10</time>
   <time name="orth">    0.06    0.06</time>
   <time name="total">   10.12   10.13</time>
   <energy>
    <i name="e_fr_energy">    -49.04596796 </i>
    <i name="e_wo_entrp">    -49.05472595 </i>
    <i name="e_0_energy">    -49.04888729 </i>
   </energy>
  </scstep>
  <scstep>
   <time name="diag">    1.10    1.10</time>
   <time name="diis">    7.32    7.33</time>
   <time name="orth">    0.06    0.06</time>
   <time name="total">   10.35   10.35</time>
   <energy>
    <i name="e_fr_energy">    -49.03872696 </i>
    <i name="e_wo_entrp">    -49.04756499 </i>
    <i name="e_0_energy">    -49.04167297 </i>
   </energy>
  </scstep>
  <scstep>
   <time name="diag">    1.10    1.10</time>
   <time name="diis">    7.06    7.07</time>
   <time name="orth">    0.06    0.06</time>
   <time name="total">   10.09   10.10</time>
   <energy>
    <i name="e_fr_energy">    -49.03569990 </i>
    <i name="e_wo_entrp">    -49.04447963 </i>
    <i name="e_0_energy">    -49.03862648 </i>
   </energy>
  </scstep>
  <scstep>
   <time name="diag">    1.10    1.10</time>
   <time name="diis">    7.09    7.10</time>
   <time name="orth">    0.06    0.06</time>
   <time name="total">   10.12   10.13</time>
   <energy>
    <i name="e_fr_energy">    -49.03482492 </i>
    <i name="e_wo_entrp">    -49.04362120 </i>
    <i name="e_0_energy">    -49.03775701 </i>
   </energy>
  </scstep>
  <scstep>
   <time name="diag">    1.10    1.10</time>
   <time name="diis">    7.37    7.37</time>
   <time name="orth">    0.06    0.06</time>
   <time name="total">   10.39   10.40</time>
   <energy>
    <i name="e_fr_energy">    -49.03585295 </i>
    <i name="e_wo_entrp">    -49.04463762 </i>
    <i name="e_0_energy">    -49.03878117 </i>
   </energy>
  </scstep>
  <scstep>
   <time name="diag">    1.10    1.10</time>
   <time name="diis">    6.55    6.56</time>
   <time name="orth">    0.06    0.06</time>
   <time name="total">    9.58    9.58</time>
   <energy>
    <i name="e_fr_energy">    -49.03708404 </i>
    <i name="e_wo_entrp">    -49.04587129 </i>
    <i name="e_0_energy">    -49.04001312 </i>
   </energy>
  </scstep>
  <scstep>
   <time name="diag">    1.10    1.10</time>
   <time name="diis">    6.51    6.52</time>
   <time name="orth">    0.06    0.06</time>
   <time name="total">    9.55    9.55</time>
   <energy>
    <i name="e_fr_energy">    -49.03836869 </i>
    <i name="e_wo_entrp">    -49.04716409 </i>
    <i name="e_0_energy">    -49.04130049 </i>
   </energy>
  </scstep>
  <scstep>
   <time name="diag">    1.10    1.10</time>
   <time name="diis">    7.34    7.35</time>
   <time name="orth">    0.06    0.06</time>
   <time name="total">   10.37   10.38</time>
   <energy>
    <i name="e_fr_energy">    -49.04013306 </i>
    <i name="e_wo_entrp">    -49.04893088 </i>
    <i name="e_0_energy">    -49.04306567 </i>
   </energy>
  </scstep>
  <scstep>
   <time name="diag">    1.10    1.10</time>
   <time name="diis">    7.27    7.28</time>
   <time name="orth">    0.06    0.06</time>
   <time name="total">   10.31   10.32</time>
   <energy>
    <i name="e_fr_energy">    -49.04105215 </i>
    <i name="e_wo_entrp">    -49.04984907 </i>
    <i name="e_0_energy">    -49.04398446 </i>
   </energy>
  </scstep>
  <scstep>
   <time name="diag">    1.10    1.10</time>
   <time name="diis">    7.02    7.03</time>
   <time name="orth">    0.06    0.06</time>
   <time name="total">   10.05   10.06</time>
   <energy>
    <i name="e_fr_energy">    -49.04169770 </i>
    <i name="e_wo_entrp">    -49.05049303 </i>
    <i name="e_0_energy">    -49.04462948 </i>
   </energy>
  </scstep>
  <scstep>
   <time name="diag">    1.10    1.10</time>
   <time name="diis">    6.73    6.74</time>
   <time name="orth">    0.06    0.06</time>
   <time name="total">    9.76    9.77</time>
   <energy>
    <i name="e_fr_energy">    -49.04231020 </i>
    <i name="e_wo_entrp">    -49.05110488 </i>
    <i name="e_0_energy">    -49.04524176 </i>
   </energy>
  </scstep>
  <scstep>
   <time name="diag">    1.10    1.10</time>
   <time name="diis">    6.66    6.66</time>
   <time name="orth">    0.06    0.06</time>
   <time name="total">    9.70    9.71</time>
   <energy>
    <i name="e_fr_energy">    -49.04271146 </i>
    <i name="e_wo_entrp">    -49.05150631 </i>
    <i name="e_0_energy">    -49.04564308 </i>
   </energy>
  </scstep>
  <scstep>
   <time name="diag">    1.10    1.10</time>
   <time name="diis">    6.49    6.50</time>
   <time name="orth">    0.06    0.06</time>
   <time name="total">    9.53    9.54</time>
   <energy>
    <i name="e_fr_energy">    -49.04300529 </i>
    <i name="e_wo_entrp">    -49.05180045 </i>
    <i name="e_0_energy">    -49.04593701 </i>
   </energy>
  </scstep>
  <scstep>
   <time name="diag">    1.10    1.10</time>
   <time name="diis">    6.57    6.57</time>
   <time name="orth">    0.06    0.06</time>
   <time name="total">    9.61    9.61</time>
   <energy>
    <i name="e_fr_energy">    -49.04314256 </i>
    <i name="e_wo_entrp">    -49.05193776 </i>
    <i name="e_0_energy">    -49.04607429 </i>
   </energy>
  </scstep>
  <scstep>
   <time name="diag">    1.10    1.10</time>
   <time name="diis">    6.58    6.58</time>
   <time name="orth">    0.06    0.06</time>
   <time name="total">    9.62    9.62</time>
   <energy>
    <i name="e_fr_energy">    -49.04323262 </i>
    <i name="e_wo_entrp">    -49.05202774 </i>
    <i name="e_0_energy">    -49.04616433 </i>
   </energy>
  </scstep>
  <scstep>
   <time name="diag">    1.10    1.10</time>
   <time name="diis">    6.35    6.38</time>
   <time name="orth">    0.06    0.06</time>
   <time name="total">    9.39    9.42</time>
   <energy>
    <i name="e_fr_energy">    -49.04329850 </i>
    <i name="e_wo_entrp">    -49.05209365 </i>
    <i name="e_0_energy">    -49.04623022 </i>
   </energy>
  </scstep>
  <scstep>
   <time name="diag">    1.10    1.10</time>
   <time name="diis">    6.40    6.40</time>
   <time name="orth">    0.06    0.06</time>
   <time name="total">    9.45    9.46</time>
   <energy>
    <i name="e_fr_energy">    -49.04333519 </i>
    <i name="e_wo_entrp">    -49.05213029 </i>
    <i name="e_0_energy">    -49.04626689 </i>
   </energy>
  </scstep>
  <scstep>
   <time name="diag">    1.10    1.10</time>
   <time name="diis">    5.06    5.06</time>
   <time name="orth">    0.06    0.06</time>
   <time name="total">    8.11    8.12</time>
   <energy>
    <i name="e_fr_energy">    -49.04334667 </i>
    <i name="e_wo_entrp">    -49.05214177 </i>
    <i name="e_0_energy">    -49.04627837 </i>
   </energy>
  </scstep>
  <scstep>
   <time name="diag">    1.10    1.10</time>
   <time name="diis">    4.34    4.34</time>
   <time name="orth">    0.06    0.06</time>
   <time name="total">    7.39    7.39</time>
   <energy>
    <i name="e_fr_energy">    -49.04335240 </i>
    <i name="e_wo_entrp">    -49.05214752 </i>
    <i name="e_0_energy">    -49.04628411 </i>
   </energy>
  </scstep>
  <scstep>
   <time name="diag">    1.10    1.10</time>
   <time name="diis">    4.47    4.48</time>
   <time name="orth">    0.06    0.06</time>
   <time name="total">    7.53    7.53</time>
   <energy>
    <i name="e_fr_energy">    -49.04335592 </i>
    <i name="e_wo_entrp">    -49.05215106 </i>
    <i name="e_0_energy">    -49.04628763 </i>
   </energy>
  </scstep>
  <scstep>
   <time name="diag">    1.10    1.10</time>
   <time name="diis">    4.55    4.56</time>
   <time name="orth">    0.06    0.06</time>
   <time name="total">    7.62    7.62</time>
   <energy>
    <i name="e_fr_energy">    -49.04335752 </i>
    <i name="e_wo_entrp">    -49.05215267 </i>
    <i name="e_0_energy">    -49.04628923 </i>
   </energy>
  </scstep>
  <scstep>
   <time name="diag">    1.10    1.10</time>
   <time name="diis">    4.40    4.41</time>
   <time name="orth">    0.06    0.06</time>
   <time name="total">    7.47    7.48</time>
   <energy>
    <i name="e_fr_energy">    -49.04335848 </i>
    <i name="e_wo_entrp">    -49.05215364 </i>
    <i name="e_0_energy">    -49.04629020 </i>
   </energy>
  </scstep>
  <scstep>
   <time name="diag">    1.10    1.10</time>
   <time name="diis">    4.26    4.26</time>
   <time name="orth">    0.06    0.06</time>
   <time name="total">    7.34    7.34</time>
   <energy>
    <i name="e_fr_energy">    -49.04335918 </i>
    <i name="e_wo_entrp">    -49.05215434 </i>
    <i name="e_0_energy">    -49.04629090 </i>
   </energy>
  </scstep>
  <scstep>
   <time name="diag">    1.10    1.10</time>
   <time name="diis">    4.08    4.08</time>
   <time name="orth">    0.06    0.06</time>
   <time name="total">    7.16    7.17</time>
   <energy>
    <i name="e_fr_energy">    -49.04335956 </i>
    <i name="e_wo_entrp">    -49.05215471 </i>
    <i name="e_0_energy">    -49.04629127 </i>
   </energy>
  </scstep>
  <scstep>
   <time name="diag">    1.10    1.10</time>
   <time name="diis">    3.69    3.69</time>
   <time name="orth">    0.06    0.06</time>
   <time name="total">    6.78    6.78</time>
   <energy>
    <i name="e_fr_energy">    -49.04335996 </i>
    <i name="e_wo_entrp">    -49.05215511 </i>
    <i name="e_0_energy">    -49.04629167 </i>
   </energy>
  </scstep>
  <scstep>
   <time name="diag">    1.10    1.10</time>
   <time name="diis">    3.89    3.90</time>
   <time name="orth">    0.06    0.06</time>
   <time name="total">    6.99    7.00</time>
   <energy>
    <i name="e_fr_energy">    -49.04336028 </i>
    <i name="e_wo_entrp">    -49.05215543 </i>
    <i name="e_0_energy">    -49.04629200 </i>
   </energy>
  </scstep>
  <scstep>
   <time name="diag">    1.10    1.10</time>
   <time name="diis">    3.63    3.63</time>
   <time name="orth">    0.06    0.06</time>
   <time name="total">    6.73    6.74</time>
   <energy>
    <i name="e_fr_energy">    -49.04336041 </i>
    <i name="e_wo_entrp">    -49.05215556 </i>
    <i name="e_0_energy">    -49.04629212 </i>
   </energy>
  </scstep>
  <scstep>
   <time name="diag">    1.10    1.10</time>
   <time name="diis">    3.24    3.24</time>
   <time name="orth">    0.06    0.06</time>
   <time name="total">    5.58    5.59</time>
   <energy>
    <i name="alphaZ">     41.16232785 </i>
    <i name="ewald">  16501.18500729 </i>
    <i name="hartreedc"> -33480.58121855 </i>
    <i name="XCdc">    615.58668934 </i>
    <i name="pawpsdc">  17660.68240567 </i>
    <i name="pawaedc"> -19059.30341276 </i>
    <i name="eentropy">      0.00879515 </i>
    <i name="bandstr">   -990.00320160 </i>
    <i name="atom">  18662.21924712 </i>
    <i name="e_fr_energy">    -49.04336048 </i>
    <i name="e_wo_entrp">    -49.05215563 </i>
    <i name="e_0_energy">    -49.04629220 </i>
   </energy>
  </scstep>
  <structure>
   <crystal>
    <varray name="basis" >
     <v>      15.00000000       0.00000000       0.00000000 </v>
     <v>       0.00000000      15.00000000       0.00000000 </v>
     <v>       0.00000000       0.00000000      15.00000000 </v>
    </varray>
    <i name="volume">   3375.00000000 </i>
    <varray name="rec_basis" >
     <v>       0.06666667       0.00000000       0.00000000 </v>
     <v>       0.00000000       0.06666667       0.00000000 </v>
     <v>       0.00000000       0.00000000       0.06666667 </v>
    </varray>
   </crystal>
   <varray name="positions" >
    <v>       0.29226800       0.42338067       0.54989400 </v>
    <v>       0.37635800       0.55197200       0.48657867 </v>
    <v>       0.39423400       0.28795667       0.56469733 </v>
    <v>       0.53396000       0.50675800       0.48309667 </v>
    <v>       0.55008400       0.34444800       0.53285067 </v>
    <v>       0.44989800       0.43476200       0.61333467 </v>
    <v>       0.41523067       0.40092933       0.44642933 </v>
    <v>       0.22788667       0.57393267       0.54873733 </v>
    <v>       0.33477333       0.54217867       0.65551933 </v>
    <v>       0.35628600       0.68143333       0.57602133 </v>
    <v>       0.48794733       0.66548800       0.47331667 </v>
    <v>       0.61548867       0.47864800       0.61491467 </v>
    <v>       0.48632200       0.59277933       0.61345667 </v>
    <v>       0.73242667       0.48881333       0.64321333 </v>
    <v>       0.80743333       0.50527333       0.63647733 </v>
   </varray>
  </structure>
  <varray name="forces" >
   <v>       0.12208425      -0.17647201       0.12930968 </v>
   <v>      -0.17425701      -0.16685447       0.12263094 </v>
   <v>       0.05673260       0.42725328      -0.10792523 </v>
   <v>      -0.05872305      -0.14993353      -0.15367852 </v>
   <v>      -0.13624088       0.14489812      -0.21087279 </v>
   <v>      -0.09717744      -0.05898100      -0.24174076 </v>
   <v>       0.24227900      -0.24874329       0.40779464 </v>
   <v>      -0.20054326       0.14900873      -0.18759389 </v>
   <v>       0.38904863      -0.06420467       0.00901081 </v>
   <v>      -0.14206474       0.25187007      -0.11051388 </v>
   <v>       0.03909165       0.16898497       0.07236616 </v>
   <v>      -0.36655274      -0.18907119       0.00112049 </v>
   <v>       0.09960249      -0.19868563       0.15843564 </v>
   <v>       0.06521620       0.16650581       0.05829515 </v>
   <v>       0.16150430      -0.05557519       0.05336158 </v>
  </varray>
  <varray name="stress" >
   <v>      -0.07857983      -0.19836823       0.17194202 </v>
   <v>      -0.19836825      -0.17186966       0.13580851 </v>
   <v>       0.17194203       0.13580851      -0.33714553 </v>
  </varray>
  <energy>
   <i name="e_fr_energy">    -49.04336048 </i>
   <i name="e_wo_entrp">    -49.04629220 </i>
   <i name="e_0_energy">      0.00879515 </i>
  </energy>
  <time name="totalsc">  348.56  348.87</time>
  <eigenvalues>
   <array>
    <dimension dim="1">band</dimension>
    <dimension dim="2">kpoint</dimension>
    <dimension dim="3">spin</dimension>
    <field>eigene</field>
    <field>occ</field>
    <set>
     <set comment="spin 1">
      <set comment="kpoint 1">
       <r>  -28.3653    1.0000 </r>
       <r>  -13.7714    1.0000 </r>
       <r>  -11.3083    1.0000 </r>
       <r>  -11.0426    1.0000 </r>
       <r>  -10.8927    1.0000 </r>
       <r>  -10.1415    1.0000 </r>
       <r>   -8.6040    1.0000 </r>
       <r>   -8.2463    1.0000 </r>
       <r>   -7.7134    1.0000 </r>
       <r>   -7.5650    1.0000 </r>
       <r>   -7.4302    1.0000 </r>
       <r>   -7.3570    1.0000 </r>
       <r>   -7.3023    1.0000 </r>
       <r>   -7.1501    1.0000 </r>
       <r>   -7.0693    1.0000 </r>
       <r>   -6.9284    1.0000 </r>
       <r>   -6.8421    1.0000 </r>
       <r>   -6.8052    1.0000 </r>
       <r>   -6.7666    1.0000 </r>
       <r>   -6.6747    1.0000 </r>
       <r>   -6.6422    1.0000 </r>
       <r>   -6.6024    1.0000 </r>
       <r>   -6.5169    1.0000 </r>
       <r>   -6.5109    1.0000 </r>
       <r>   -6.4630    1.0000 </r>
       <r>   -6.3802    1.0000 </r>
       <r>   -6.3467    1.0000 </r>
       <r>   -6.3014    1.0000 </r>
       <r>   -6.2409    1.0000 </r>
       <r>   -6.2124    1.0000 </r>
       <r>   -6.1807    1.0000 </r>
       <r>   -6.1002    1.0000 </r>
       <r>   -6.0860    1.0000 </r>
       <r>   -6.0146    1.0000 </r>
       <r>   -5.9578    1.0000 </r>
       <r>   -5.8233    1.0000 </r>
       <r>   -5.7945    1.0000 </r>
       <r>   -5.6916    1.0000 </r>
       <r>   -5.6516    1.0000 </r>
       <r>   -5.6393    1.0000 </r>
       <r>   -5.5855    1.0000 </r>
       <r>   -5.5638    1.0000 </r>
       <r>   -5.5319    1.0000 </r>
       <r>   -5.4882    1.0000 </r>
       <r>   -5.4521    1.0000 </r>
       <r>   -5.4172    1.0000 </r>
       <r>   -5.3931    1.0000 </r>
       <r>   -5.3675    1.0000 </r>
       <r>   -5.3649    1.0000 </r>
       <r>   -5.3448    1.0000 </r>
       <r>   -5.3133    1.0000 </r>
       <r>   -5.2685    1.0000 </r>
       <r>   -5.2594    1.0000 </r>
       <r>   -5.2297    1.0000 </r>
       <r>   -5.2210    1.0000 </r>
       <r>   -5.1862    1.0000 </r>
       <r>   -5.1726    1.0000 </r>
       <r>   -5.1424    1.0000 </r>
       <r>   -5.1353    1.0000 </r>
       <r>   -5.0950    1.0000 </r>
       <r>   -5.0596    1.0000 </r>
       <r>   -5.0251    1.0000 </r>
       <r>   -5.0092    1.0000 </r>
       <r>   -4.9819    1.0000 </r>
       <r>   -4.9434    1.0000 </r>
       <r>   -4.9305    1.0000 </r>
       <r>   -4.9021    1.0000 </r>
       <r>   -4.8890    1.0000 </r>
       <r>   -4.8662    1.0000 </r>
       <r>   -4.8432    1.0000 </r>
       <r>   -4.8200    1.0000 </r>
       <r>   -4.7713    1.0000 </r>
       <r>   -4.7335    1.0000 </r>
       <r>   -4.5638    1.0000 </r>
       <r>   -4.1875    1.0000 </r>
       <r>   -4.1546    1.0000 </r>
       <r>   -3.4932    1.0000 </r>
       <r>   -3.0479   -0.0000 </r>
       <r>   -2.9126   -0.0000 </r>
       <r>   -2.5135   -0.0000 </r>
       <r>   -2.2829   -0.0000 </r>
       <r>   -1.9679   -0.0000 </r>
       <r>   -1.8404   -0.0000 </r>
       <r>   -1.7731   -0.0000 </r>
       <r>   -1.2895   -0.0000 </r>
       <r>   -1.0160   -0.0000 </r>
       <r>   -0.9616   -0.0000 </r>
       <r>   -0.7184   -0.0000 </r>
       <r>   -0.3676    0.0000 </r>
       <r>   -0.2791    0.0000 </r>
       <r>   -0.1763    0.0000 </r>
       <r>    0.1095    0.0000 </r>
      </set>
     </set>
     <set comment="spin 2">
      <set comment="kpoint 1">
       <r>  -28.3384    1.0000 </r>
       <r>  -13.7241    1.0000 </r>
       <r>  -11.2685    1.0000 </r>
       <r>  -11.0245    1.0000 </r>
       <r>  -10.8128    1.0000 </r>
       <r>  -10.0980    1.0000 </r>
       <r>   -8.5823    1.0000 </r>
       <r>   -8.1983    1.0000 </r>
       <r>   -7.6699    1.0000 </r>
       <r>   -7.5457    1.0000 </r>
       <r>   -7.4063    1.0000 </r>
       <r>   -7.3254    1.0000 </r>
       <r>   -7.2535    1.0000 </r>
       <r>   -7.1212    1.0000 </r>
       <r>   -7.0434    1.0000 </r>
       <r>   -6.8907    1.0000 </r>
       <r>   -6.8130    1.0000 </r>
       <r>   -6.7772    1.0000 </r>
       <r>   -6.7416    1.0000 </r>
       <r>   -6.6557    1.0000 </r>
       <r>   -6.6200    1.0000 </r>
       <r>   -6.5819    1.0000 </r>
       <r>   -6.4897    1.0000 </r>
       <r>   -6.4839    1.0000 </r>
       <r>   -6.4298    1.0000 </r>
       <r>   -6.3520    1.0000 </r>
       <r>   -6.3189    1.0000 </r>
       <r>   -6.2835    1.0000 </r>
       <r>   -6.2118    1.0000 </r>
       <r>   -6.1864    1.0000 </r>
       <r>   -6.1572    1.0000 </r>
       <r>   -6.0761    1.0000 </r>
       <r>   -6.0618    1.0000 </r>
       <r>   -5.9905    1.0000 </r>
       <r>   -5.9377    1.0000 </r>
       <r>   -5.7950    1.0000 </r>
       <r>   -5.7708    1.0000 </r>
       <r>   -5.6698    1.0000 </r>
       <r>   -5.6257    1.0000 </r>
       <r>   -5.6141    1.0000 </r>
       <r>   -5.5605    1.0000 </r>
       <r>   -5.5416    1.0000 </r>
       <r>   -5.5025    1.0000 </r>
       <r>   -5.4622    1.0000 </r>
       <r>   -5.4291    1.0000 </r>
       <r>   -5.3830    1.0000 </r>
       <r>   -5.3668    1.0000 </r>
       <r>   -5.3403    1.0000 </r>
       <r>   -5.3385    1.0000 </r>
       <r>   -5.3179    1.0000 </r>
       <r>   -5.2911    1.0000 </r>
       <r>   -5.2460    1.0000 </r>
       <r>   -5.2300    1.0000 </r>
       <r>   -5.2128    1.0000 </r>
       <r>   -5.1951    1.0000 </r>
       <r>   -5.1641    1.0000 </r>
       <r>   -5.1513    1.0000 </r>
       <r>   -5.1212    1.0000 </r>
       <r>   -5.1130    1.0000 </r>
       <r>   -5.0644    1.0000 </r>
       <r>   -5.0374    1.0000 </r>
       <r>   -5.0045    1.0000 </r>
       <r>   -4.9906    1.0000 </r>
       <r>   -4.9503    1.0000 </r>
       <r>   -4.9186    1.0000 </r>
       <r>   -4.9036    1.0000 </r>
       <r>   -4.8791    1.0000 </r>
       <r>   -4.8463    1.0000 </r>
       <r>   -4.8398    1.0000 </r>
       <r>   -4.8107    1.0000 </r>
       <r>   -4.7861    1.0000 </r>
       <r>   -4.7438    1.0000 </r>
       <r>   -4.7087    1.0000 </r>
       <r>   -4.5211    1.0000 </r>
       <r>   -4.1290    1.0145 </r>
       <r>   -4.1154    0.9855 </r>
       <r>   -3.2861   -0.0000 </r>
       <r>   -2.9948   -0.0000 </r>
       <r>   -2.8584   -0.0000 </r>
       <r>   -2.4459   -0.0000 </r>
       <r>   -2.1785   -0.0000 </r>
       <r>   -1.9410   -0.0000 </r>
       <r>   -1.7624   -0.0000 </r>
       <r>   -1.6950   -0.0000 </r>
       <r>   -1.1694    0.0000 </r>
       <r>   -0.9587    0.0000 </r>
       <r>   -0.8275    0.0000 </r>
       <r>   -0.6275    0.0000 </r>
       <r>   -0.2840    0.0000 </r>
       <r>   -0.2137    0.0000 </r>
       <r>   -0.0985    0.0000 </r>
       <r>    0.1604    0.0000 </r>
      </set>
     </set>
    </set>
   </array>
  </eigenvalues>
  <separator name="orbital magnetization" >
   <v name="MAGDIPOLOUT">      0.00000000      0.00000000      0.00000000</v>
  </separator>
  <dos>
   <i name="efermi">     -4.03711044 </i>
   <total>
    <array>
     <dimension dim="1">gridpoints</dimension>
     <dimension dim="2">spin</dimension>
     <field>energy</field>
     <field>total</field>
     <field>integrated</field>
     <set>
      <set comment="spin 1">
       <r>   -29.7916     0.0000     0.0000 </r>
       <r>   -29.6870     0.0000     0.0000 </r>
       <r>   -29.5824     0.0000     0.0000 </r>
       <r>   -29.4778     0.0000     0.0000 </r>
       <r>   -29.3732     0.0000     0.0000 </r>
       <r>   -29.2686    -0.0000    -0.0000 </r>
       <r>   -29.1640    -0.0000    -0.0000 </r>
       <r>   -29.0594    -0.0000    -0.0000 </r>
       <r>   -28.9548    -0.0000    -0.0000 </r>
       <r>   -28.8502    -0.0000    -0.0000 </r>
       <r>   -28.7456    -0.0000    -0.0000 </r>
       <r>   -28.6410    -0.0065    -0.0007 </r>
       <r>   -28.5364    -0.3386    -0.0361 </r>
       <r>   -28.4319     1.3531     0.1054 </r>
       <r>   -28.3273    14.2417     1.5950 </r>
       <r>   -28.2227     4.4602     2.0615 </r>
       <r>   -28.1181    -0.5634     2.0026 </r>
       <r>   -28.0135    -0.0250     2.0000 </r>
       <r>   -27.9089    -0.0001     2.0000 </r>
       <r>   -27.8043    -0.0000     2.0000 </r>
       <r>   -27.6997    -0.0000     2.0000 </r>
       <r>   -27.5951     0.0000     2.0000 </r>
       <r>   -27.4905     0.0000     2.0000 </r>
       <r>   -27.3859     0.0000     2.0000 </r>
       <r>   -27.2813     0.0000     2.0000 </r>
       <r>   -27.1767     0.0000     2.0000 </r>
       <r>   -27.0721     0.0000     2.0000 </r>
       <r>   -26.9675     0.0000     2.0000 </r>
       <r>   -26.8629     0.0000     2.0000 </r>
       <r>   -26.7583     0.0000     2.0000 </r>
       <r>   -26.6537     0.0000     2.0000 </r>
       <r>   -26.5492     0.0000     2.0000 </r>
       <r>   -26.4446     0.0000     2.0000 </r>
       <r>   -26.3400     0.0000     2.0000 </r>
       <r>   -26.2354     0.0000     2.0000 </r>
       <r>   -26.1308     0.0000     2.0000 </r>
       <r>   -26.0262     0.0000     2.0000 </r>
       <r>   -25.9216     0.0000     2.0000 </r>
       <r>   -25.8170     0.0000     2.0000 </r>
       <r>   -25.7124     0.0000     2.0000 </r>
       <r>   -25.6078     0.0000     2.0000 </r>
       <r>   -25.5032     0.0000     2.0000 </r>
       <r>   -25.3986     0.0000     2.0000 </r>
       <r>   -25.2940     0.0000     2.0000 </r>
       <r>   -25.1894     0.0000     2.0000 </r>
       <r>   -25.0848     0.0000     2.0000 </r>
       <r>   -24.9802     0.0000     2.0000 </r>
       <r>   -24.8756     0.0000     2.0000 </r>
       <r>   -24.7711     0.0000     2.0000 </r>
       <r>   -24.6665     0.0000     2.0000 </r>
       <r>   -24.5619     0.0000     2.0000 </r>
       <r>   -24.4573     0.0000     2.0000 </r>
       <r>   -24.3527     0.0000     2.0000 </r>
       <r>   -24.2481     0.0000     2.0000 </r>
       <r>   -24.1435     0.0000     2.0000 </r>
       <r>   -24.0389     0.0000     2.0000 </r>
       <r>   -23.9343     0.0000     2.0000 </r>
       <r>   -23.8297     0.0000     2.0000 </r>
       <r>   -23.7251     0.0000     2.0000 </r>
       <r>   -23.6205     0.0000     2.0000 </r>
       <r>   -23.5159     0.0000     2.0000 </r>
       <r>   -23.4113     0.0000     2.0000 </r>
       <r>   -23.3067     0.0000     2.0000 </r>
       <r>   -23.2021     0.0000     2.0000 </r>
       <r>   -23.0975     0.0000     2.0000 </r>
       <r>   -22.9929     0.0000     2.0000 </r>
       <r>   -22.8884     0.0000     2.0000 </r>
       <r>   -22.7838     0.0000     2.0000 </r>
       <r>   -22.6792     0.0000     2.0000 </r>
       <r>   -22.5746     0.0000     2.0000 </r>
       <r>   -22.4700     0.0000     2.0000 </r>
       <r>   -22.3654     0.0000     2.0000 </r>
       <r>   -22.2608     0.0000     2.0000 </r>
       <r>   -22.1562     0.0000     2.0000 </r>
       <r>   -22.0516     0.0000     2.0000 </r>
       <r>   -21.9470     0.0000     2.0000 </r>
       <r>   -21.8424     0.0000     2.0000 </r>
       <r>   -21.7378     0.0000     2.0000 </r>
       <r>   -21.6332     0.0000     2.0000 </r>
       <r>   -21.5286     0.0000     2.0000 </r>
       <r>   -21.4240     0.0000     2.0000 </r>
       <r>   -21.3194     0.0000     2.0000 </r>
       <r>   -21.2148     0.0000     2.0000 </r>
       <r>   -21.1102     0.0000     2.0000 </r>
       <r>   -21.0057     0.0000     2.0000 </r>
       <r>   -20.9011     0.0000     2.0000 </r>
       <r>   -20.7965     0.0000     2.0000 </r>
       <r>   -20.6919     0.0000     2.0000 </r>
       <r>   -20.5873     0.0000     2.0000 </r>
       <r>   -20.4827     0.0000     2.0000 </r>
       <r>   -20.3781     0.0000     2.0000 </r>
       <r>   -20.2735     0.0000     2.0000 </r>
       <r>   -20.1689     0.0000     2.0000 </r>
       <r>   -20.0643     0.0000     2.0000 </r>
       <r>   -19.9597     0.0000     2.0000 </r>
       <r>   -19.8551     0.0000     2.0000 </r>
       <r>   -19.7505     0.0000     2.0000 </r>
       <r>   -19.6459     0.0000     2.0000 </r>
       <r>   -19.5413     0.0000     2.0000 </r>
       <r>   -19.4367     0.0000     2.0000 </r>
       <r>   -19.3321     0.0000     2.0000 </r>
       <r>   -19.2275     0.0000     2.0000 </r>
       <r>   -19.1230     0.0000     2.0000 </r>
       <r>   -19.0184     0.0000     2.0000 </r>
       <r>   -18.9138     0.0000     2.0000 </r>
       <r>   -18.8092     0.0000     2.0000 </r>
       <r>   -18.7046     0.0000     2.0000 </r>
       <r>   -18.6000     0.0000     2.0000 </r>
       <r>   -18.4954     0.0000     2.0000 </r>
       <r>   -18.3908     0.0000     2.0000 </r>
       <r>   -18.2862     0.0000     2.0000 </r>
       <r>   -18.1816     0.0000     2.0000 </r>
       <r>   -18.0770     0.0000     2.0000 </r>
       <r>   -17.9724     0.0000     2.0000 </r>
       <r>   -17.8678     0.0000     2.0000 </r>
       <r>   -17.7632     0.0000     2.0000 </r>
       <r>   -17.6586     0.0000     2.0000 </r>
       <r>   -17.5540     0.0000     2.0000 </r>
       <r>   -17.4494     0.0000     2.0000 </r>
       <r>   -17.3449     0.0000     2.0000 </r>
       <r>   -17.2403     0.0000     2.0000 </r>
       <r>   -17.1357     0.0000     2.0000 </r>
       <r>   -17.0311     0.0000     2.0000 </r>
       <r>   -16.9265     0.0000     2.0000 </r>
       <r>   -16.8219     0.0000     2.0000 </r>
       <r>   -16.7173     0.0000     2.0000 </r>
       <r>   -16.6127     0.0000     2.0000 </r>
       <r>   -16.5081     0.0000     2.0000 </r>
       <r>   -16.4035     0.0000     2.0000 </r>
       <r>   -16.2989     0.0000     2.0000 </r>
       <r>   -16.1943     0.0000     2.0000 </r>
       <r>   -16.0897     0.0000     2.0000 </r>
       <r>   -15.9851     0.0000     2.0000 </r>
       <r>   -15.8805     0.0000     2.0000 </r>
       <r>   -15.7759     0.0000     2.0000 </r>
       <r>   -15.6713     0.0000     2.0000 </r>
       <r>   -15.5667     0.0000     2.0000 </r>
       <r>   -15.4622     0.0000     2.0000 </r>
       <r>   -15.3576     0.0000     2.0000 </r>
       <r>   -15.2530     0.0000     2.0000 </r>
       <r>   -15.1484     0.0000     2.0000 </r>
       <r>   -15.0438     0.0000     2.0000 </r>
       <r>   -14.9392     0.0000     2.0000 </r>
       <r>   -14.8346     0.0000     2.0000 </r>
       <r>   -14.7300     0.0000     2.0000 </r>
       <r>   -14.6254    -0.0000     2.0000 </r>
       <r>   -14.5208    -0.0000     2.0000 </r>
       <r>   -14.4162    -0.0000     2.0000 </r>
       <r>   -14.3116    -0.0000     2.0000 </r>
       <r>   -14.2070    -0.0000     2.0000 </r>
       <r>   -14.1024    -0.0003     2.0000 </r>
       <r>   -13.9978    -0.0591     1.9938 </r>
       <r>   -13.8932    -0.6185     1.9291 </r>
       <r>   -13.7886     7.4890     2.7124 </r>
       <r>   -13.6840    12.4343     4.0130 </r>
       <r>   -13.5795     0.0729     4.0206 </r>
       <r>   -13.4749    -0.1946     4.0002 </r>
       <r>   -13.3703    -0.0022     4.0000 </r>
       <r>   -13.2657    -0.0000     4.0000 </r>
       <r>   -13.1611    -0.0000     4.0000 </r>
       <r>   -13.0565    -0.0000     4.0000 </r>
       <r>   -12.9519     0.0000     4.0000 </r>
       <r>   -12.8473     0.0000     4.0000 </r>
       <r>   -12.7427     0.0000     4.0000 </r>
       <r>   -12.6381     0.0000     4.0000 </r>
       <r>   -12.5335     0.0000     4.0000 </r>
       <r>   -12.4289     0.0000     4.0000 </r>
       <r>   -12.3243     0.0000     4.0000 </r>
       <r>   -12.2197     0.0000     4.0000 </r>
       <r>   -12.1151    -0.0000     4.0000 </r>
       <r>   -12.0105    -0.0000     4.0000 </r>
       <r>   -11.9059    -0.0000     4.0000 </r>
       <r>   -11.8014    -0.0000     4.0000 </r>
       <r>   -11.6968    -0.0000     4.0000 </r>
       <r>   -11.5922    -0.0043     3.9996 </r>
       <r>   -11.4876    -0.2773     3.9705 </r>
       <r>   -11.3830     0.7588     4.0499 </r>
       <r>   -11.2784    13.6573     5.4784 </r>
       <r>   -11.1738     4.9655     5.9978 </r>
       <r>   -11.0692     5.1791     6.5395 </r>
       <r>   -10.9646    14.3183     8.0371 </r>
       <r>   -10.8600    14.4554     9.5490 </r>
       <r>   -10.7554     4.9408    10.0658 </r>
       <r>   -10.6508    -0.5975    10.0033 </r>
       <r>   -10.5462    -0.0315    10.0000 </r>
       <r>   -10.4416    -0.0019     9.9998 </r>
       <r>   -10.3370    -0.1744     9.9816 </r>
       <r>   -10.2324    -0.0716     9.9741 </r>
       <r>   -10.1278    11.9983    11.2290 </r>
       <r>   -10.0232     8.0435    12.0703 </r>
       <r>    -9.9187    -0.6043    12.0071 </r>
       <r>    -9.8141    -0.0679    12.0000 </r>
       <r>    -9.7095    -0.0004    12.0000 </r>
       <r>    -9.6049    -0.0000    12.0000 </r>
       <r>    -9.5003    -0.0000    12.0000 </r>
       <r>    -9.3957    -0.0000    12.0000 </r>
       <r>    -9.2911    -0.0000    12.0000 </r>
       <r>    -9.1865    -0.0000    12.0000 </r>
       <r>    -9.0819    -0.0000    12.0000 </r>
       <r>    -8.9773    -0.0000    12.0000 </r>
       <r>    -8.8727    -0.0092    11.9990 </r>
       <r>    -8.7681    -0.3957    11.9577 </r>
       <r>    -8.6635     1.9755    12.1643 </r>
       <r>    -8.5589    14.5258    13.6836 </r>
       <r>    -8.4543     3.4400    14.0434 </r>
       <r>    -8.3497    -0.9391    13.9452 </r>
       <r>    -8.2451    10.2650    15.0188 </r>
       <r>    -8.1405     9.9560    16.0602 </r>
       <r>    -8.0360    -0.4676    16.0113 </r>
       <r>    -7.9314    -0.1889    15.9915 </r>
       <r>    -7.8268    -0.5821    15.9306 </r>
       <r>    -7.7222     8.3408    16.8030 </r>
       <r>    -7.6176    13.8134    18.2478 </r>
       <r>    -7.5130    14.1065    19.7233 </r>
       <r>    -7.4084    17.8625    21.5916 </r>
       <r>    -7.3038    30.3401    24.7650 </r>
       <r>    -7.1992    14.7636    26.3092 </r>
       <r>    -7.0946    19.5526    28.3543 </r>
       <r>    -6.9900    16.4872    30.0788 </r>
       <r>    -6.8854    17.9500    31.9562 </r>
       <r>    -6.7808    37.8241    35.9124 </r>
       <r>    -6.6762    34.5621    39.5274 </r>
       <r>    -6.5716    40.5628    43.7701 </r>
       <r>    -6.4670    43.4973    48.3196 </r>
       <r>    -6.3624    37.0199    52.1917 </r>
       <r>    -6.2578    43.5678    56.7487 </r>
       <r>    -6.1533    46.5586    61.6184 </r>
       <r>    -6.0487    40.9490    65.9015 </r>
       <r>    -5.9441    30.9849    69.1423 </r>
       <r>    -5.8395    18.3000    71.0564 </r>
       <r>    -5.7349    28.6595    74.0540 </r>
       <r>    -5.6303    44.3039    78.6879 </r>
       <r>    -5.5257    59.5903    84.9208 </r>
       <r>    -5.4211    61.1225    91.3138 </r>
       <r>    -5.3165    85.1966   100.2249 </r>
       <r>    -5.2119    85.4305   109.1605 </r>
       <r>    -5.1073    84.4802   117.9966 </r>
       <r>    -5.0027    68.4242   125.1534 </r>
       <r>    -4.8981    83.9913   133.9384 </r>
       <r>    -4.7935    78.5728   142.1567 </r>
       <r>    -4.6889    34.6563   145.7815 </r>
       <r>    -4.5843     9.2300   146.7470 </r>
       <r>    -4.4797    11.9935   148.0014 </r>
       <r>    -4.3752    -0.0942   147.9916 </r>
       <r>    -4.2706    -0.5336   147.9357 </r>
       <r>    -4.1660    21.3082   150.1645 </r>
       <r>    -4.0614    18.5419   152.1038 </r>
       <r>    -3.9568    -0.7788   152.0224 </r>
       <r>    -3.8522    -0.2122   152.0002 </r>
       <r>    -3.7476    -0.0199   151.9981 </r>
       <r>    -3.6430    -0.5121   151.9445 </r>
       <r>    -3.5384     3.5357   152.3144 </r>
       <r>    -3.4338    14.5311   153.8342 </r>
       <r>    -3.3292     1.9863   154.0420 </r>
       <r>    -3.2246    -0.6941   153.9694 </r>
       <r>    -3.1200     0.8064   154.0537 </r>
       <r>    -3.0154    13.4815   155.4638 </r>
       <r>    -2.9108    15.5946   157.0949 </r>
       <r>    -2.8062     9.2657   158.0641 </r>
       <r>    -2.7016    -0.7268   157.9880 </r>
       <r>    -2.5970     0.1423   158.0029 </r>
       <r>    -2.4925    12.7483   159.3363 </r>
       <r>    -2.3879     6.4556   160.0116 </r>
       <r>    -2.2833     9.4431   160.9993 </r>
       <r>    -2.1787    10.0160   162.0469 </r>
       <r>    -2.0741    -0.9626   161.9462 </r>
       <r>    -1.9695     8.9759   162.8850 </r>
       <r>    -1.8649    16.6496   164.6265 </r>
       <r>    -1.7603    24.6764   167.2075 </r>
       <r>    -1.6557     8.4901   168.0955 </r>
       <r>    -1.5511    -0.8523   168.0064 </r>
       <r>    -1.4465    -0.5282   167.9511 </r>
       <r>    -1.3419     2.7061   168.2341 </r>
       <r>    -1.2373    14.5475   169.7557 </r>
       <r>    -1.1327     1.7918   169.9431 </r>
       <r>    -1.0281     9.1889   170.9043 </r>
       <r>    -0.9235    25.9003   173.6133 </r>
       <r>    -0.8189     3.9628   174.0278 </r>
       <r>    -0.7143     9.9845   175.0721 </r>
       <r>    -0.6098     9.4511   176.0606 </r>
       <r>    -0.5052    -1.1669   175.9386 </r>
       <r>    -0.4006     4.3772   176.3964 </r>
       <r>    -0.2960    20.8714   178.5794 </r>
       <r>    -0.1914    21.1738   180.7941 </r>
       <r>    -0.0868    11.7578   182.0239 </r>
       <r>     0.0178    -0.3132   181.9911 </r>
       <r>     0.1224    11.7205   183.2170 </r>
       <r>     0.2270     8.1561   184.0701 </r>
       <r>     0.3316    -0.6001   184.0073 </r>
       <r>     0.4362    -0.0698   184.0000 </r>
       <r>     0.5408    -0.0004   184.0000 </r>
       <r>     0.6454    -0.0000   184.0000 </r>
       <r>     0.7500    -0.0000   184.0000 </r>
       <r>     0.8546     0.0000   184.0000 </r>
       <r>     0.9592     0.0000   184.0000 </r>
       <r>     1.0638     0.0000   184.0000 </r>
       <r>     1.1684     0.0000   184.0000 </r>
       <r>     1.2729     0.0000   184.0000 </r>
       <r>     1.3775     0.0000   184.0000 </r>
       <r>     1.4821     0.0000   184.0000 </r>
       <r>     1.5867     0.0000   184.0000 </r>
      </set>
      <set comment="spin 2">
       <r>   -29.7916     0.0000     0.0000 </r>
       <r>   -29.6870     0.0000     0.0000 </r>
       <r>   -29.5824     0.0000     0.0000 </r>
       <r>   -29.4778     0.0000     0.0000 </r>
       <r>   -29.3732     0.0000     0.0000 </r>
       <r>   -29.2686     0.0000     0.0000 </r>
       <r>   -29.1640    -0.0000    -0.0000 </r>
       <r>   -29.0594    -0.0000    -0.0000 </r>
       <r>   -28.9548    -0.0000    -0.0000 </r>
       <r>   -28.8502    -0.0000    -0.0000 </r>
       <r>   -28.7456    -0.0000    -0.0000 </r>
       <r>   -28.6410    -0.0015    -0.0002 </r>
       <r>   -28.5364    -0.1609    -0.0170 </r>
       <r>   -28.4319    -0.1627    -0.0340 </r>
       <r>   -28.3273    11.6685     1.1865 </r>
       <r>   -28.2227     8.4412     2.0694 </r>
       <r>   -28.1181    -0.5879     2.0079 </r>
       <r>   -28.0135    -0.0748     2.0000 </r>
       <r>   -27.9089    -0.0004     2.0000 </r>
       <r>   -27.8043    -0.0000     2.0000 </r>
       <r>   -27.6997    -0.0000     2.0000 </r>
       <r>   -27.5951     0.0000     2.0000 </r>
       <r>   -27.4905     0.0000     2.0000 </r>
       <r>   -27.3859     0.0000     2.0000 </r>
       <r>   -27.2813     0.0000     2.0000 </r>
       <r>   -27.1767     0.0000     2.0000 </r>
       <r>   -27.0721     0.0000     2.0000 </r>
       <r>   -26.9675     0.0000     2.0000 </r>
       <r>   -26.8629     0.0000     2.0000 </r>
       <r>   -26.7583     0.0000     2.0000 </r>
       <r>   -26.6537     0.0000     2.0000 </r>
       <r>   -26.5492     0.0000     2.0000 </r>
       <r>   -26.4446     0.0000     2.0000 </r>
       <r>   -26.3400     0.0000     2.0000 </r>
       <r>   -26.2354     0.0000     2.0000 </r>
       <r>   -26.1308     0.0000     2.0000 </r>
       <r>   -26.0262     0.0000     2.0000 </r>
       <r>   -25.9216     0.0000     2.0000 </r>
       <r>   -25.8170     0.0000     2.0000 </r>
       <r>   -25.7124     0.0000     2.0000 </r>
       <r>   -25.6078     0.0000     2.0000 </r>
       <r>   -25.5032     0.0000     2.0000 </r>
       <r>   -25.3986     0.0000     2.0000 </r>
       <r>   -25.2940     0.0000     2.0000 </r>
       <r>   -25.1894     0.0000     2.0000 </r>
       <r>   -25.0848     0.0000     2.0000 </r>
       <r>   -24.9802     0.0000     2.0000 </r>
       <r>   -24.8756     0.0000     2.0000 </r>
       <r>   -24.7711     0.0000     2.0000 </r>
       <r>   -24.6665     0.0000     2.0000 </r>
       <r>   -24.5619     0.0000     2.0000 </r>
       <r>   -24.4573     0.0000     2.0000 </r>
       <r>   -24.3527     0.0000     2.0000 </r>
       <r>   -24.2481     0.0000     2.0000 </r>
       <r>   -24.1435     0.0000     2.0000 </r>
       <r>   -24.0389     0.0000     2.0000 </r>
       <r>   -23.9343     0.0000     2.0000 </r>
       <r>   -23.8297     0.0000     2.0000 </r>
       <r>   -23.7251     0.0000     2.0000 </r>
       <r>   -23.6205     0.0000     2.0000 </r>
       <r>   -23.5159     0.0000     2.0000 </r>
       <r>   -23.4113     0.0000     2.0000 </r>
       <r>   -23.3067     0.0000     2.0000 </r>
       <r>   -23.2021     0.0000     2.0000 </r>
       <r>   -23.0975     0.0000     2.0000 </r>
       <r>   -22.9929     0.0000     2.0000 </r>
       <r>   -22.8884     0.0000     2.0000 </r>
       <r>   -22.7838     0.0000     2.0000 </r>
       <r>   -22.6792     0.0000     2.0000 </r>
       <r>   -22.5746     0.0000     2.0000 </r>
       <r>   -22.4700     0.0000     2.0000 </r>
       <r>   -22.3654     0.0000     2.0000 </r>
       <r>   -22.2608     0.0000     2.0000 </r>
       <r>   -22.1562     0.0000     2.0000 </r>
       <r>   -22.0516     0.0000     2.0000 </r>
       <r>   -21.9470     0.0000     2.0000 </r>
       <r>   -21.8424     0.0000     2.0000 </r>
       <r>   -21.7378     0.0000     2.0000 </r>
       <r>   -21.6332     0.0000     2.0000 </r>
       <r>   -21.5286     0.0000     2.0000 </r>
       <r>   -21.4240     0.0000     2.0000 </r>
       <r>   -21.3194     0.0000     2.0000 </r>
       <r>   -21.2148     0.0000     2.0000 </r>
       <r>   -21.1102     0.0000     2.0000 </r>
       <r>   -21.0057     0.0000     2.0000 </r>
       <r>   -20.9011     0.0000     2.0000 </r>
       <r>   -20.7965     0.0000     2.0000 </r>
       <r>   -20.6919     0.0000     2.0000 </r>
       <r>   -20.5873     0.0000     2.0000 </r>
       <r>   -20.4827     0.0000     2.0000 </r>
       <r>   -20.3781     0.0000     2.0000 </r>
       <r>   -20.2735     0.0000     2.0000 </r>
       <r>   -20.1689     0.0000     2.0000 </r>
       <r>   -20.0643     0.0000     2.0000 </r>
       <r>   -19.9597     0.0000     2.0000 </r>
       <r>   -19.8551     0.0000     2.0000 </r>
       <r>   -19.7505     0.0000     2.0000 </r>
       <r>   -19.6459     0.0000     2.0000 </r>
       <r>   -19.5413     0.0000     2.0000 </r>
       <r>   -19.4367     0.0000     2.0000 </r>
       <r>   -19.3321     0.0000     2.0000 </r>
       <r>   -19.2275     0.0000     2.0000 </r>
       <r>   -19.1230     0.0000     2.0000 </r>
       <r>   -19.0184     0.0000     2.0000 </r>
       <r>   -18.9138     0.0000     2.0000 </r>
       <r>   -18.8092     0.0000     2.0000 </r>
       <r>   -18.7046     0.0000     2.0000 </r>
       <r>   -18.6000     0.0000     2.0000 </r>
       <r>   -18.4954     0.0000     2.0000 </r>
       <r>   -18.3908     0.0000     2.0000 </r>
       <r>   -18.2862     0.0000     2.0000 </r>
       <r>   -18.1816     0.0000     2.0000 </r>
       <r>   -18.0770     0.0000     2.0000 </r>
       <r>   -17.9724     0.0000     2.0000 </r>
       <r>   -17.8678     0.0000     2.0000 </r>
       <r>   -17.7632     0.0000     2.0000 </r>
       <r>   -17.6586     0.0000     2.0000 </r>
       <r>   -17.5540     0.0000     2.0000 </r>
       <r>   -17.4494     0.0000     2.0000 </r>
       <r>   -17.3449     0.0000     2.0000 </r>
       <r>   -17.2403     0.0000     2.0000 </r>
       <r>   -17.1357     0.0000     2.0000 </r>
       <r>   -17.0311     0.0000     2.0000 </r>
       <r>   -16.9265     0.0000     2.0000 </r>
       <r>   -16.8219     0.0000     2.0000 </r>
       <r>   -16.7173     0.0000     2.0000 </r>
       <r>   -16.6127     0.0000     2.0000 </r>
       <r>   -16.5081     0.0000     2.0000 </r>
       <r>   -16.4035     0.0000     2.0000 </r>
       <r>   -16.2989     0.0000     2.0000 </r>
       <r>   -16.1943     0.0000     2.0000 </r>
       <r>   -16.0897     0.0000     2.0000 </r>
       <r>   -15.9851     0.0000     2.0000 </r>
       <r>   -15.8805     0.0000     2.0000 </r>
       <r>   -15.7759     0.0000     2.0000 </r>
       <r>   -15.6713     0.0000     2.0000 </r>
       <r>   -15.5667     0.0000     2.0000 </r>
       <r>   -15.4622     0.0000     2.0000 </r>
       <r>   -15.3576     0.0000     2.0000 </r>
       <r>   -15.2530     0.0000     2.0000 </r>
       <r>   -15.1484     0.0000     2.0000 </r>
       <r>   -15.0438     0.0000     2.0000 </r>
       <r>   -14.9392     0.0000     2.0000 </r>
       <r>   -14.8346     0.0000     2.0000 </r>
       <r>   -14.7300     0.0000     2.0000 </r>
       <r>   -14.6254    -0.0000     2.0000 </r>
       <r>   -14.5208    -0.0000     2.0000 </r>
       <r>   -14.4162    -0.0000     2.0000 </r>
       <r>   -14.3116    -0.0000     2.0000 </r>
       <r>   -14.2070    -0.0000     2.0000 </r>
       <r>   -14.1024    -0.0000     2.0000 </r>
       <r>   -13.9978    -0.0072     1.9992 </r>
       <r>   -13.8932    -0.3548     1.9621 </r>
       <r>   -13.7886     1.5231     2.1214 </r>
       <r>   -13.6840    14.3428     3.6216 </r>
       <r>   -13.5795     4.1904     4.0599 </r>
       <r>   -13.4749    -0.5498     4.0024 </r>
       <r>   -13.3703    -0.0228     4.0000 </r>
       <r>   -13.2657    -0.0001     4.0000 </r>
       <r>   -13.1611    -0.0000     4.0000 </r>
       <r>   -13.0565    -0.0000     4.0000 </r>
       <r>   -12.9519     0.0000     4.0000 </r>
       <r>   -12.8473     0.0000     4.0000 </r>
       <r>   -12.7427     0.0000     4.0000 </r>
       <r>   -12.6381     0.0000     4.0000 </r>
       <r>   -12.5335     0.0000     4.0000 </r>
       <r>   -12.4289     0.0000     4.0000 </r>
       <r>   -12.3243     0.0000     4.0000 </r>
       <r>   -12.2197     0.0000     4.0000 </r>
       <r>   -12.1151    -0.0000     4.0000 </r>
       <r>   -12.0105    -0.0000     4.0000 </r>
       <r>   -11.9059    -0.0000     4.0000 </r>
       <r>   -11.8014    -0.0000     4.0000 </r>
       <r>   -11.6968    -0.0000     4.0000 </r>
       <r>   -11.5922    -0.0004     4.0000 </r>
       <r>   -11.4876    -0.0783     3.9918 </r>
       <r>   -11.3830    -0.5782     3.9313 </r>
       <r>   -11.2784     8.6128     4.8321 </r>
       <r>   -11.1738    10.9900     5.9816 </r>
       <r>   -11.0692     3.3794     6.3351 </r>
       <r>   -10.9646    13.8654     7.7853 </r>
       <r>   -10.8600     5.2385     8.3333 </r>
       <r>   -10.7554    14.1839     9.8168 </r>
       <r>   -10.6508     2.1750    10.0443 </r>
       <r>   -10.5462    -0.4134    10.0011 </r>
       <r>   -10.4416    -0.0103    10.0000 </r>
       <r>   -10.3370    -0.0356     9.9963 </r>
       <r>   -10.2324    -0.6069     9.9328 </r>
       <r>   -10.1278     5.6089    10.5195 </r>
       <r>   -10.0232    13.6862    11.9510 </r>
       <r>    -9.9187     0.7495    12.0293 </r>
       <r>    -9.8141    -0.2763    12.0004 </r>
       <r>    -9.7095    -0.0042    12.0000 </r>
       <r>    -9.6049    -0.0000    12.0000 </r>
       <r>    -9.5003    -0.0000    12.0000 </r>
       <r>    -9.3957    -0.0000    12.0000 </r>
       <r>    -9.2911    -0.0000    12.0000 </r>
       <r>    -9.1865    -0.0000    12.0000 </r>
       <r>    -9.0819    -0.0000    12.0000 </r>
       <r>    -8.9773    -0.0000    12.0000 </r>
       <r>    -8.8727    -0.0030    11.9997 </r>
       <r>    -8.7681    -0.2324    11.9754 </r>
       <r>    -8.6635     0.3690    12.0140 </r>
       <r>    -8.5589    13.1029    13.3845 </r>
       <r>    -8.4543     6.5378    14.0683 </r>
       <r>    -8.3497    -1.1230    13.9508 </r>
       <r>    -8.2451     3.2993    14.2959 </r>
       <r>    -8.1405    14.5684    15.8197 </r>
       <r>    -8.0360     2.1440    16.0439 </r>
       <r>    -7.9314    -0.4231    15.9997 </r>
       <r>    -7.8268    -0.4706    15.9505 </r>
       <r>    -7.7222     2.4193    16.2035 </r>
       <r>    -7.6176    15.4696    17.8215 </r>
       <r>    -7.5130    15.9071    19.4853 </r>
       <r>    -7.4084    14.3487    20.9861 </r>
       <r>    -7.3038    25.4120    23.6441 </r>
       <r>    -7.1992    21.0858    25.8495 </r>
       <r>    -7.0946    17.8579    27.7174 </r>
       <r>    -6.9900    19.4659    29.7534 </r>
       <r>    -6.8854    12.6349    31.0749 </r>
       <r>    -6.7808    35.3867    34.7762 </r>
       <r>    -6.6762    38.3354    38.7858 </r>
       <r>    -6.5716    39.0547    42.8707 </r>
       <r>    -6.4670    40.0544    47.0602 </r>
       <r>    -6.3624    38.9685    51.1361 </r>
       <r>    -6.2578    42.9416    55.6275 </r>
       <r>    -6.1533    46.6195    60.5037 </r>
       <r>    -6.0487    42.5192    64.9509 </r>
       <r>    -5.9441    35.4070    68.6543 </r>
       <r>    -5.8395    17.3699    70.4711 </r>
       <r>    -5.7349    27.4963    73.3471 </r>
       <r>    -5.6303    37.8534    77.3063 </r>
       <r>    -5.5257    59.0243    83.4799 </r>
       <r>    -5.4211    56.2923    89.3678 </r>
       <r>    -5.3165    82.2163    97.9671 </r>
       <r>    -5.2119    87.3726   107.1058 </r>
       <r>    -5.1073    87.6476   116.2733 </r>
       <r>    -5.0027    69.1102   123.5018 </r>
       <r>    -4.8981    75.1034   131.3572 </r>
       <r>    -4.7935    83.6866   140.1103 </r>
       <r>    -4.6889    49.9653   145.3364 </r>
       <r>    -4.5843     8.9621   146.2738 </r>
       <r>    -4.4797    13.1039   147.6444 </r>
       <r>    -4.3752     3.9224   148.0547 </r>
       <r>    -4.2706    -1.5810   147.8893 </r>
       <r>    -4.1660     7.4885   148.6726 </r>
       <r>    -4.0614    28.8035   151.6852 </r>
       <r>    -3.9568     3.7991   152.0826 </r>
       <r>    -3.8522    -0.7716   152.0019 </r>
       <r>    -3.7476    -0.0182   152.0000 </r>
       <r>    -3.6430    -0.0001   152.0000 </r>
       <r>    -3.5384    -0.0199   151.9979 </r>
       <r>    -3.4338    -0.5280   151.9427 </r>
       <r>    -3.3292     3.7977   152.3399 </r>
       <r>    -3.2246    14.4142   153.8476 </r>
       <r>    -3.1200     1.1566   153.9685 </r>
       <r>    -3.0154     6.1448   154.6112 </r>
       <r>    -2.9108    15.5078   156.2333 </r>
       <r>    -2.8062    14.8517   157.7867 </r>
       <r>    -2.7016     2.4944   158.0476 </r>
       <r>    -2.5970    -0.9608   157.9471 </r>
       <r>    -2.4925     3.3638   158.2989 </r>
       <r>    -2.3879    14.4518   159.8105 </r>
       <r>    -2.2833     1.6679   159.9850 </r>
       <r>    -2.1787     9.6555   160.9949 </r>
       <r>    -2.0741     9.5171   161.9903 </r>
       <r>    -1.9695     5.2308   162.5374 </r>
       <r>    -1.8649    12.7086   163.8667 </r>
       <r>    -1.7603    12.5405   165.1783 </r>
       <r>    -1.6557    23.8523   167.6731 </r>
       <r>    -1.5511     3.8085   168.0715 </r>
       <r>    -1.4465    -0.6651   168.0019 </r>
       <r>    -1.3419    -0.3519   167.9651 </r>
       <r>    -1.2373     1.2349   168.0943 </r>
       <r>    -1.1327    13.8454   169.5424 </r>
       <r>    -1.0281     5.6322   170.1315 </r>
       <r>    -0.9235    13.2614   171.5186 </r>
       <r>    -0.8189    15.9582   173.1877 </r>
       <r>    -0.7143     8.3377   174.0598 </r>
       <r>    -0.6098    11.8947   175.3039 </r>
       <r>    -0.5052     7.2578   176.0631 </r>
       <r>    -0.4006    -1.4409   175.9123 </r>
       <r>    -0.2960     8.3957   176.7905 </r>
       <r>    -0.1914    24.6255   179.3662 </r>
       <r>    -0.0868    18.3136   181.2817 </r>
       <r>     0.0178     6.9954   182.0133 </r>
       <r>     0.1224     3.8179   182.4127 </r>
       <r>     0.2270    14.1683   183.8946 </r>
       <r>     0.3316     1.3527   184.0361 </r>
       <r>     0.4362    -0.3386   184.0007 </r>
       <r>     0.5408    -0.0065   184.0000 </r>
       <r>     0.6454    -0.0000   184.0000 </r>
       <r>     0.7500    -0.0000   184.0000 </r>
       <r>     0.8546    -0.0000   184.0000 </r>
       <r>     0.9592     0.0000   184.0000 </r>
       <r>     1.0638     0.0000   184.0000 </r>
       <r>     1.1684     0.0000   184.0000 </r>
       <r>     1.2729     0.0000   184.0000 </r>
       <r>     1.3775     0.0000   184.0000 </r>
       <r>     1.4821     0.0000   184.0000 </r>
       <r>     1.5867     0.0000   184.0000 </r>
      </set>
     </set>
    </array>
   </total>
  </dos>
 </calculation>
 <structure name="finalpos" >
  <crystal>
   <varray name="basis" >
    <v>      15.00000000       0.00000000       0.00000000 </v>
    <v>       0.00000000      15.00000000       0.00000000 </v>
    <v>       0.00000000       0.00000000      15.00000000 </v>
   </varray>
   <i name="volume">   3375.00000000 </i>
   <varray name="rec_basis" >
    <v>       0.06666667       0.00000000       0.00000000 </v>
    <v>       0.00000000       0.06666667       0.00000000 </v>
    <v>       0.00000000       0.00000000       0.06666667 </v>
   </varray>
  </crystal>
  <varray name="positions" >
   <v>       0.29226800       0.42338067       0.54989400 </v>
   <v>       0.37635800       0.55197200       0.48657867 </v>
   <v>       0.39423400       0.28795667       0.56469733 </v>
   <v>       0.53396000       0.50675800       0.48309667 </v>
   <v>       0.55008400       0.34444800       0.53285067 </v>
   <v>       0.44989800       0.43476200       0.61333467 </v>
   <v>       0.41523067       0.40092933       0.44642933 </v>
   <v>       0.22788667       0.57393267       0.54873733 </v>
   <v>       0.33477333       0.54217867       0.65551933 </v>
   <v>       0.35628600       0.68143333       0.57602133 </v>
   <v>       0.48794733       0.66548800       0.47331667 </v>
   <v>       0.61548867       0.47864800       0.61491467 </v>
   <v>       0.48632200       0.59277933       0.61345667 </v>
   <v>       0.73242667       0.48881333       0.64321333 </v>
   <v>       0.80743333       0.50527333       0.63647733 </v>
  </varray>
 </structure>
</modeling>
